Control file title. For DL_FIELD 4.10
49780
    1MOL     C1    1   0.519   2.867   3.084  0.0572  0.0649  0.0830
    1MOL     N2    2   0.532   2.867   3.229 -0.4045 -0.3334 -0.1215
    1MOL     C3    3   0.652   2.855   3.289  0.0264  0.0815 -0.3414
    1MOL     O4    4   0.661   2.879   3.408 -0.8349 -0.2860  0.2315
    1MOL     C5    5   0.774   2.809   3.210 -0.4828 -0.4451  0.1481
    1MOL     C6    6   0.562   2.994   3.012  0.2886  0.6407 -0.3894
    1MOL     H7    7   0.571   2.783   3.040  1.3055  0.9176 -0.1152
    1MOL     H8    8   0.450   2.887   3.284  0.9593 -0.3029  1.9801
    1MOL     H9    9   0.858   2.876   3.229 -0.0996 -0.3833 -1.6227
    1MOL    H10   10   0.809   2.714   3.249  2.0209 -1.1203 -3.3978
    1MOL    H11   11   0.767   2.793   3.102 -0.1540  0.6184 -0.0445
    1MOL    H12   12   0.483   3.069   3.027 -0.7105  0.0982 -2.7587
    1MOL    H13   13   0.651   3.034   3.060 -0.3225  0.7994  0.6432
    1MOL    H14   14   0.414   2.854   3.060  0.2182  0.3326 -0.7752
    1MOL    C15   15   0.596   2.970   2.862 -0.0932  0.5727  0.9232
    1MOL    N16   16   0.734   2.936   2.839 -0.0032  0.2688  0.1721
    1MOL    C17   17   0.769   2.814   2.798  0.4550 -0.7598 -0.0297
    1MOL    O18   18   0.695   2.727   2.742 -0.1819 -0.2153  0.0650
    1MOL    C19   19   0.915   2.783   2.800  0.2354 -0.7449  0.1147
    1MOL    C20   20   0.571   3.095   2.766 -0.2427 -0.5578 -0.2311
    1MOL    H21   21   0.534   2.892   2.817  1.2163  0.4092 -0.6511
    1MOL    H22   22   0.794   3.011   2.870  1.0778  0.0446 -1.3340
    1MOL    H23   23   0.950   2.739   2.706 -0.5901  0.3250 -0.7156
    1MOL    H24   24   0.974   2.874   2.806 -2.1028  0.8164  0.1226
    1MOL    H25   25   0.946   2.715   2.879 -1.3028 -0.5498  0.9040
    1MOL    H26   26   0.633   3.176   2.804  0.1765 -0.4915 -1.0391
    1MOL    H27   27   0.604   3.067   2.666  1.1135 -2.9404  0.8413
    1MOL    C28   28   0.420   3.136   2.762  0.3719 -0.4159  0.2166
    1MOL    N29   29   0.347   3.023   2.715 -0.0018  0.5358 -0.0732
    1MOL    C30   30   0.253   2.956   2.787 -0.7697 -0.0258 -0.6984
    1MOL    O31   31   0.243   2.968   2.914  0.8626  0.1894 -0.3371
    1MOL    C32   32   0.168   2.852   2.723 -1.3169 -0.6294 -0.0177
    1MOL    C33   33   0.400   3.260   2.667 -1.3566 -0.2537 -0.4489
    1MOL    H34   34   0.404   3.178   2.861  3.2312  0.1846  0.4646
    1MOL    H35   35   0.357   2.991   2.620  3.5895  1.1709 -0.0078
    1MOL    H36   36   0.185   2.761   2.781 -0.1209  0.2874  1.0948
    1MOL    H37   37   0.065   2.882   2.740 -0.3454  2.3244  0.9103
    1MOL    H38   38   0.173   2.844   2.614 -1.4688 -3.3033  0.1314
    1MOL    H39   39   0.460   3.344   2.702 -1.6814  1.3484 -3.5584
    1MOL    H40   40   0.441   3.251   2.567 -0.8123 -0.8532 -0.1730
    1MOL    C41   41   0.252   3.311   2.651  0.0716  0.2673 -0.5747
    1MOL    N42   42   0.242   3.423   2.555  0.2560 -0.1794  0.8236
    1MOL    C43   43   0.256   3.413   2.418 -0.1194  0.3069 -0.2866
    1MOL    O44   44   0.279   3.307   2.368  0.2978  0.8145  0.9331
    1MOL    C45   45   0.250   3.540   2.339  0.3137  0.0595  0.0119
    1MOL    C46   46   0.179   3.357   2.775 -0.6094 -0.0831 -1.1812
    1MOL    H47   47   0.191   3.238   2.597  0.8933 -0.4698 -0.5280
    1MOL    H48   48   0.226   3.515   2.594  0.0727 -0.8165  2.3079
    1MOL    H49   49   0.288   3.523   2.238 -0.1130  0.5417 -0.2277
    1MOL    H50   50   0.148   3.566   2.310 -0.3595 -1.9009  0.5489
    1MOL    H51   51   0.295   3.628   2.383  0.6549  0.6945 -1.5775
    1MOL    H52   52   0.203   3.292   2.859 -2.4531  1.1066  0.2882
    1MOL    H53   53   0.229   3.448   2.809  2.4224 -1.7813 -0.9176
    1MOL    C54   54   0.025   3.377   2.759 -0.0580 -0.6439 -0.2879
    1MOL    N55   55   7.815   3.443   2.873 -0.3877  0.0589  0.1068
    1MOL    C56   56   0.003   3.564   2.918 -0.5628 -0.2861  0.3741
    1MOL    O57   57   0.060   3.655   2.850  0.4363 -0.4622 -0.1595
    1MOL    C58   58   7.773   3.600   3.051 -0.6511 -0.0574  0.0328
    1MOL    C59   59   7.786   3.254   2.730  0.2843 -0.2530 -0.1347
    1MOL    H60   60   0.009   3.451   2.680 -0.7525 -0.9068 -0.3978
    1MOL    H61   61   7.790   3.379   2.947 -1.3092 -0.4945 -0.6723
    1MOL    H62   62   7.722   3.696   3.049  1.1532  0.9286  0.2103
    1MOL    H63   63   7.693   3.531   3.079 -2.4475  1.1390 -1.9982
    1MOL    H64   64   0.011   3.598   3.127  0.9247  0.4621 -1.5453
    1MOL    H65   65   0.002   3.175   2.679 -1.7989 -0.9635 -1.3612
    1MOL    H66   66   7.787   3.208   2.829  0.1963  2.6139  1.2413
    1MOL    C67   67   7.647   3.272   2.651 -0.2735  0.0298 -0.2754
    1MOL    N68   68   7.550   3.157   2.672 -0.4466  0.3688 -0.0146
    1MOL    C69   69   7.573   3.026   2.651  0.3518 -0.5466 -0.4100
    1MOL    O70   70   7.684   2.987   2.608  0.8079  0.0637  0.2511
    1MOL    C71   71   7.462   2.929   2.672  0.1628 -0.5598  0.2025
    1MOL    C72   72   7.665   3.297   2.500  0.5687 -0.1302 -0.1263
    1MOL    H73   73   7.611   3.370   2.682  2.5556  2.0083 -2.9346
    1MOL    H74   74   7.464   3.175   2.723  0.9039  0.5743  2.2585
    1MOL    H75   75   7.428   2.913   2.774 -2.1283  2.1317 -0.0960
    1MOL    H76   76   7.380   2.979   2.621  1.4779  0.4613 -0.9204
    1MOL    H77   77   7.488   2.838   2.616  0.9525  0.0322 -0.4052
    1MOL    H78   78   7.741   3.375   2.498 -1.5007  1.9541 -1.6451
    1MOL    H79   79   7.704   3.207   2.453 -0.8122 -1.1511  0.6407
    1MOL    C80   80   7.535   3.345   2.420  0.3452 -0.2250  0.0072
    1MOL    N81   81   7.479   3.243   2.334 -0.5008  0.4155  0.2373
    1MOL    C82   82   7.375   3.167   2.358  0.4133  0.1959  0.2769
    1MOL    O83   83   7.300   3.175   2.453  0.3312 -0.1227 -0.5074
    1MOL    C84   84   7.357   3.039   2.278 -0.1275 -0.4074  0.0501
    1MOL    C85   85   7.576   3.465   2.333  0.0522 -0.4034  0.2388
    1MOL    H86   86   7.472   3.392   2.497  0.8657  0.7915 -0.1810
    1MOL    H87   87   7.522   3.224   2.245 -0.1728 -0.9093  0.6652
    1MOL    H88   88   7.256   3.008   2.253 -0.5149  0.1427  0.9193
    1MOL    H89   89   7.421   3.029   2.190  0.1335  0.8728  0.0865
    1MOL    H90   90   7.395   2.962   2.345  1.1444  0.7702  0.7061
    1MOL    H91   91   7.665   3.442   2.275 -1.3326 -3.3530 -0.7564
    1MOL    H92   92   7.495   3.465   2.261  0.1124  0.5034  0.1629
    1MOL    C93   93   7.584   3.606   2.389 -0.7836 -0.4797 -0.2063
    1MOL    N94   94   7.630   3.688   2.282  0.2370  0.3842  0.1879
    1MOL    C95   95   7.560   3.787   2.229 -0.5004  0.1573  0.1012
    1MOL    O96   96   7.450   3.813   2.270 -0.4944 -0.1354  0.2245
    1MOL    C97   97   7.616   3.869   2.114 -0.4147  0.1637 -0.2591
    1MOL    C98   98   7.678   3.626   2.514 -0.8728 -0.2913 -0.1917
    1MOL    H99   99   7.479   3.625   2.412 -0.5669 -0.2650  0.6293
    1MOL   H100  100   7.716   3.663   2.236 -0.2148  0.7932 -0.8907
    1MOL   H101  101   7.720   3.840   2.099 -0.4834 -0.6050  0.7116
    1MOL   H102  102   7.573   3.846   2.016 -0.9896 -2.2442  0.5079
    1MOL   H103  103   7.600   3.971   2.146 -1.3899  0.2524 -0.9954
    1MOL   H104  104   7.650   3.558   2.594  0.1189 -0.6863 -0.1668
    1MOL   H105  105   7.780   3.598   2.488 -0.6566 -0.6631  1.0043
    1MOL   C106  106   7.704   3.773   2.567 -0.0082 -0.4214  0.0759
    1MOL   N107  107   0.002   3.791   2.616  0.5372  0.7752 -0.3105
    1MOL   C108  108   0.112   3.804   2.534 -0.2728  1.1336  0.5895
    1MOL   O109  109   0.098   3.824   2.413 -0.0261 -0.1260  0.0151
    1MOL   C110  110   0.250   3.810   2.597 -0.1441 -0.4542 -0.1665
    1MOL   C111  111   7.618   3.802   2.699 -1.1679  0.1525 -0.9766
    1MOL   H112  112   7.685   3.851   2.493  1.0751 -0.3862 -0.1727
    1MOL   H113  113   0.023   3.779   2.714  1.1064  0.4023 -0.4755
    1MOL   H114  114   0.279   3.914   2.612 -0.2010 -0.3504 -0.7455
    1MOL   H115  115   0.242   3.760   2.693  1.1455  1.6490  1.0715
    1MOL   H116  116   0.334   3.773   2.538  2.4869  0.5714  2.7904
    1MOL   H117  117   7.629   3.714   2.762 -0.2165  0.3894 -0.7990
    1MOL   H118  118   7.670   3.887   2.744 -1.2452  1.1043 -2.6347
    1MOL   C119  119   7.465   3.827   2.690 -0.0493 -0.5362 -0.0801
    1MOL   N120  120   7.423   3.916   2.582  0.3221 -0.6561 -0.1134
    1MOL   C121  121   7.433   4.054   2.594  0.4502  1.1648 -1.0734
    1MOL   O122  122   7.447   4.115   2.701 -0.2444 -0.2117  0.0576
    1MOL   C123  123   7.425   4.128   2.463 -0.6537 -0.6590  0.1533
    1MOL   C124  124   7.391   3.849   2.825 -0.1882  0.6247 -0.2814
    1MOL   H125  125   7.419   3.740   2.643 -0.5728  0.3391 -1.1938
    1MOL   H126  126   7.438   3.876   2.490  2.4324 -0.4936  0.1266
    1MOL   H127  127   7.421   4.081   2.365 -1.6086  0.4991 -0.3692
    1MOL   H128  128   7.335   4.188   2.477 -0.1207  0.1709  0.0992
    1MOL   H129  129   7.519   4.182   2.477 -0.1305 -0.9943 -1.9349
    1MOL   H130  130   7.416   3.949   2.858  2.0926  0.5097 -1.5644
    1MOL   H131  131   7.285   3.844   2.799 -0.8301  1.0623  2.0934
    1MOL   C132  132   7.423   3.762   2.948 -0.1650  0.7095  0.4527
    1MOL   N133  133   7.376   3.623   2.917 -0.6559  0.0151  1.0363
    1MOL   C134  134   7.393   3.507   2.983  0.7189 -0.3298  0.2264
    1MOL   O135  135   7.447   3.505   3.094  0.2333  0.4642  0.3128
    1MOL   C136  136   7.334   3.376   2.931  0.3164  0.3379 -0.2617
    1MOL   C137  137   7.374   3.808   3.082  0.4307  0.4801 -0.5422
    1MOL   H138  138   7.532   3.762   2.956 -0.1538 -2.0398  0.7952
    1MOL   H139  139   7.314   3.609   2.838 -1.3982  0.7753  1.4730
    1MOL   H140  140   7.227   3.394   2.926  0.5854  2.0032 -0.2718
    1MOL   H141  141   7.372   3.357   2.831  0.9369  0.1613  0.0013
    1MOL   H142  142   7.360   3.295   3.000 -1.2188  1.8453  2.1766
    1MOL   H143  143   7.269   3.790   3.103  0.8205 -0.0870  0.9837
    1MOL   H144  144   7.439   3.755   3.152  0.9817 -0.7861 -2.0008
    1MOL   C145  145   7.380   3.958   3.121 -0.6730  0.4430 -0.4739
    1MOL   N146  146   7.280   4.038   3.047 -0.0557  0.1747 -0.3697
    1MOL   C147  147   7.149   4.041   3.078  0.5339 -0.1531 -0.1129
    1MOL   O148  148   7.109   3.997   3.185  0.4574 -0.3449  0.0741
    1MOL   C149  149   7.054   4.089   2.971 -0.2575 -0.0869  0.4339
    1MOL   C150  150   7.525   4.008   3.119 -0.4878 -0.5384  1.1495
    1MOL   H151  151   7.355   3.965   3.227  0.3329 -0.0493 -0.1962
    1MOL   H152  152   7.300   4.069   2.953 -0.1151  3.0769  0.5270
    1MOL   H153  153   7.080   4.193   2.950 -0.4712  0.3401  2.2497
    1MOL   H154  154   7.055   4.023   2.884 -1.5874  0.2444  0.1618
    1MOL   H155  155   6.953   4.092   3.010 -0.4909  2.2677 -0.2384
    1MOL   H156  156   7.583   3.952   3.192  0.7346 -2.6579 -1.3553
    1MOL   H157  157   7.567   3.979   3.023 -1.6189 -0.3028  0.5640
    1MOL   C158  158   7.548   4.158   3.155 -0.2162 -0.3604  0.4522
    1MOL   N159  159   7.657   4.208   3.069 -0.1893 -0.0676  0.4358
    1MOL   C160  160   7.673   4.338   3.027 -0.2038 -0.0354 -0.1848
    1MOL   O161  161   7.593   4.432   3.058 -0.6816 -0.0407  0.5030
    1MOL   C162  162   7.797   4.374   2.942 -0.0612  0.0596 -0.1569
    1MOL   C163  163   7.597   4.171   3.301  0.1763 -0.1649  0.1331
    1MOL   H164  164   7.459   4.219   3.141 -0.5031 -0.8038  0.3136
    1MOL   H165  165   7.716   4.141   3.023 -1.5353 -1.6600  0.9843
    1MOL   H166  166   7.779   4.380   2.835 -0.3309 -2.2492 -0.2674
    1MOL   H167  167   7.829   4.474   2.973  0.6794  0.2579 -1.5265
    1MOL   H168  168   0.028   4.295   2.967  1.0019  1.0291 -0.0316
    1MOL   H169  169   7.699   4.132   3.309 -0.0655 -1.1518 -1.4448
    1MOL   H170  170   7.622   4.277   3.303  1.0700 -0.3006 -2.5040
    1MOL   C171  171   7.512   4.127   3.430 -0.1863  0.1779 -0.0032
    1MOL   N172  172   7.498   3.982   3.446  0.6832 -0.1645 -0.1360
    1MOL   C173  173   7.602   3.899   3.472 -0.0755  0.1278 -0.5378
    1MOL   O174  174   7.721   3.924   3.454 -0.0892 -0.7589  0.0860
    1MOL   C175  175   7.563   3.761   3.524 -0.6694 -0.2943 -0.0261
    1MOL   C176  176   7.371   4.197   3.447  0.0106  0.2029 -0.0112
    1MOL   H177  177   7.572   4.171   3.509  0.9853  0.8103 -1.2179
    1MOL   H178  178   7.407   3.952   3.480  0.5013 -1.0791 -1.4258
    1MOL   H179  179   7.520   3.771   3.624  1.2296  0.1093  0.7835
    1MOL   H180  180   7.485   3.724   3.458 -0.8143  2.6422 -1.6250
    1MOL   H181  181   7.646   3.691   3.532 -0.2506  0.1775 -0.1541
    1MOL   H182  182   7.307   4.195   3.359 -0.7302  1.8099  0.4664
    1MOL   H183  183   7.311   4.140   3.517  2.3291 -0.6889  1.3196
    1MOL   C184  184   7.371   4.343   3.495 -0.2353  0.0573  0.6296
    1MOL   N185  185   7.339   4.343   3.640 -1.1366  0.2763  0.4313
    1MOL   C186  186   7.435   4.341   3.739  0.1488 -0.6050  0.4320
    1MOL   O187  187   7.555   4.335   3.717 -0.5173 -0.5360  0.1740
    1MOL   C188  188   7.374   4.329   3.878 -0.5783  0.6572 -0.5156
    1MOL   C189  189   7.270   4.431   3.421  0.6431  0.2646  0.8211
    1MOL   H190  190   7.472   4.379   3.478 -0.1950  0.1736  1.1064
    1MOL   H191  191   7.250   4.371   3.678 -0.4146  1.6968  1.1215
    1MOL   H192  192   7.338   4.423   3.919  0.6175  0.2142  1.6515
    1MOL   H193  193   7.303   4.247   3.876 -2.0771  1.9119  0.2938
    1MOL   H194  194   7.445   4.288   3.950 -2.7099  0.5471  1.5830
    1MOL   H195  195   7.175   4.379   3.422  0.5886  0.3476  0.2714
    1MOL   H196  196   7.263   4.527   3.474 -1.4144  1.2793 -1.2338
    1MOL   C197  197   7.299   4.477   3.270 -0.0176  0.7846  0.7692
    1MOL   N198  198   7.429   4.545   3.251  0.5476  0.7741 -0.0524
    1MOL   C199  199   7.475   4.656   3.305  0.1304 -0.4941 -0.1689
    1MOL   O200  200   7.394   4.729   3.362  0.1448  0.2343 -0.1660
    1MOL   C201  201   7.617   4.696   3.282 -0.4507 -0.2244  0.4152
    1MOL   C202  202   7.175   4.549   3.221 -0.5617 -0.3670 -0.4716
    1MOL   H203  203   7.302   4.382   3.217 -4.0917  1.3499 -0.6584
    1MOL   H204  204   7.502   4.496   3.202 -1.0592 -0.2313 -1.4868
    1MOL   H205  205   7.657   4.665   3.185  0.1422 -0.5585  0.7597
    1MOL   H206  206   7.626   4.802   3.303  0.7574 -0.1780 -0.2623
    1MOL   H207  207   7.677   4.633   3.348 -0.5898  1.0254  1.7524
    1MOL   H208  208   7.096   4.475   3.238 -0.1405 -0.4103  1.4139
    1MOL   H209  209   7.161   4.635   3.286  0.6046 -1.3844  1.1638
    1MOL   C210  210   7.185   4.601   3.072  0.4775  0.9633  0.5152
    1MOL   N211  211   7.059   4.662   3.050  0.3975 -0.2579  0.1330
    1MOL   C212  212   7.035   4.782   2.985 -0.4483  0.4572  0.1680
    1MOL   O213  213   7.121   4.849   2.924 -0.2826 -0.1284  0.0887
    1MOL   C214  214   6.891   4.841   2.986 -0.3887 -0.2070  0.3595
    1MOL   C215  215   7.212   4.485   2.962 -0.8204 -0.7094  0.4828
    1MOL   H216  216   7.259   4.679   3.052  0.7914  0.0329 -2.0578
    1MOL   H217  217   6.987   4.620   3.108 -0.4717  0.5742 -0.3280
    1MOL   H218  218   6.825   4.757   2.964 -0.7986  0.2047  0.0204
    1MOL   H219  219   6.861   4.886   3.080 -2.6693  0.0534 -0.4560
    1MOL   H220  220   6.883   4.918   2.910 -1.0694 -1.3075 -0.7043
    1MOL   H221  221   7.318   4.459   2.974 -0.1000  2.3754  1.2308
    1MOL   H222  222   7.157   4.398   2.998 -4.0705  0.7685 -0.7908
    1MOL   C223  223   7.194   4.532   2.812 -0.2134  0.2339  0.0368
    1MOL   N224  224   7.185   4.411   2.730  0.1027  0.3296 -0.1451
    1MOL   C225  225   7.059   4.367   2.696  0.1767  0.2020 -0.9426
    1MOL   O226  226   6.956   4.418   2.736 -0.1317  0.0917  0.0638
    1MOL   C227  227   7.038   4.239   2.615  0.6814  0.3555  0.8872
    1MOL   C228  228   7.325   4.610   2.770 -0.5643  0.2126 -0.1342
    1MOL   H229  229   7.112   4.602   2.797 -1.3796 -1.2036 -0.4384
    1MOL   H230  230   7.265   4.362   2.692 -0.8638 -1.9354  0.6529
    1MOL   H231  231   7.127   4.178   2.595 -0.0511 -0.2426 -0.6321
    1MOL   H232  232   6.975   4.166   2.667  3.9171 -2.2843  1.2873
    1MOL   H233  233   6.984   4.257   2.522  0.7828 -1.0456  0.5327
    1MOL   H234  234   7.350   4.682   2.848  2.6730 -1.6135  0.6080
    1MOL   H235  235   7.406   4.537   2.759 -0.2450  0.6119 -0.4240
    1MOL   C236  236   7.318   4.694   2.635  0.9549  0.6894 -1.1807
    1MOL   N237  237   7.208   4.788   2.656 -0.6642 -0.1429 -0.5331
    1MOL   C238  238   7.177   4.884   2.567 -0.0380 -0.3652 -0.5666
    1MOL   O239  239   7.232   4.898   2.456  0.2939  0.2358  0.0914
    1MOL   C240  240   7.058   4.977   2.583 -0.3239  0.6039  0.4631
    1MOL   C241  241   7.301   4.609   2.507 -0.5063  0.0217 -0.3459
    1MOL   H242  242   7.416   4.741   2.629  1.0625  0.6503  0.1858
    1MOL   H243  243   7.148   4.782   2.737 -1.6618  1.0077 -1.1658
    1MOL   H244  244   7.007   4.966   2.678 -1.7612  1.0410 -0.2360
    1MOL   H245  245   7.095   5.080   2.592 -0.9979  1.0398 -1.5027
    1MOL   H246  246   6.990   4.961   2.499  1.6818  1.7142 -1.4304
    1MOL   H247  247   7.219   4.538   2.510 -0.4605 -0.0016  0.8522
    1MOL   H248  248   7.288   4.665   2.415  0.5841  0.4372 -0.2626
    1MOL   C249  249   7.427   4.535   2.463  0.0761 -0.2810 -0.9518
    1MOL   N250  250   7.549   4.615   2.450  0.9720  0.3388  0.2652
    1MOL   C251  251   7.674   4.569   2.459  0.0987 -0.2329  0.1330
    1MOL   O252  252   7.701   4.451   2.492  0.2938 -0.2170  0.0851
    1MOL   C253  253   7.788   4.666   2.426 -0.0519 -0.5459 -0.6710
    1MOL   C254  254   7.408   4.458   2.328  0.4659  0.4923  0.3510
    1MOL   H255  255   7.447   4.462   2.542  0.2956  0.5446 -0.2481
    1MOL   H256  256   7.541   4.712   2.421 -1.0831  0.4031  1.0078
    1MOL   H257  257   7.821   4.717   2.517 -1.2200  0.7543 -0.9487
    1MOL   H258  258   0.033   4.605   2.394  0.6409 -0.2389  0.5257
    1MOL   H259  259   7.759   4.740   2.351 -2.2575  0.4790  1.1330
    1MOL   H260  260   7.379   4.526   2.248  0.5884 -0.1393 -0.2347
    1MOL   H261  261   7.495   4.403   2.291 -1.7739 -1.4339 -2.2491
    1MOL   H262  262   7.316   4.403   2.349 -2.5369  4.7415 -0.8086
    2MOL     C1  263   6.206   1.415   4.537  0.1134 -0.3344  0.0208
    2MOL     N2  264   6.081   1.477   4.495  0.0379 -0.0104  0.1551
    2MOL     C3  265   6.035   1.593   4.540 -0.0214 -0.7099 -0.3645
    2MOL     O4  266   6.079   1.642   4.644 -0.3215 -0.2597  0.0654
    2MOL     C5  267   5.930   1.660   4.455  0.2124 -0.2396  0.0200
    2MOL     C6  268   6.320   1.464   4.446 -0.0684  0.2053 -0.2258
    2MOL     H7  269   6.209   1.423   4.645 -0.1846 -0.8534  0.0685
    2MOL     H8  270   6.032   1.431   4.419  2.2845 -0.7227 -0.9250
    2MOL     H9  271   5.837   1.655   4.512  1.0197 -2.9846  1.1829
    2MOL    H10  272   5.955   1.764   4.434  0.3160  0.3445  2.7599
    2MOL    H11  273   5.923   1.613   4.357  1.3076 -1.9804  0.7621
    2MOL    H12  274   6.291   1.449   4.342  0.8247 -0.4575 -0.3786
    2MOL    H13  275   6.320   1.573   4.453  1.6022  0.4386 -3.0970
    2MOL    H14  276   6.189   1.309   4.518  1.0083 -0.7486  1.5304
    2MOL    C15  277   6.455   1.404   4.465 -0.4658  0.2080 -0.2919
    2MOL    N16  278   6.515   1.447   4.590 -0.0260 -0.0628 -0.1247
    2MOL    C17  279   6.515   1.385   4.709  0.0022 -1.0475  0.2023
    2MOL    O18  280   6.455   1.279   4.729 -0.5657  0.2081  0.5608
    2MOL    C19  281   6.602   1.439   4.822  0.2307  0.1165 -0.9628
    2MOL    C20  282   6.546   1.437   4.342  0.1499 -0.6848 -0.9366
    2MOL    H21  283   6.439   1.296   4.467 -1.0069  0.2597 -1.5180
    2MOL    H22  284   6.559   1.538   4.590  1.4777 -0.7722  0.8052
    2MOL    H23  285   6.627   1.543   4.801 -3.7196  1.1212 -1.1091
    2MOL    H24  286   6.543   1.434   4.913 -1.4760  0.3264 -2.0242
    2MOL    H25  287   6.692   1.377   4.826  0.2769  0.1825 -0.9828
    2MOL    H26  288   6.495   1.394   4.256  1.0037  1.3453 -2.4890
    2MOL    H27  289   6.552   1.544   4.319 -0.6522 -0.2729  0.6973
    2MOL    C28  290   6.682   1.386   4.343 -0.1139 -0.6713  0.0586
    2MOL    N29  291   6.770   1.470   4.424  0.3461 -0.2736 -0.0559
    2MOL    C30  292   6.858   1.416   4.503  0.3967  0.2554 -0.1952
    2MOL    O31  293   6.862   1.293   4.521  0.2633 -0.4220  0.0433
    2MOL    C32  294   6.953   1.516   4.573  0.0592  0.1861 -0.1604
    2MOL    C33  295   6.740   1.353   4.196  0.3523  0.1754 -0.0551
    2MOL    H34  296   6.675   1.282   4.374  1.7407 -0.6702  0.5422
    2MOL    H35  297   6.771   1.570   4.411 -1.5829  0.1364  2.4707
    2MOL    H36  298   6.917   1.527   4.675 -0.0223  0.6580 -0.2362
    2MOL    H37  299   7.050   1.469   4.586  0.7236  0.1269 -4.5332
    2MOL    H38  300   6.963   1.618   4.535  2.3688 -0.2167 -0.7198
    2MOL    H39  301   6.811   1.270   4.199 -0.9156 -0.8863  1.4098
    2MOL    H40  302   6.657   1.316   4.136  1.9126 -3.5232 -0.0474
    2MOL    C41  303   6.815   1.469   4.126  0.3470 -0.0377  0.1439
    2MOL    N42  304   6.733   1.588   4.113 -0.0148 -0.8146  0.5190
    2MOL    C43  305   6.740   1.698   4.186 -0.0492 -0.1423 -0.0144
    2MOL    O44  306   6.829   1.711   4.270  0.1771  0.4330 -0.2465
    2MOL    C45  307   6.627   1.795   4.180  0.2965  0.2741  0.0584
    2MOL    C46  308   6.901   1.436   3.998  0.2976  0.0404 -0.2890
    2MOL    H47  309   6.890   1.503   4.198 -1.7829  0.2505  2.2551
    2MOL    H48  310   6.661   1.580   4.042  1.4526  1.8990 -1.3402
    2MOL    H49  311   6.531   1.751   4.205  0.8009 -0.1960  1.2175
    2MOL    H50  312   6.649   1.875   4.251  1.8233  0.6409 -0.8000
    2MOL    H51  313   6.624   1.837   4.079  0.3708 -0.7165 -0.3598
    2MOL    H52  314   6.989   1.499   4.007  0.4970 -0.2778  0.0060
    2MOL    H53  315   6.935   1.333   3.996 -0.9825 -0.3834 -2.4616
    2MOL    C54  316   6.841   1.458   3.855  0.1375 -0.3420  0.5891
    2MOL    N55  317   6.721   1.363   3.834 -0.5288  0.5859  0.2584
    2MOL    C56  318   6.597   1.399   3.848  0.1181  0.5075 -0.2975
    2MOL    O57  319   6.567   1.511   3.888  0.5947  0.3753  0.0062
    2MOL    C58  320   6.484   1.302   3.825  0.0723 -0.1807  0.4074
    2MOL    C59  321   6.935   1.449   3.730  0.0229 -0.6974  0.5764
    2MOL    H60  322   6.802   1.560   3.852  1.9652  0.4066  1.4511
    2MOL    H61  323   6.737   1.268   3.805 -1.7081  0.1685  0.9285
    2MOL    H62  324   6.386   1.329   3.865 -0.7096 -1.9827 -0.2069
    2MOL    H63  325   6.478   1.276   3.719  0.9825  3.1027 -0.4944
    2MOL    H64  326   6.503   1.209   3.879 -1.4646  0.3111  1.8395
    2MOL    H65  327   7.025   1.396   3.762 -1.0908 -2.2748  1.1537
    2MOL    H66  328   6.883   1.383   3.661 -0.8963 -0.0171  0.6122
    2MOL    C67  329   6.967   1.582   3.662  0.0753  0.6491  0.2548
    2MOL    N68  330   7.049   1.532   3.554  0.4365  0.7293 -0.2818
    2MOL    C69  331   7.030   1.544   3.423 -0.2731 -0.4408  0.3272
    2MOL    O70  332   6.929   1.587   3.365 -0.4389 -0.1144  0.3161
    2MOL    C71  333   7.156   1.517   3.345 -0.7251 -0.1002 -0.1824
    2MOL    C72  334   7.038   1.695   3.747  0.5441 -0.2982  0.2764
    2MOL    H73  335   6.871   1.611   3.619 -0.1957  0.1412  0.5093
    2MOL    H74  336   7.141   1.498   3.577 -0.0536 -1.0131 -0.8249
    2MOL    H75  337   7.237   1.590   3.353  0.2564 -1.1922 -0.1772
    2MOL    H76  338   7.200   1.420   3.367 -1.4785 -0.2884  0.5076
    2MOL    H77  339   7.135   1.517   3.238  2.4176 -0.8844 -0.8481
    2MOL    H78  340   7.063   1.645   3.841  3.2915  0.5066  0.0177
    2MOL    H79  341   7.123   1.736   3.693 -0.9902  0.5457 -1.5780
    2MOL    C80  342   6.947   1.812   3.774  0.7506 -0.1920 -0.0421
    2MOL    N81  343   6.941   1.884   3.645  0.3506 -0.3685 -0.6473
    2MOL    C82  344   6.844   1.956   3.590 -0.0929 -0.5342  0.2583
    2MOL    O83  345   6.736   1.960   3.643  0.4131  0.1542  0.3287
    2MOL    C84  346   6.862   2.027   3.460 -1.6873  0.2980 -0.2955
    2MOL    C85  347   6.995   1.886   3.904 -0.1628 -0.2811  0.3027
    2MOL    H86  348   6.843   1.784   3.791  1.1470 -1.5498  0.2163
    2MOL    H87  349   7.023   1.864   3.590  1.6098  2.2117  0.2386
    2MOL    H88  350   6.844   2.133   3.476  1.0422  1.1250 -2.4220
    2MOL    H89  351   6.960   2.013   3.415 -0.8542  0.0938  1.5522
    2MOL    H90  352   6.791   1.994   3.384  0.1412 -0.3182 -1.7753
    2MOL    H91  353   6.952   1.839   3.992 -2.6472  3.6408  1.3262
    2MOL    H92  354   7.101   1.866   3.920  1.1437  3.7089 -2.5583
    2MOL    C93  355   6.972   2.037   3.912  0.5616  0.4894  0.2364
    2MOL    N94  356   6.832   2.067   3.885  0.3661 -0.3975  0.6846
    2MOL    C95  357   6.745   2.131   3.962  0.3590  0.5714  0.7975
    2MOL    O96  358   6.777   2.189   4.067  0.3189  1.0117 -0.2941
    2MOL    C97  359   6.599   2.124   3.931  0.1617 -0.0476 -0.2569
    2MOL    C98  360   7.056   2.122   3.816 -0.6602 -0.0038  0.5096
    2MOL    H99  361   6.995   2.063   4.016  1.9311  1.1267 -0.2000
    2MOL   H100  362   6.801   2.018   3.802  1.9254  0.5315 -0.4714
    2MOL   H101  363   6.568   2.181   3.844  1.6734  1.5384  0.2177
    2MOL   H102  364   6.585   2.019   3.903  1.1038 -0.1285 -0.4408
    2MOL   H103  365   6.536   2.160   4.012 -0.7473 -1.6862 -0.2038
    2MOL   H104  366   6.995   2.143   3.728  2.2611  0.0332 -1.5628
    2MOL   H105  367   7.066   2.212   3.876  1.6937 -0.1273  0.3319
    2MOL   C106  368   7.193   2.065   3.772 -0.9532  0.4512  0.1363
    2MOL   N107  369   7.281   2.026   3.893  0.8355 -0.3764 -0.4165
    2MOL   C108  370   7.349   2.104   3.976  0.5848 -0.6251 -0.0828
    2MOL   O109  371   7.330   2.224   3.985  0.0533 -0.2752  0.3514
    2MOL   C110  372   7.443   2.035   4.066  0.2099 -0.6781  0.2756
    2MOL   C111  373   7.272   2.162   3.675  0.2728  0.2784 -0.4397
    2MOL   H112  374   7.178   1.973   3.715 -0.3713  0.3418  0.1570
    2MOL   H113  375   7.297   1.926   3.904  1.3569 -0.2031  0.4670
    2MOL   H114  376   7.435   1.929   4.090 -1.6200 -0.7641 -0.6883
    2MOL   H115  377   7.539   2.062   4.022 -1.2051 -1.1512 -3.1949
    2MOL   H116  378   7.445   2.087   4.162 -1.3269  1.9529 -1.0564
    2MOL   H117  379   7.269   2.260   3.722  1.0925 -0.8310  2.0173
    2MOL   H118  380   7.378   2.139   3.667  0.6086  1.3133  0.8950
    2MOL   C119  381   7.218   2.165   3.527  0.0905  0.3009 -0.3535
    2MOL   N120  382   7.306   2.081   3.440  0.0223  0.7856 -0.5326
    2MOL   C121  383   7.286   1.949   3.421  1.0024 -0.1010 -0.4844
    2MOL   O122  384   7.197   1.882   3.482 -0.1284  0.3929 -0.2692
    2MOL   C123  385   7.375   1.882   3.322 -0.2283  0.2545  0.1773
    2MOL   C124  386   7.228   2.308   3.478  0.0777  0.3177  0.3865
    2MOL   H125  387   7.115   2.131   3.515  0.2526 -0.2965 -0.0706
    2MOL   H126  388   7.390   2.128   3.408  0.8450 -0.4283 -0.2196
    2MOL   H127  389   7.476   1.924   3.324 -0.8466  1.7267  1.0137
    2MOL   H128  390   7.397   1.779   3.352 -2.1663 -0.9189 -2.2871
    2MOL   H129  391   7.331   1.867   3.224 -0.0957 -0.2789  0.1977
    2MOL   H130  392   7.317   2.357   3.517 -0.2808 -0.0026  1.6364
    2MOL   H131  393   7.241   2.322   3.371  0.1319 -0.2825  0.3179
    2MOL   C132  394   7.108   2.395   3.506  0.9170 -0.4681 -0.6026
    2MOL   N133  395   7.018   2.358   3.404 -0.1338 -0.0136 -0.2175
    2MOL   C134  396   6.891   2.394   3.386 -0.5870  0.3626 -0.5528
    2MOL   O135  397   6.837   2.478   3.462 -0.7999  0.0969  0.4814
    2MOL   C136  398   6.824   2.347   3.252  0.4731  0.6854  0.2472
    2MOL   C137  399   7.140   2.548   3.495 -0.3146  0.4842 -0.2164
    2MOL   H138  400   7.076   2.376   3.608 -1.1565 -0.2725 -1.1943
    2MOL   H139  401   7.049   2.290   3.337 -1.4598 -0.4976 -0.3526
    2MOL   H140  402   6.716   2.363   3.257 -0.1157 -2.7811 -0.4301
    2MOL   H141  403   6.874   2.401   3.172  0.6815  2.0678  1.2951
    2MOL   H142  404   6.827   2.240   3.232 -2.9949 -0.3949  4.6145
    2MOL   H143  405   7.162   2.573   3.391  0.3050 -0.8859 -0.4264
    2MOL   H144  406   7.047   2.597   3.523 -0.7119 -1.1499  1.3337
    2MOL   C145  407   7.249   2.616   3.592  0.0991  0.1469  0.0460
    2MOL   N146  408   7.207   2.602   3.734 -0.3203 -0.3513  0.4086
    2MOL   C147  409   7.284   2.565   3.842  0.1091  0.8336  0.5810
    2MOL   O148  410   7.229   2.554   3.952  0.6040  0.0661  0.5467
    2MOL   C149  411   7.436   2.555   3.822  0.0870  0.5603  0.3615
    2MOL   C150  412   7.276   2.764   3.550  0.2574  0.6578  0.4279
    2MOL   H151  413   7.342   2.559   3.585  0.9466  1.5775 -0.5256
    2MOL   H152  414   7.112   2.620   3.761 -1.2907  0.7936 -3.3798
    2MOL   H153  415   7.461   2.454   3.789  0.6339  0.9173 -0.3412
    2MOL   H154  416   7.474   2.628   3.751  0.5736 -1.6043 -1.6661
    2MOL   H155  417   7.489   2.572   3.916  1.6678 -1.1831 -0.1737
    2MOL   H156  418   7.181   2.817   3.549 -0.3064 -0.3768 -0.3891
    2MOL   H157  419   7.330   2.820   3.627  0.6604  2.5189 -1.1609
    2MOL   C158  420   7.348   2.779   3.412  0.2020 -0.0844 -0.5073
    2MOL   N159  421   7.484   2.716   3.425  0.4978 -0.9667  0.3199
    2MOL   C160  422   7.526   2.599   3.395 -0.3638  1.2907  0.4026
    2MOL   O161  423   7.458   2.506   3.355 -0.6012 -0.4188 -0.2783
    2MOL   C162  424   7.673   2.574   3.438  0.6026 -0.1074  0.9665
    2MOL   C163  425   7.348   2.925   3.355  0.7236 -0.0883 -0.0109
    2MOL   H164  426   7.301   2.715   3.338 -0.3235  0.3841 -0.5835
    2MOL   H165  427   7.563   2.772   3.456 -1.8753  3.1164 -0.6405
    2MOL   H166  428   7.691   2.471   3.467 -3.2623 -1.0486  0.3030
    2MOL   H167  429   7.744   2.606   3.361 -0.3648  3.3914  1.4106
    2MOL   H168  430   7.692   2.618   3.536 -0.0400  0.0820  1.0076
    2MOL   H169  431   7.396   2.991   3.427 -1.0482  1.0066  0.2009
    2MOL   H170  432   7.411   2.926   3.266  0.3334 -0.2707 -0.2928
    2MOL   C171  433   7.213   2.992   3.324  0.2817 -0.7258 -0.6760
    2MOL   N172  434   7.138   2.902   3.233  0.0334 -0.4241  0.4934
    2MOL   C173  435   7.016   2.850   3.239  0.3591  0.9783 -0.3671
    2MOL   O174  436   6.950   2.860   3.339  0.2451 -0.0236 -0.2588
    2MOL   C175  437   6.967   2.767   3.121 -0.6938  0.5791  1.0138
    2MOL   C176  438   7.211   3.138   3.261 -0.5027  0.3678  0.6877
    2MOL   H177  439   7.151   2.987   3.414 -0.5944 -0.8570 -1.2773
    2MOL   H178  440   7.178   2.878   3.143 -1.7718  3.2984 -1.4064
    2MOL   H179  441   6.895   2.689   3.146  0.7749 -1.1636 -0.0325
    2MOL   H180  442   6.915   2.839   3.058 -0.2247  0.0312 -0.0138
    2MOL   H181  443   7.054   2.734   3.063 -0.3570  2.0607  0.6526
    2MOL   H182  444   7.256   3.144   3.162 -2.0260 -0.8732 -0.1215
    2MOL   H183  445   7.106   3.155   3.235  0.1232  1.6619 -1.1258
    2MOL   C184  446   7.264   3.251   3.355 -0.3833 -0.0270  0.0340
    2MOL   N185  447   7.191   3.377   3.317 -0.5245  0.5271 -1.0158
    2MOL   C186  448   7.078   3.435   3.356  0.9736  0.1350  0.7427
    2MOL   O187  449   7.012   3.399   3.453 -0.2847  0.2656  0.1542
    2MOL   C188  450   7.034   3.552   3.270 -0.3900  0.3487  0.5195
    2MOL   C189  451   7.416   3.268   3.359  0.7324 -0.0225  0.0143
    2MOL   H190  452   7.239   3.232   3.460 -2.6118 -2.0892 -0.8166
    2MOL   H191  453   7.229   3.424   3.237 -0.5023  1.9249 -0.2077
    2MOL   H192  454   6.959   3.605   3.330 -0.1088  2.4873 -0.9837
    2MOL   H193  455   7.111   3.626   3.248 -0.7700  1.0805  1.5805
    2MOL   H194  456   6.991   3.523   3.174  0.7790 -0.9112  0.3622
    2MOL   H195  457   7.472   3.174   3.354  0.0311 -0.3638 -1.6557
    2MOL   H196  458   7.447   3.321   3.269 -0.9388  1.1167  0.0994
    2MOL   C197  459   7.474   3.342   3.484 -0.5390 -0.6539  0.4124
    2MOL   N198  460   7.385   3.447   3.532 -0.4307 -0.3350  0.0677
    2MOL   C199  461   7.337   3.456   3.658 -0.0812  0.3172 -0.1087
    2MOL   O200  462   7.355   3.380   3.752  0.1921 -0.3790  0.2832
    2MOL   C201  463   7.259   3.589   3.685  0.7520 -0.3915  0.0762
    2MOL   C202  464   7.618   3.403   3.466 -0.0639  0.0753 -0.0043
    2MOL   H203  465   7.474   3.262   3.558 -1.5944  0.7146  1.9194
    2MOL   H204  466   7.358   3.513   3.461  1.7724  0.2194 -0.2852
    2MOL   H205  467   7.294   3.677   3.631 -0.2833  0.7565  1.2390
    2MOL   H206  468   7.155   3.566   3.660  1.4539 -0.0366 -3.4578
    2MOL   H207  469   7.272   3.605   3.792  1.5924  0.3327 -0.1342
    2MOL   H208  470   7.631   3.476   3.387 -1.9134  3.0712  2.3427
    2MOL   H209  471   7.646   3.453   3.559 -1.1350  0.1787  0.2710
    2MOL   C210  472   7.743   3.309   3.452  0.2426  0.2887  0.3296
    2MOL   N211  473   7.721   3.217   3.343 -0.4310 -0.3350  0.2881
    2MOL   C212  474   7.757   3.236   3.217  0.0174  0.4765  0.6161
    2MOL   O213  475   7.833   3.323   3.184 -0.2203 -0.1205  0.0310
    2MOL   C214  476   7.724   3.125   3.109 -0.0326  0.3153  0.1672
    2MOL   C215  477   7.763   3.224   3.583 -0.2530  0.0824  0.3527
    2MOL   H216  478   7.836   3.365   3.446 -0.2301  0.9274 -1.3195
    2MOL   H217  479   7.673   3.132   3.371 -1.9362  1.3345  2.9714
    2MOL   H218  480   7.620   3.118   3.076 -0.6280  2.3678  1.5154
    2MOL   H219  481   7.780   3.133   3.016 -0.8822  2.9328 -0.1683
    2MOL   H220  482   7.755   3.031   3.155 -1.4347 -0.6155 -0.7003
    2MOL   H221  483   7.803   3.295   3.655 -1.4923  0.5405  0.6060
    2MOL   H222  484   7.671   3.197   3.635 -0.3134 -0.4581 -0.0255
    2MOL   C223  485   0.032   3.109   3.577  1.1082  0.5337  0.2153
    2MOL   N224  486   7.829   3.017   3.687  0.1645 -0.6700  0.2619
    2MOL   C225  487   7.739   2.918   3.674 -0.3076  0.0507 -0.4075
    2MOL   O226  488   7.674   2.910   3.571 -0.1705  0.1344  0.2972
    2MOL   C227  489   7.721   2.838   3.795  0.2945  0.1122  0.0719
    2MOL   C228  490   0.181   3.164   3.585  0.4440 -0.0050  0.0738
    2MOL   H229  491   0.028   3.062   3.479 -1.5529  2.0924 -0.4763
    2MOL   H230  492   0.045   3.019   3.772 -0.2585  0.2563  0.5255
    2MOL   H231  493   7.747   2.733   3.784  0.2487  0.3539 -2.6888
    2MOL   H232  494   7.772   2.878   3.883 -1.1565 -0.9430  1.4111
    2MOL   H233  495   7.614   2.837   3.812  0.0494 -2.2288 -1.3969
    2MOL   H234  496   0.182   3.256   3.527 -1.3457 -0.4471 -0.6945
    2MOL   H235  497   0.207   3.197   3.686  1.5174 -3.2188  0.8902
    2MOL   C236  498   0.281   3.068   3.523 -0.3932  0.5610 -0.3871
    2MOL   N237  499   0.282   2.937   3.582  0.3335 -0.4267  0.0069
    2MOL   C238  500   0.314   2.819   3.523  0.1497  0.2641 -0.0726
    2MOL   O239  501   0.327   2.807   3.403  0.6080  0.5101  0.1314
    2MOL   C240  502   0.356   2.703   3.619 -0.5965 -0.2709 -0.4454
    2MOL   C241  503   0.424   3.132   3.520 -0.0665  0.7750 -0.1867
    2MOL   H242  504   0.255   3.058   3.418 -0.1266 -1.6663 -0.2513
    2MOL   H243  505   0.280   2.941   3.683 -1.2381  0.4674 -0.0364
    2MOL   H244  506   0.356   2.604   3.572  0.1847 -0.9024  0.8656
    2MOL   H245  507   0.449   2.722   3.671 -1.1932 -0.0245  0.5379
    2MOL   H246  508   0.289   2.684   3.703 -2.4950 -0.0090 -1.8606
    2MOL   H247  509   0.455   3.138   3.624 -0.6117 -0.3262  0.0365
    2MOL   H248  510   0.497   3.061   3.482  0.3400  0.2864  1.4747
    2MOL   C249  511   0.453   3.268   3.452 -0.1272  0.2512 -0.2405
    2MOL   N250  512   0.399   3.268   3.320 -0.2652  0.1570  0.2757
    2MOL   C251  513   0.356   3.377   3.252  0.1293  0.8305  0.3932
    2MOL   O252  514   0.371   3.493   3.296 -0.1344  0.1176 -0.1170
    2MOL   C253  515   0.298   3.359   3.116 -0.2806  0.8648  0.4534
    2MOL   C254  516   0.605   3.280   3.440 -0.4036  0.4709  0.2934
    2MOL   H255  517   0.413   3.349   3.513  0.1491 -0.4670  0.8981
    2MOL   H256  518   0.379   3.175   3.285 -0.3742  0.0037  0.7518
    2MOL   H257  519   0.375   3.341   3.040 -0.0248  2.6589  0.2643
    2MOL   H258  520   0.232   3.275   3.097  0.7067 -0.2464  1.8753
    2MOL   H259  521   0.246   3.451   3.086  0.0360  0.6519 -0.7955
    2MOL   H260  522   0.619   3.379   3.398 -1.5357  0.6146  0.2401
    2MOL   H261  523   0.652   3.264   3.537  0.1600 -1.1004 -0.2203
    2MOL   H262  524   0.642   3.215   3.360 -3.5567 -0.7104 -0.2972
    3MOL     C1  525   2.861   4.079   3.237  0.2409  0.1757 -0.0912
    3MOL     N2  526   2.827   4.048   3.094  0.6727 -0.9078 -0.2522
    3MOL     C3  527   2.891   3.958   3.010  0.3010  0.2907 -0.1825
    3MOL     O4  528   2.989   3.897   3.042 -0.9402 -0.8916  0.2160
    3MOL     C5  529   2.835   3.940   2.875  0.0895 -0.4699 -0.9287
    3MOL     C6  530   2.808   4.214   3.279 -0.2062  0.6259 -0.3046
    3MOL     H7  531   2.816   4.001   3.299 -1.2810 -0.4021 -1.8824
    3MOL     H8  532   2.746   4.102   3.066  0.6734 -0.7668  0.0154
    3MOL     H9  533   2.907   3.912   2.799  1.2551 -0.2298  0.0834
    3MOL    H10  534   2.751   3.869   2.879  1.9642 -2.7926 -1.8599
    3MOL    H11  535   2.799   4.037   2.841  0.2964 -0.6855 -1.7696
    3MOL    H12  536   2.858   4.248   3.369  1.1623 -1.5220 -0.2358
    3MOL    H13  537   2.845   4.284   3.203  0.5517 -1.4022 -1.8364
    3MOL    H14  538   2.967   4.062   3.255  0.0442 -0.5428  0.3847
    3MOL    C15  539   2.655   4.215   3.298  0.0238  0.0998  0.2893
    3MOL    N16  540   2.598   4.322   3.222  0.4050 -0.2695 -0.2518
    3MOL    C17  541   2.566   4.315   3.094  0.7831  0.6878  0.2793
    3MOL    O18  542   2.597   4.222   3.018  0.2750  0.0774 -0.1158
    3MOL    C19  543   2.496   4.443   3.039  0.7162  0.2951  0.1871
    3MOL    C20  544   2.611   4.228   3.448 -0.1878 -0.4331  0.4049
    3MOL    H21  545   2.600   4.130   3.258  0.1190 -0.2168  0.8224
    3MOL    H22  546   2.557   4.402   3.268  0.6389  0.1863 -0.8432
    3MOL    H23  547   2.423   4.429   2.959  2.1611 -1.3638 -0.8519
    3MOL    H24  548   2.449   4.508   3.113 -0.9203 -2.1461  1.3241
    3MOL    H25  549   2.576   4.503   2.995  1.7460 -0.7569  0.5919
    3MOL    H26  550   2.655   4.137   3.489  0.0274 -0.5796 -0.1580
    3MOL    H27  551   2.676   4.304   3.491  0.5781 -0.4048 -0.7851
    3MOL    C28  552   2.464   4.245   3.474  0.3792 -0.2355  0.2440
    3MOL    N29  553   2.446   4.353   3.566  0.0533 -0.0831  0.4277
    3MOL    C30  554   2.400   4.475   3.534 -0.5837 -0.8450 -0.5641
    3MOL    O31  555   2.376   4.509   3.419 -0.1114  0.0643  0.2208
    3MOL    C32  556   2.402   4.584   3.647 -0.1001  0.1317 -0.4565
    3MOL    C33  557   2.388   4.126   3.554 -0.2210 -0.3096 -0.0384
    3MOL    H34  558   2.413   4.264   3.380 -0.0030 -1.1319  0.2697
    3MOL    H35  559   2.486   4.338   3.657 -1.3352 -0.4146  0.9927
    3MOL    H36  560   2.375   4.679   3.599  1.3985  0.3277 -0.9472
    3MOL    H37  561   2.324   4.560   3.718  0.4882 -2.0804 -0.5197
    3MOL    H38  562   2.502   4.596   3.690  0.1281 -0.0968 -0.9143
    3MOL    H39  563   2.422   4.139   3.657  0.3061 -2.9462  0.1541
    3MOL    H40  564   2.284   4.157   3.551  0.8219  3.5641  0.5314
    3MOL    C41  565   2.397   3.982   3.507 -0.3805  0.0113  0.3310
    3MOL    N42  566   2.372   3.967   3.366 -0.3157  0.2711 -0.2698
    3MOL    C43  567   2.452   3.900   3.285  0.1190  0.2628  0.1442
    3MOL    O44  568   2.532   3.816   3.323  0.1880 -0.4058 -0.7135
    3MOL    C45  569   2.436   3.921   3.136  0.0871  0.2926  0.5121
    3MOL    C46  570   2.282   3.893   3.574 -0.0856 -0.3920  0.7326
    3MOL    H47  571   2.494   3.937   3.530 -0.6023 -1.8738 -2.2463
    3MOL    H48  572   2.324   4.047   3.326  0.3889 -0.3612 -2.4556
    3MOL    H49  573   2.530   3.955   3.095 -0.8644  1.3743 -0.8243
    3MOL    H50  574   2.404   3.830   3.084 -1.2022  1.8106 -1.4019
    3MOL    H51  575   2.354   3.992   3.122 -0.6911 -0.5516  0.7080
    3MOL    H52  576   2.184   3.934   3.549 -0.0522 -0.6462  0.1626
    3MOL    H53  577   2.284   3.795   3.526 -0.2322 -0.6432  1.2351
    3MOL    C54  578   2.274   3.867   3.723 -0.6949 -0.2617 -0.5630
    3MOL    N55  579   2.230   3.988   3.796  0.1532 -0.8977 -0.6434
    3MOL    C56  580   2.099   4.014   3.816  0.0941  0.9542  0.1732
    3MOL    O57  581   2.005   3.959   3.753  0.0504 -0.5621  0.4378
    3MOL    C58  582   2.072   4.142   3.901  0.1193  0.1104 -1.2808
    3MOL    C59  583   2.416   3.845   3.777 -0.2185 -0.0108 -0.7756
    3MOL    H60  584   2.217   3.779   3.752  2.3421 -2.0515  0.1217
    3MOL    H61  585   2.301   4.047   3.837  0.2140 -0.2999 -1.6104
    3MOL    H62  586   1.965   4.150   3.920 -0.1903 -2.3280 -1.7669
    3MOL    H63  587   2.125   4.131   3.995 -0.8429  0.8201 -0.6501
    3MOL    H64  588   2.105   4.232   3.850 -0.1859 -0.0951 -1.8538
    3MOL    H65  589   2.492   3.922   3.765  0.8461 -0.8337  0.6370
    3MOL    H66  590   2.405   3.838   3.885  0.0062 -0.6325 -0.7940
    3MOL    C67  591   2.479   3.715   3.720  0.2410  0.2925  0.2073
    3MOL    N68  592   2.410   3.598   3.777  0.6106  0.1336  0.0118
    3MOL    C69  593   2.331   3.515   3.707 -0.3887 -0.8798 -0.4144
    3MOL    O70  594   2.277   3.548   3.598 -0.0003 -0.0829 -0.4622
    3MOL    C71  595   2.295   3.382   3.780 -0.0372 -0.4928 -0.4889
    3MOL    C72  596   2.628   3.701   3.745 -0.2299  0.3231 -0.4240
    3MOL    H73  597   2.473   3.719   3.611 -0.7207  1.2839  0.2907
    3MOL    H74  598   2.454   3.554   3.857  0.1591 -0.8493 -0.2810
    3MOL    H75  599   2.291   3.301   3.708 -0.7149  0.4081 -1.4874
    3MOL    H76  600   2.377   3.349   3.844 -0.0525 -1.4116 -0.9388
    3MOL    H77  601   2.196   3.362   3.821 -0.6027  2.1035 -0.4616
    3MOL    H78  602   2.664   3.799   3.714 -0.5994  1.0885  1.5056
    3MOL    H79  603   2.658   3.686   3.848 -1.0190  0.0528 -0.2299
    3MOL    C80  604   2.697   3.578   3.676 -0.1489  0.6393 -0.3843
    3MOL    N81  605   2.777   3.489   3.770  0.0050 -0.0159  0.6978
    3MOL    C82  606   2.719   3.397   3.847 -0.0145  1.0888 -0.0496
    3MOL    O83  607   2.604   3.411   3.886  0.1033  0.2435  0.5212
    3MOL    C84  608   2.815   3.295   3.902 -0.1770  0.0874 -0.7693
    3MOL    C85  609   2.790   3.632   3.566 -0.9202  1.1964 -0.5578
    3MOL    H86  610   2.619   3.521   3.625 -0.0677  0.1978 -0.0227
    3MOL    H87  611   2.876   3.476   3.758  0.2748  1.3558  1.2998
    3MOL    H88  612   2.761   3.222   3.962 -2.6962 -0.3777 -3.4687
    3MOL    H89  613   2.854   3.229   3.825  0.2084 -1.2285  0.5329
    3MOL    H90  614   2.900   3.331   3.960  0.3482  0.5658 -1.8269
    3MOL    H91  615   2.752   3.723   3.521  0.9067  1.1972 -2.1981
    3MOL    H92  616   2.884   3.658   3.616 -0.1672  0.9528 -1.8119
    3MOL    C93  617   2.791   3.537   3.441 -0.1983  0.3267 -0.3639
    3MOL    N94  618   2.837   3.405   3.478 -0.2772  0.0949  0.8757
    3MOL    C95  619   2.796   3.286   3.421 -0.3177  0.4465  0.3503
    3MOL    O96  620   2.720   3.280   3.327 -0.2477  0.3038 -0.4056
    3MOL    C97  621   2.860   3.163   3.488  0.1314 -0.1337 -0.7067
    3MOL    C98  622   2.890   3.609   3.341  0.3452 -0.3899  0.9620
    3MOL    H99  623   2.690   3.530   3.403  0.5813 -0.5571 -2.3391
    3MOL   H100  624   2.898   3.392   3.557 -1.0909  1.5057  1.7566
    3MOL   H101  625   2.890   3.094   3.409 -3.8168 -1.8087 -0.8760
    3MOL   H102  626   2.952   3.187   3.542  1.2327  0.7154 -2.8855
    3MOL   H103  627   2.787   3.123   3.558 -0.8243 -0.6348 -1.9705
    3MOL   H104  628   2.882   3.717   3.338 -0.2995 -0.4773 -1.0534
    3MOL   H105  629   2.982   3.584   3.393 -0.7910 -1.9349  2.3002
    3MOL   C106  630   2.873   3.567   3.192 -0.2527  0.2608 -0.2353
    3MOL   N107  631   3.000   3.608   3.129 -0.2361  0.3036 -0.0011
    3MOL   C108  632   3.106   3.530   3.114 -0.2303  0.5283 -0.5599
    3MOL   O109  633   3.126   3.415   3.154  0.6031  0.1349  0.0576
    3MOL   C110  634   3.218   3.593   3.035  0.2632  0.0518  0.3915
    3MOL   C111  635   2.751   3.625   3.117  0.4314  0.4197  0.1677
    3MOL   H112  636   2.869   3.459   3.197  1.3253  0.1323 -1.5455
    3MOL   H113  637   2.998   3.704   3.099  0.6421  0.5424  0.6867
    3MOL   H114  638   3.313   3.586   3.088  0.8151 -2.6219 -0.8710
    3MOL   H115  639   3.216   3.540   2.940  0.2859  0.2604  0.2764
    3MOL   H116  640   3.193   3.697   3.014 -0.3624 -0.3987 -1.1578
    3MOL   H117  641   2.668   3.599   3.182  1.2049  1.5132  1.6415
    3MOL   H118  642   2.759   3.733   3.108 -1.0496  0.6067  1.0373
    3MOL   C119  643   2.729   3.574   2.976 -0.1512 -0.8961 -0.2324
    3MOL   N120  644   2.612   3.641   2.921 -0.6877  0.0482  0.0524
    3MOL   C121  645   2.567   3.635   2.790  0.0741  0.2369 -0.4295
    3MOL   O122  646   2.639   3.589   2.701  0.2951  0.1090  0.6527
    3MOL   C123  647   2.428   3.672   2.755 -0.1103 -0.2711  0.4277
    3MOL   C124  648   2.717   3.417   2.958  0.7023 -0.5988 -0.5101
    3MOL   H125  649   2.808   3.607   2.909 -0.1422 -1.2495 -0.3945
    3MOL   H126  650   2.549   3.683   2.987 -0.4313 -0.8160  0.8475
    3MOL   H127  651   2.409   3.655   2.649  0.7939 -1.8578  0.4959
    3MOL   H128  652   2.349   3.610   2.797 -0.6470  1.0746  1.4335
    3MOL   H129  653   2.409   3.775   2.785 -1.1967 -0.5929  0.8620
    3MOL   H130  654   2.732   3.384   2.855  0.9969 -0.4590 -0.5140
    3MOL   H131  655   2.794   3.364   3.014  1.6156 -0.0646 -1.2306
    3MOL   C132  656   2.577   3.352   2.984  0.2594  0.7538  0.8846
    3MOL   N133  657   2.527   3.390   3.115  0.4766  0.6890 -0.8737
    3MOL   C134  658   2.419   3.465   3.143  0.2659  0.1941 -0.4204
    3MOL   O135  659   2.359   3.521   3.055 -0.0560  0.1458  0.5437
    3MOL   C136  660   2.368   3.485   3.287 -0.7403  0.6964 -0.1063
    3MOL   C137  661   2.582   3.192   2.997 -0.4088  0.3674 -0.1747
    3MOL   H138  662   2.499   3.386   2.916  0.9859  1.7276  0.5297
    3MOL   H139  663   2.578   3.338   3.186 -1.2784  1.1019  0.7447
    3MOL   H140  664   2.293   3.411   3.313 -1.2773  1.4871  0.5971
    3MOL   H141  665   2.462   3.486   3.343 -0.6839 -0.5946 -0.1597
    3MOL   H142  666   2.338   3.585   3.317 -1.1246  1.0880 -1.7248
    3MOL   H143  667   2.641   3.156   3.081 -1.7780  2.0842  1.5662
    3MOL   H144  668   2.482   3.161   3.027  0.0830 -2.3876 -1.1452
    3MOL   C145  669   2.623   3.114   2.871  0.2739 -0.0694 -0.3992
    3MOL   N146  670   2.498   3.111   2.791 -0.2466 -0.3147 -0.1424
    3MOL   C147  671   2.503   3.122   2.659 -0.4871 -0.2401  0.1789
    3MOL   O148  672   2.613   3.147   2.600  0.6293 -0.3395  0.1263
    3MOL   C149  673   2.371   3.109   2.588  0.5523 -0.0286 -1.2213
    3MOL   C150  674   2.688   2.974   2.881 -0.1104  0.6950  0.6801
    3MOL   H151  675   2.693   3.181   2.820  1.0623  0.7468  1.7190
    3MOL   H152  676   2.415   3.083   2.841 -0.7685 -2.4074 -2.0680
    3MOL   H153  677   2.309   3.023   2.613  0.3791  0.3173 -0.4438
    3MOL   H154  678   2.314   3.198   2.615  2.3200  0.7192  0.1177
    3MOL   H155  679   2.397   3.114   2.482 -0.6919 -2.1322 -1.6467
    3MOL   H156  680   2.659   2.929   2.976  0.3233 -0.6042  0.2039
    3MOL   H157  681   2.646   2.911   2.803 -0.6843 -2.2026  3.2300
    3MOL   C158  682   2.844   2.981   2.859 -0.6524 -0.2058  0.6550
    3MOL   N159  683   2.906   2.858   2.812  0.3786  0.0506 -0.2823
    3MOL   C160  684   2.896   2.735   2.865  0.2495  0.3450  0.0462
    3MOL   O161  685   2.811   2.706   2.953 -0.1263 -0.1101 -0.0458
    3MOL   C162  686   2.993   2.631   2.817 -0.0578 -0.6032 -0.2370
    3MOL   C163  687   2.912   3.049   2.981 -0.9942  0.2590  0.1712
    3MOL   H164  688   2.855   3.053   2.778  0.2241 -1.5051 -0.4025
    3MOL   H165  689   2.963   2.873   2.730  3.1387  1.1964  1.7840
    3MOL   H166  690   3.028   2.629   2.714  1.1781  2.9297  0.0499
    3MOL   H167  691   3.080   2.621   2.882 -0.2777  1.5253  0.4198
    3MOL   H168  692   2.935   2.541   2.836 -1.8133  0.8466  1.4280
    3MOL   H169  693   2.859   3.143   2.997 -0.9165  0.3145  0.1045
    3MOL   H170  694   2.897   3.000   3.077 -1.6604 -1.2178 -0.6691
    3MOL   C171  695   3.065   3.074   2.966 -0.1529  0.2155 -0.2447
    3MOL   N172  696   3.115   3.121   3.093 -0.4474 -0.2513 -0.7353
    3MOL   C173  697   3.159   3.042   3.186 -1.0504 -0.0412  0.4432
    3MOL   O174  698   3.133   2.922   3.199  0.1721 -0.3035 -0.2853
    3MOL   C175  699   3.240   3.099   3.301 -0.2333  0.0330  0.0688
    3MOL   C176  700   3.092   3.182   2.862  0.4385  0.3148  0.0578
    3MOL   H177  701   3.120   2.988   2.930  1.7871  2.2595 -2.2924
    3MOL   H178  702   3.128   3.221   3.096  0.4915 -0.3990  0.9539
    3MOL   H179  703   3.211   3.055   3.396  3.0476 -0.2501  0.9771
    3MOL   H180  704   3.347   3.084   3.291 -0.3809 -1.6727  0.9667
    3MOL   H181  705   3.226   3.207   3.305  0.9822  0.3790 -3.4488
    3MOL   H182  706   3.038   3.151   2.772 -1.7284  0.8143  1.1422
    3MOL   H183  707   3.044   3.277   2.889 -0.0690 -0.0700  0.5381
    3MOL   C184  708   3.243   3.212   2.824 -0.3217 -0.3001 -0.1055
    3MOL   N185  709   3.323   3.262   2.938  0.7474  0.6265  0.1164
    3MOL   C186  710   3.414   3.190   3.008  0.3841 -0.4829  0.0096
    3MOL   O187  711   3.443   3.072   2.990 -0.0496  0.4905 -0.0684
    3MOL   C188  712   3.487   3.266   3.115 -0.4287  0.1102  0.2289
    3MOL   C189  713   3.269   3.310   2.709 -0.5424 -0.0332  0.5867
    3MOL   H190  714   3.288   3.115   2.805 -0.1395 -0.0863 -0.8148
    3MOL   H191  715   3.308   3.356   2.969  3.1825  0.8836  0.6365
    3MOL   H192  716   3.426   3.313   3.192  0.6653  0.3311  0.9770
    3MOL   H193  717   3.567   3.205   3.156 -0.1263 -0.1130 -0.6780
    3MOL   H194  718   3.547   3.343   3.065  1.3263 -1.6049 -0.3623
    3MOL   H195  719   3.186   3.288   2.641  0.9611 -3.0706 -0.3412
    3MOL   H196  720   3.256   3.408   2.754  3.0569 -0.0856  1.8783
    3MOL   C197  721   3.398   3.290   2.628 -0.4876  0.2436  0.8220
    3MOL   N198  722   3.416   3.390   2.516 -0.1484  0.3092  0.2545
    3MOL   C199  723   3.534   3.432   2.465 -0.0271 -0.0654  0.3648
    3MOL   O200  724   3.639   3.394   2.512 -0.3684  0.8921 -0.4002
    3MOL   C201  725   3.530   3.515   2.341  0.0358 -0.1792  0.7251
    3MOL   C202  726   3.420   3.148   2.588  0.5473 -0.0522 -0.2403
    3MOL   H203  727   3.484   3.310   2.692 -1.0707  2.3765  0.9852
    3MOL   H204  728   3.329   3.417   2.472 -1.2345 -0.4776  1.8670
    3MOL   H205  729   3.625   3.512   2.287 -0.3775  2.0543 -0.1901
    3MOL   H206  730   3.456   3.493   2.265  1.9665 -0.9988 -0.9709
    3MOL   H207  731   3.499   3.615   2.372  0.7969  0.2731  0.0347
    3MOL   H208  732   3.514   3.141   2.534  1.9548 -0.2800  2.1477
    3MOL   H209  733   3.447   3.085   2.673  1.6685 -1.2919 -1.5040
    3MOL   C210  734   3.301   3.066   2.522 -0.6578 -0.4489 -0.2767
    3MOL   N211  735   3.332   2.927   2.536  0.1760 -0.5625  0.6907
    3MOL   C212  736   3.287   2.843   2.629 -0.1686 -0.2022 -0.6339
    3MOL   O213  737   3.195   2.864   2.705  0.4357  0.3993 -0.2499
    3MOL   C214  738   3.358   2.708   2.643  0.1256 -0.1187  0.5080
    3MOL   C215  739   3.275   3.099   2.370  0.3141  0.4092 -0.4418
    3MOL   H216  740   3.212   3.087   2.583  0.2973 -0.2838  1.0838
    3MOL   H217  741   3.405   2.891   2.476 -3.1565 -4.2502 -1.4037
    3MOL   H218  742   3.309   2.640   2.573 -0.8262 -1.2403  2.2481
    3MOL   H219  743   3.463   2.720   2.615 -0.0636 -0.9509 -0.5869
    3MOL   H220  744   3.347   2.659   2.739  0.6203 -0.4906  0.3818
    3MOL   H221  745   3.267   3.208   2.371 -1.3361  0.3003  0.5703
    3MOL   H222  746   3.351   3.071   2.298  0.7283  0.1159  0.1110
    3MOL   C223  747   3.139   3.040   2.309  0.5597  0.0701 -0.0782
    3MOL   N224  748   3.134   3.048   2.164  0.5904 -0.0551  0.0385
    3MOL   C225  749   3.095   2.955   2.078 -0.1527  0.1080 -0.1501
    3MOL   O226  750   3.040   2.851   2.112  0.8301  0.3258  0.8634
    3MOL   C227  751   3.112   2.985   1.927 -0.5625  0.2212 -0.8186
    3MOL   C228  752   3.017   3.122   2.361  0.6589 -0.1299  0.1440
    3MOL   H229  753   3.135   2.934   2.333 -0.6974 -0.1538 -1.2453
    3MOL   H230  754   3.176   3.126   2.113 -0.1988 -0.4989 -1.3145
    3MOL   H231  755   3.212   3.010   1.892 -0.6672  2.6099  0.4733
    3MOL   H232  756   3.089   2.890   1.878  0.2463  0.2856 -1.3432
    3MOL   H233  757   3.042   3.065   1.906 -3.1244 -2.0621 -1.2357
    3MOL   H234  758   3.018   3.113   2.469  0.6643 -0.3371  0.1275
    3MOL   H235  759   3.030   3.227   2.334  2.2652 -0.6541 -1.2547
    3MOL   C236  760   2.879   3.069   2.313 -0.1924  0.1401 -0.5719
    3MOL   N237  761   2.775   3.156   2.346 -0.4266 -0.4853  1.2268
    3MOL   C238  762   2.739   3.269   2.272  0.1952 -0.2931 -0.5315
    3MOL   O239  763   2.778   3.291   2.159 -0.1834 -0.9097 -0.1356
    3MOL   C240  764   2.648   3.373   2.343 -0.3066  0.1498  0.3010
    3MOL   C241  765   2.843   2.924   2.360 -0.4186  0.3336 -0.4060
    3MOL   H242  766   2.863   3.060   2.205  0.1138 -0.5353 -0.5616
    3MOL   H243  767   2.734   3.148   2.438  1.9360  0.3292  2.4017
    3MOL   H244  768   2.704   3.404   2.431 -1.8993 -2.5630  2.3266
    3MOL   H245  769   2.636   3.458   2.276 -0.4840  0.9386  1.3252
    3MOL   H246  770   2.552   3.335   2.374 -0.8596  0.6366 -0.7726
    3MOL   H247  771   2.921   2.853   2.331 -1.1632 -0.5915 -0.1376
    3MOL   H248  772   2.857   2.920   2.468 -1.4393 -1.4661 -0.3217
    3MOL   C249  773   2.710   2.869   2.308  0.1170  0.0839 -0.5800
    3MOL   N250  774   2.687   2.746   2.377 -0.3135 -0.1995  0.3295
    3MOL   C251  775   2.652   2.742   2.503  0.3297  0.0719 -0.0607
    3MOL   O252  776   2.657   2.827   2.590 -0.0793 -0.3901  0.4102
    3MOL   C253  777   2.629   2.603   2.549 -0.0578  0.1449  0.1863
    3MOL   C254  778   2.713   2.841   2.160  0.5603  0.2170 -0.0437
    3MOL   H255  779   2.627   2.937   2.318  0.1055  0.0707 -0.5886
    3MOL   H256  780   2.678   2.659   2.326 -0.1622  0.8287 -1.4932
    3MOL   H257  781   2.642   2.591   2.657  1.3702  0.5177  0.0664
    3MOL   H258  782   2.531   2.564   2.520 -0.0950  1.2967 -1.2756
    3MOL   H259  783   2.709   2.541   2.509  0.3938  0.5521  0.4522
    3MOL   H260  784   2.625   2.787   2.123  0.4951  1.0902 -1.1656
    3MOL   H261  785   2.712   2.937   2.109 -2.5268  1.3491  2.0138
    3MOL   H262  786   2.802   2.786   2.131 -1.8899 -3.1881 -1.4793
    4MOL     C1  787   7.430   4.950   0.249 -0.0301  0.4852 -0.5043
    4MOL     N2  788   7.351   4.919   0.370 -0.3941  0.2201 -0.7288
    4MOL     C3  789   7.406   4.870   0.482  0.8276 -0.2407  0.5728
    4MOL     O4  790   7.523   4.880   0.512 -0.5796  0.1626 -0.7251
    4MOL     C5  791   7.318   4.818   0.601  0.7501  0.3453 -0.0540
    4MOL     C6  792   7.473   5.098   0.225  0.3275  0.1668  0.8492
    4MOL     H7  793   7.510   4.876   0.248 -1.5381 -1.1704 -0.7949
    4MOL     H8  794   7.250   4.917   0.365 -0.3884 -2.4051 -0.6803
    4MOL     H9  795   7.364   4.839   0.698  0.2849 -1.0663  0.4964
    4MOL    H10  796   7.216   4.857   0.607 -0.1863 -1.9451 -0.3489
    4MOL    H11  797   7.325   4.710   0.587  0.4493 -0.0239  2.4159
    4MOL    H12  798   7.533   5.115   0.136 -0.0218 -1.6200  0.2516
    4MOL    H13  799   7.385   5.161   0.214  1.2689  1.1958 -0.8264
    4MOL    H14  800   7.377   4.932   0.156 -0.9899  0.3529  0.0548
    4MOL    C15  801   7.562   5.148   0.338 -0.1019 -0.3539  0.0774
    4MOL    N16  802   7.570   5.292   0.328 -0.1361 -0.0775  0.1754
    4MOL    C17  803   7.506   5.370   0.415  0.9152 -0.4880  0.1577
    4MOL    O18  804   7.454   5.326   0.521 -0.6815 -0.5062 -0.0746
    4MOL    C19  805   7.497   5.518   0.390 -0.1183  0.4924 -0.4867
    4MOL    C20  806   7.707   5.075   0.333  0.0316  0.3590  0.2437
    4MOL    H21  807   7.523   5.111   0.432  0.4960 -0.0367  0.4560
    4MOL    H22  808   7.629   5.328   0.255 -0.7503 -1.5846 -1.0835
    4MOL    H23  809   7.411   5.547   0.330  0.0902 -1.0334 -1.5727
    4MOL    H24  810   7.496   5.568   0.486  1.3473 -1.5390  0.6162
    4MOL    H25  811   7.585   5.559   0.341  0.4301 -0.0603  0.0194
    4MOL    H26  812   7.709   4.967   0.317  1.3034 -0.0196  2.8012
    4MOL    H27  813   7.756   5.115   0.244 -2.3343 -2.0387 -2.2475
    4MOL    C28  814   7.807   5.106   0.449  0.1785 -0.5167 -0.2779
    4MOL    N29  815   0.103   5.067   0.405  0.6631 -0.0256 -0.3303
    4MOL    C30  816   0.203   5.152   0.382  0.6499 -0.5316 -0.2109
    4MOL    O31  817   0.195   5.268   0.428 -0.0798 -0.8187  0.1296
    4MOL    C32  818   0.319   5.110   0.296 -0.3204  0.0381 -0.6197
    4MOL    C33  819   7.762   5.045   0.584 -0.3476  0.3206  0.1546
    4MOL    H34  820   7.797   5.213   0.465 -0.1803 -0.7029  0.7502
    4MOL    H35  821   0.105   4.968   0.389 -1.8429 -0.5467  2.0674
    4MOL    H36  822   0.310   5.167   0.203 -0.4757  0.4261 -0.3675
    4MOL    H37  823   0.409   5.157   0.336 -1.4679  2.4150 -0.7193
    4MOL    H38  824   0.331   5.004   0.275 -0.4726 -0.1849  0.3833
    4MOL    H39  825   7.657   5.072   0.599 -0.4771 -0.6579  1.0182
    4MOL    H40  826   7.773   4.937   0.585  1.6485  0.5233  0.6719
    4MOL    C41  827   7.837   5.082   0.721 -0.0830 -0.5258  0.3605
    4MOL    N42  828   0.140   5.051   0.713  0.7932  0.4979 -0.3964
    4MOL    C43  829   0.235   5.127   0.764 -0.1226 -0.5262 -0.4561
    4MOL    O44  830   0.215   5.220   0.839  1.0419  0.0315  0.3646
    4MOL    C45  831   0.380   5.088   0.723 -0.0545 -0.8975 -0.5505
    4MOL    C46  832   7.765   5.028   0.850  0.2077 -0.7309 -0.1190
    4MOL    H47  833   7.825   5.190   0.724  0.9684 -0.4203  0.8619
    4MOL    H48  834   0.157   4.962   0.669  0.8029  0.5444 -0.4869
    4MOL    H49  835   0.427   5.116   0.817 -1.6662 -1.7746  0.5470
    4MOL    H50  836   0.401   4.982   0.709  1.0313 -1.2317  2.9350
    4MOL    H51  837   0.419   5.152   0.644  0.5094  2.0323  1.9679
    4MOL    H52  838   7.811   5.080   0.934  0.0069  0.8506 -0.9810
    4MOL    H53  839   7.661   5.061   0.845 -0.8927 -4.1319 -1.0518
    4MOL    C54  840   7.739   4.880   0.876 -0.2808  0.2164  0.2182
    4MOL    N55  841   7.672   4.860   1.004 -0.5995 -0.6963  0.2161
    4MOL    C56  842   7.547   4.812   1.016 -0.2198 -0.2491 -0.2658
    4MOL    O57  843   7.498   4.757   0.919 -0.2593  0.4432  0.5457
    4MOL    C58  844   7.464   4.810   1.149 -0.6676  0.2771 -0.0695
    4MOL    C59  845   0.031   4.785   0.876  0.3247 -0.4405 -0.0148
    4MOL    H60  846   7.677   4.855   0.790  0.7059  2.5114 -1.2088
    4MOL    H61  847   7.719   4.893   1.087  1.1129 -1.6992 -0.3251
    4MOL    H62  848   7.531   4.798   1.234 -2.0548 -0.9781  0.8869
    4MOL    H63  849   7.410   4.904   1.162  1.1773  1.4611 -0.7854
    4MOL    H64  850   7.396   4.727   1.164  1.1720 -0.9605  1.6199
    4MOL    H65  851   0.092   4.813   0.790  1.6335 -0.5354  0.8796
    4MOL    H66  852   0.098   4.822   0.953 -1.1752  0.6315  0.7942
    4MOL    C67  853   0.002   4.635   0.896 -0.1903 -0.1127 -1.1301
    4MOL    N68  854   0.131   4.567   0.902  0.2426 -0.1211 -0.7454
    4MOL    C69  855   0.209   4.566   1.008  0.2144 -0.0347 -0.4184
    4MOL    O70  856   0.184   4.636   1.109 -0.5340 -0.3981 -0.3481
    4MOL    C71  857   0.350   4.502   0.998  0.1727  0.1771  0.0891
    4MOL    C72  858   7.757   4.589   0.774 -0.4576 -0.9822 -0.4543
    4MOL    H73  859   7.790   4.610   0.989  2.3309  0.9151  0.6038
    4MOL    H74  860   0.147   4.510   0.821 -0.5432 -0.6590 -0.5367
    4MOL    H75  861   0.360   4.474   0.894  0.7370 -0.0659  0.2069
    4MOL    H76  862   0.423   4.575   1.033 -0.3481 -0.1587  1.9265
    4MOL    H77  863   0.363   4.405   1.045  0.7017  0.4690  0.5487
    4MOL    H78  864   7.656   4.629   0.778  0.4643  1.2413  1.8569
    4MOL    H79  865   7.801   4.622   0.680  4.2813 -1.3252  1.5287
    4MOL    C80  866   7.737   4.437   0.753  0.0997  0.4533  0.8085
    4MOL    N81  867   7.810   4.389   0.632 -0.2251 -0.0895  0.1439
    4MOL    C82  868   0.082   4.313   0.646 -0.2211 -0.4018 -0.0114
    4MOL    O83  869   0.151   4.313   0.746 -0.0542  0.8179  0.6150
    4MOL    C84  870   0.120   4.237   0.520  0.4391  0.2838 -0.4520
    4MOL    C85  871   7.591   4.398   0.735 -0.4480 -0.7306  0.9391
    4MOL    H86  872   7.778   4.378   0.835 -0.6068  0.6789  1.3348
    4MOL    H87  873   7.773   4.385   0.539  1.8058 -0.9205 -0.6439
    4MOL    H88  874   0.215   4.273   0.480  0.0345  1.2514 -0.5616
    4MOL    H89  875   0.144   4.134   0.543 -1.0243  0.0785  0.2327
    4MOL    H90  876   0.045   4.248   0.442 -0.2705 -1.5921 -0.0383
    4MOL    H91  877   7.557   4.424   0.835 -0.8541  0.3558  0.5323
    4MOL    H92  878   7.539   4.460   0.662  2.9956  2.0118  0.6983
    4MOL    C93  879   7.559   4.247   0.703 -0.5333  0.1830 -0.4278
    4MOL    N94  880   7.407   4.230   0.700 -0.6621  0.0001  0.0842
    4MOL    C95  881   7.332   4.205   0.591 -0.0111 -0.1779 -0.7455
    4MOL    O96  882   7.377   4.188   0.475 -0.0141  0.3076  0.2174
    4MOL    C97  883   7.185   4.215   0.623 -0.0921 -0.1380 -0.0420
    4MOL    C98  884   7.617   4.150   0.808 -0.1490  0.3348 -0.3248
    4MOL    H99  885   7.604   4.233   0.605 -0.0590  1.5410 -0.4095
    4MOL   H100  886   7.362   4.255   0.788 -0.4806  1.0611 -0.1164
    4MOL   H101  887   7.121   4.139   0.577 -0.0080 -2.1191  2.9799
    4MOL   H102  888   7.168   4.208   0.730  1.5961 -0.2511  0.2158
    4MOL   H103  889   7.159   4.316   0.591  2.6837  1.1969  1.7765
    4MOL   H104  890   7.724   4.167   0.822 -0.1894  0.9717 -0.7565
    4MOL   H105  891   7.567   4.168   0.903 -0.9534 -0.2956 -0.6260
    4MOL   C106  892   7.599   4.003   0.780  0.4073 -0.2779  0.0026
    4MOL   N107  893   7.609   3.927   0.908  0.7222 -0.3673  0.1255
    4MOL   C108  894   7.537   3.824   0.957 -0.9915 -0.5876  0.2952
    4MOL   O109  895   7.446   3.765   0.893 -0.2491 -1.1269  0.2308
    4MOL   C110  896   7.575   3.763   1.094  0.1341 -0.0265 -0.0010
    4MOL   C111  897   7.702   3.955   0.675 -0.1976 -0.4435 -0.3818
    4MOL   H112  898   7.501   3.974   0.741  0.2491  0.8039 -0.4291
    4MOL   H113  899   7.684   3.961   0.967  0.8626  0.3257 -0.4432
    4MOL   H114  900   7.679   3.731   1.100  0.7999  2.3632  2.4855
    4MOL   H115  901   7.557   3.826   1.181  1.7255  0.9801 -0.3733
    4MOL   H116  902   7.531   3.666   1.120  0.4087 -0.3839 -0.8522
    4MOL   H117  903   7.673   4.000   0.580  1.2900  0.8696 -0.2406
    4MOL   H118  904   7.798   3.997   0.705 -0.4154 -0.2452  0.0426
    4MOL   C119  905   7.713   3.803   0.649 -0.0926  0.6306 -0.7519
    4MOL   N120  906   0.007   3.791   0.581  0.1308 -0.5531 -0.2724
    4MOL   C121  907   0.038   3.849   0.467 -0.6711  0.1361  0.4496
    4MOL   O122  908   7.800   3.926   0.405 -0.2633  0.5124  0.1893
    4MOL   C123  909   0.184   3.826   0.418 -0.2234 -0.0269 -0.5883
    4MOL   C124  910   7.594   3.729   0.582  0.0237 -0.3191  0.6256
    4MOL   H125  911   7.730   3.750   0.743 -2.0910  2.1840  0.5169
    4MOL   H126  912   0.080   3.733   0.621  1.7665  2.5830  1.4737
    4MOL   H127  913   0.184   3.814   0.310 -1.9886 -0.0751 -0.6089
    4MOL   H128  914   0.244   3.907   0.459  0.6872 -1.2036  0.3995
    4MOL   H129  915   0.220   3.737   0.469 -0.2478  0.2605 -0.0603
    4MOL   H130  916   7.505   3.778   0.620 -1.0743 -1.3729 -0.5278
    4MOL   H131  917   7.599   3.746   0.475 -1.3424 -2.6768  0.1547
    4MOL   C132  918   7.583   3.576   0.607  0.0987  0.4304 -0.4044
    4MOL   N133  919   7.692   3.506   0.543 -0.3684 -0.3426  0.3008
    4MOL   C134  920   7.771   3.404   0.592 -0.5121  0.0634 -0.0310
    4MOL   O135  921   7.759   3.344   0.695 -0.2592  0.2143  0.1476
    4MOL   C136  922   0.047   3.368   0.504 -0.2659  0.2311  0.4510
    4MOL   C137  923   7.451   3.516   0.557 -0.5601  0.1333  0.2450
    4MOL   H138  924   7.596   3.563   0.715 -0.4347 -0.3395 -0.4291
    4MOL   H139  925   7.726   3.549   0.458  0.7220  1.4361  1.6208
    4MOL   H140  926   0.090   3.272   0.532  2.3764  1.1993 -0.0578
    4MOL   H141  927   0.006   3.381   0.404  2.2411  0.0228 -0.6438
    4MOL   H142  928   0.125   3.444   0.510 -0.9352  0.9074  0.6642
    4MOL   H143  929   7.413   3.567   0.469 -0.2343  0.1776  0.1299
    4MOL   H144  930   7.460   3.410   0.533  0.9267  0.1264  0.7805
    4MOL   C145  931   7.325   3.513   0.646 -0.5651 -0.1560  0.2729
    4MOL   N146  932   7.275   3.648   0.668 -0.2525  0.1004 -0.5476
    4MOL   C147  933   7.196   3.720   0.589 -0.1554  0.3443  0.8811
    4MOL   O148  934   7.163   3.676   0.481 -0.0016 -0.5514  0.4080
    4MOL   C149  935   7.134   3.838   0.651  0.3480  0.7600  0.8084
    4MOL   C150  936   7.355   3.431   0.775  0.0116 -0.2153 -0.3184
    4MOL   H151  937   7.251   3.462   0.585 -1.2113  0.8139  0.2342
    4MOL   H152  938   7.281   3.683   0.762 -0.7638  0.2614 -0.5752
    4MOL   H153  939   7.056   3.878   0.586 -1.6263 -1.3750  1.8102
    4MOL   H154  940   7.087   3.797   0.741 -3.4429 -1.4348 -2.0142
    4MOL   H155  941   7.213   3.910   0.672  1.6420 -0.4288  0.1142
    4MOL   H156  942   7.375   3.328   0.745 -4.5446 -0.8514 -1.5349
    4MOL   H157  943   7.431   3.484   0.832  0.0562 -0.3015 -0.2973
    4MOL   C158  944   7.231   3.427   0.872 -0.0517  0.5411  0.1678
    4MOL   N159  945   7.278   3.374   0.995  0.3632  0.0686 -0.1496
    4MOL   C160  946   7.295   3.440   1.107  0.4405  0.8184 -0.1856
    4MOL   O161  947   7.279   3.556   1.125 -0.4159  0.1383  0.9263
    4MOL   C162  948   7.332   3.350   1.216  0.6850  0.3511  0.4252
    4MOL   C163  949   7.113   3.330   0.819 -0.3248 -0.2375  0.3986
    4MOL   H164  950   7.197   3.530   0.881  1.4825  0.9593  1.3574
    4MOL   H165  951   7.282   3.274   1.007  0.0694  0.4300  3.2679
    4MOL   H166  952   7.375   3.401   1.302  1.2070 -0.8267  0.8611
    4MOL   H167  953   7.239   3.304   1.249 -1.6302  2.4593 -2.7843
    4MOL   H168  954   7.409   3.281   1.182 -0.6513 -0.7007 -0.5234
    4MOL   H169  955   7.164   3.251   0.764 -1.2155  0.5995 -1.6841
    4MOL   H170  956   7.062   3.279   0.901  0.5062 -2.1389 -0.2261
    4MOL   C171  957   6.998   3.396   0.740 -0.1659  0.2997 -0.1502
    4MOL   N172  958   6.913   3.484   0.823  0.1964 -0.4154 -0.3505
    4MOL   C173  959   6.879   3.612   0.792 -0.4763  0.5250 -0.0888
    4MOL   O174  960   6.894   3.664   0.681 -0.6493  0.4691 -0.7642
    4MOL   C175  961   6.830   3.693   0.915 -0.1790 -0.0825 -0.1884
    4MOL   C176  962   6.905   3.289   0.679 -0.2420 -0.4925  0.1599
    4MOL   H177  963   7.047   3.446   0.656  1.5912 -0.8103  0.1883
    4MOL   H178  964   6.887   3.454   0.915  1.1588  0.4587  0.2193
    4MOL   H179  965   6.901   3.773   0.937  0.3118 -1.1415  2.2184
    4MOL   H180  966   6.731   3.730   0.887  0.3512  1.3378 -0.2409
    4MOL   H181  967   6.827   3.625   1.000  0.6545 -0.5056 -0.4955
    4MOL   H182  968   6.978   3.223   0.632 -1.1617 -0.8285 -0.8253
    4MOL   H183  969   6.860   3.239   0.765 -1.5083 -0.1429 -0.2946
    4MOL   C184  970   6.795   3.344   0.584 -0.1318 -0.1607  0.7676
    4MOL   N185  971   6.708   3.236   0.545 -0.3715  0.5616 -0.2524
    4MOL   C186  972   6.622   3.174   0.626  0.3124 -0.2818 -0.3014
    4MOL   O187  973   6.597   3.214   0.744  0.0954 -0.4671  0.4001
    4MOL   C188  974   6.562   3.044   0.573 -0.7453 -0.5325  0.4142
    4MOL   C189  975   6.844   3.416   0.462  0.1834 -0.4809 -0.0837
    4MOL   H190  976   6.740   3.414   0.647  0.2810 -0.4947  1.5085
    4MOL   H191  977   6.725   3.203   0.451 -0.6035  0.1425 -0.1464
    4MOL   H192  978   6.453   3.047   0.568 -0.6627  0.2221 -1.2971
    4MOL   H193  979   6.603   3.023   0.474 -1.0598 -1.9995  0.5753
    4MOL   H194  980   6.589   2.956   0.631 -0.7366 -1.0965 -0.4373
    4MOL   H195  981   6.936   3.470   0.485  1.2061 -1.2981 -2.0610
    4MOL   H196  982   6.873   3.325   0.408 -1.5191 -2.9974  3.0841
    4MOL   C197  983   6.744   3.503   0.375  0.1731  0.2131 -0.0876
    4MOL   N198  984   6.706   3.425   0.264 -0.5849  0.1748  0.3377
    4MOL   C199  985   6.584   3.384   0.228 -0.6436 -0.0086  0.1770
    4MOL   O200  986   6.490   3.389   0.302 -0.4082  0.2664 -0.5144
    4MOL   C201  987   6.575   3.315   0.084  1.2667  0.0379  0.5170
    4MOL   C202  988   6.781   3.645   0.344 -0.6207 -0.0296 -0.3030
    4MOL   H203  989   6.654   3.522   0.433  1.4797  0.6511  1.8591
    4MOL   H204  990   6.779   3.407   0.196 -0.7694 -0.4214  0.2928
    4MOL   H205  991   6.668   3.288   0.036  1.3374  0.5041  0.3826
    4MOL   H206  992   6.511   3.228   0.101  0.0368  0.7883 -0.1843
    4MOL   H207  993   6.527   3.372   0.004  3.3291 -0.5230 -1.1639
    4MOL   H208  994   6.691   3.693   0.306 -0.7186 -0.2674 -0.3705
    4MOL   H209  995   6.801   3.701   0.436 -0.6100  2.0321 -1.5237
    4MOL   C210  996   6.890   3.675   0.238  0.0748  0.6737  0.2588
    4MOL   N211  997   7.016   3.602   0.263 -0.0575 -0.0989 -0.3155
    4MOL   C212  998   7.085   3.533   0.177  0.0262  0.0930 -0.7604
    4MOL   O213  999   7.045   3.503   0.070 -0.0076  0.0149  0.7006
    4MOL   C214 1000   7.233   3.494   0.225 -0.1332  0.2267 -0.5173
    4MOL   C215 1001   6.941   3.823   0.221 -0.0615 -0.9470 -0.9649
    4MOL   H216 1002   6.847   3.651   0.141 -1.5095  0.7337  0.9261
    4MOL   H217 1003   7.061   3.617   0.352  1.3950 -0.3578 -0.9756
    4MOL   H218 1004   7.283   3.428   0.155  0.6654 -0.5723  0.7822
    4MOL   H219 1005   7.277   3.593   0.234  1.1239 -0.0465 -3.1095
    4MOL   H220 1006   7.231   3.451   0.325 -1.4814 -0.4392 -0.8124
    4MOL   H221 1007   6.988   3.854   0.314 -0.1692 -0.9017 -0.9252
    4MOL   H222 1008   7.020   3.826   0.146  1.8198 -1.9976  0.9214
    4MOL   C223 1009   6.827   3.932   0.178 -0.5466  0.0000  0.3414
    4MOL   N224 1010   6.889   4.035   0.102 -0.3397  0.1014 -0.7314
    4MOL   C225 1011   6.875   4.043   7.809  0.2694  0.5000 -0.0941
    4MOL   O226 1012   6.825   3.953   7.739 -0.2610 -0.8029 -0.2985
    4MOL   C227 1013   6.914   4.171   7.745 -0.3188  0.9241 -0.2235
    4MOL   C228 1014   6.758   4.008   0.293 -0.3884 -0.4466  0.0505
    4MOL   H229 1015   6.752   3.886   0.114 -1.4890 -0.2744  1.6504
    4MOL   H230 1016   6.934   4.108   0.157  1.1472  0.3198 -2.1970
    4MOL   H231 1017   6.836   4.198   7.675 -0.6252 -0.9408 -0.6297
    4MOL   H232 1018   6.934   4.257   7.809 -0.1434  0.8990 -0.2420
    4MOL   H233 1019   7.009   4.137   7.702 -0.9155 -1.0912 -0.0250
    4MOL   H234 1020   6.756   3.939   0.377  0.1707 -0.4787  0.0419
    4MOL   H235 1021   6.823   4.086   0.334 -2.6867  0.9750  1.1115
    4MOL   C236 1022   6.617   4.052   0.267  0.9000  0.0571  0.0778
    4MOL   N237 1023   6.599   4.171   0.187 -0.3160  0.1866 -0.4382
    4MOL   C238 1024   6.499   4.198   0.102  0.6711  0.6724  0.3852
    4MOL   O239 1025   6.404   4.120   0.078  0.4663 -1.1271  0.7799
    4MOL   C240 1026   6.507   4.320   0.016 -0.0138 -0.5662  0.0979
    4MOL   C241 1027   6.530   4.069   0.394 -0.1573  0.0392  0.6141
    4MOL   H242 1028   6.572   3.971   0.210  0.7431 -0.8998  1.5439
    4MOL   H243 1029   6.680   4.229   0.170 -1.4651  1.5809 -1.1815
    4MOL   H244 1030   6.549   4.398   0.080 -3.2026  1.2498  0.0886
    4MOL   H245 1031   6.573   4.316   7.770 -1.7708 -1.4603 -1.2429
    4MOL   H246 1032   6.408   4.348   7.820  0.0993 -1.9714 -1.3605
    4MOL   H247 1033   6.424   4.084   0.375  0.0456  0.7766  0.0453
    4MOL   H248 1034   6.530   3.971   0.443  0.8618  0.6930  1.9474
    4MOL   C249 1035   6.572   4.176   0.499 -0.3637  0.3012  0.5605
    4MOL   N250 1036   6.646   4.110   0.607  0.0190  0.1938 -0.0380
    4MOL   C251 1037   6.759   4.153   0.661  0.7807  0.3000  0.4413
    4MOL   O252 1038   6.805   4.265   0.632  0.2222  0.1928 -0.6705
    4MOL   C253 1039   6.825   4.062   0.754 -0.0645 -0.2454  0.2285
    4MOL   C254 1040   6.459   4.247   0.564  0.0531 -0.4797  1.2143
    4MOL   H255 1041   6.632   4.248   0.443 -1.2282 -0.0941 -0.8969
    4MOL   H256 1042   6.608   4.033   0.659  1.3203  1.4593  2.9374
    4MOL   H257 1043   6.908   4.118   0.799 -2.2255  2.7886  0.6054
    4MOL   H258 1044   6.769   4.030   0.842  0.4975  0.3207  0.8094
    4MOL   H259 1045   6.850   3.972   0.699  1.8355  1.2394 -1.3928
    4MOL   H260 1046   6.492   4.303   0.652 -1.3731  3.2643 -0.5643
    4MOL   H261 1047   6.415   4.323   0.501 -0.4888 -1.5007  0.3510
    4MOL   H262 1048   6.374   4.193   0.605 -0.6132 -0.1275  0.3008
    5MOL     C1 1049   4.918   3.924   4.354 -0.1778  0.0332 -0.3235
    5MOL     N2 1050   4.838   4.036   4.301  0.6439 -0.5645  0.7215
    5MOL     C3 1051   4.803   4.057   4.173 -0.1424 -0.6038  0.4314
    5MOL     O4 1052   4.816   3.977   4.086  0.0734  0.0180  0.2523
    5MOL     C5 1053   4.761   4.202   4.148  0.2362  0.4450 -0.4083
    5MOL     C6 1054   5.052   3.991   4.405  0.3582 -0.0149  0.6137
    5MOL     H7 1055   4.860   3.874   4.431  0.6024 -0.1333  0.1557
    5MOL     H8 1056   4.827   4.107   4.372  1.4663 -0.2205  0.5146
    5MOL     H9 1057   4.793   4.220   4.046  0.5388  0.6532 -0.2759
    5MOL    H10 1058   4.654   4.215   4.164 -0.3494 -2.0266 -2.0614
    5MOL    H11 1059   4.816   4.268   4.215 -2.1425  1.5748  0.5012
    5MOL    H12 1060   5.105   4.026   4.317  1.6798 -2.4061  0.4116
    5MOL    H13 1061   5.015   4.063   4.478 -0.4736 -0.1291  0.3062
    5MOL    H14 1062   4.936   3.859   4.268 -0.9551  0.9591 -1.1991
    5MOL    C15 1063   5.142   3.893   4.478  0.5393  0.4782  0.4949
    5MOL    N16 1064   5.252   3.971   4.535  0.1019 -0.5891 -0.6133
    5MOL    C17 1065   5.239   4.021   4.659  0.2302  0.5284 -0.3902
    5MOL    O18 1066   5.139   4.007   4.725  0.1244 -0.4533 -0.2515
    5MOL    C19 1067   5.352   4.102   4.708 -0.4783  0.1746 -0.1111
    5MOL    C20 1068   5.201   3.793   4.379 -0.2815 -0.1932 -0.3737
    5MOL    H21 1069   5.089   3.841   4.558 -0.0454 -1.4384 -1.1003
    5MOL    H22 1070   5.344   3.965   4.494  0.5252  0.2573  0.2015
    5MOL    H23 1071   5.350   4.199   4.659 -1.0881  0.4792  0.4966
    5MOL    H24 1072   5.350   4.113   4.816  0.7880  1.0140 -0.1610
    5MOL    H25 1073   5.450   4.059   4.688 -1.1878 -1.8656  0.6561
    5MOL    H26 1074   5.130   3.756   4.305 -1.9433  0.0190  1.0800
    5MOL    H27 1075   5.279   3.841   4.319  1.1507 -0.4529  1.2494
    5MOL    C28 1076   5.254   3.657   4.438  0.0781 -0.2398  0.1465
    5MOL    N29 1077   5.402   3.631   4.426  0.0134 -0.2677  0.4548
    5MOL    C30 1078   5.503   3.707   4.471 -0.1705 -0.5346  0.3993
    5MOL    O31 1079   5.488   3.808   4.539  0.0639 -0.2438  0.2446
    5MOL    C32 1080   5.645   3.649   4.458  0.4396  0.3813 -0.1653
    5MOL    C33 1081   5.183   3.542   4.370 -1.2554  0.1487  0.1685
    5MOL    H34 1082   5.231   3.657   4.545  0.8110 -0.4239  0.3076
    5MOL    H35 1083   5.425   3.539   4.391 -0.7777  0.0713 -1.0017
    5MOL    H36 1084   5.682   3.693   4.366  2.0963  0.3878  0.4969
    5MOL    H37 1085   5.708   3.671   4.544  2.0665 -1.7266 -0.7628
    5MOL    H38 1086   5.643   3.543   4.430 -0.8175  0.6454 -1.1410
    5MOL    H39 1087   5.201   3.545   4.263 -1.2643  1.1867  0.1845
    5MOL    H40 1088   5.240   3.453   4.397 -1.4174 -0.3095 -0.9550
    5MOL    C41 1089   5.040   3.520   4.403  0.0932 -0.2045  0.5228
    5MOL    N42 1090   5.020   3.493   4.547  0.1301 -0.1628  1.0065
    5MOL    C43 1091   4.946   3.569   4.628 -0.2782  0.3134 -0.0081
    5MOL    O44 1092   4.874   3.663   4.594  0.0553 -0.0877 -0.3145
    5MOL    C45 1093   4.962   3.530   4.776 -0.2516 -0.7016  0.2812
    5MOL    C46 1094   4.983   3.398   4.324  0.8288  0.4608 -0.3059
    5MOL    H47 1095   4.981   3.609   4.379 -0.1035 -0.0543  1.5313
    5MOL    H48 1096   5.086   3.429   4.588  0.0913  0.4119  1.9874
    5MOL    H49 1097   5.058   3.573   4.804  0.6682 -1.4490 -1.5904
    5MOL    H50 1098   4.876   3.568   4.831 -0.8413  1.4560 -2.0280
    5MOL    H51 1099   4.964   3.422   4.786  1.4970 -1.0497 -3.0186
    5MOL    H52 1100   5.052   3.316   4.341  0.4541 -0.0538 -1.1775
    5MOL    H53 1101   4.891   3.371   4.375  0.3462  1.7063 -0.5046
    5MOL    C54 1102   4.951   3.422   4.178  0.3242 -0.0136  0.5220
    5MOL    N55 1103   4.814   3.483   4.172 -0.2297 -0.4278  0.5461
    5MOL    C56 1104   4.771   3.579   4.091  0.1418  0.1873  0.3240
    5MOL    O57 1105   4.834   3.612   3.988 -0.1396  0.1541 -0.0906
    5MOL    C58 1106   4.636   3.643   4.124 -0.3140  0.2151  0.0200
    5MOL    C59 1107   4.958   3.292   4.094 -0.2948  0.2637 -0.4358
    5MOL    H60 1108   5.024   3.498   4.151 -0.1207  0.7156  1.3828
    5MOL    H61 1109   4.755   3.487   4.254  0.2879  0.6730  0.8796
    5MOL    H62 1110   4.645   3.730   4.190  0.2214  0.4232 -0.3261
    5MOL    H63 1111   4.585   3.685   4.038 -1.0726 -0.4550  0.1364
    5MOL    H64 1112   4.577   3.571   4.180  2.1809 -1.2271  0.9169
    5MOL    H65 1113   5.054   3.255   4.130 -0.8236 -2.3816 -1.7092
    5MOL    H66 1114   4.891   3.212   4.124  0.2539  0.1586  0.5456
    5MOL    C67 1115   4.970   3.310   3.943  0.4490 -0.5448  0.3928
    5MOL    N68 1116   4.991   3.179   3.882  0.0493 -0.3059 -0.2242
    5MOL    C69 1117   4.896   3.118   3.813 -0.1708 -0.1835  0.0015
    5MOL    O70 1118   4.782   3.158   3.795  0.3674  0.4472 -0.9647
    5MOL    C71 1119   4.941   2.983   3.754  0.2411 -0.8027 -0.2053
    5MOL    C72 1120   5.071   3.415   3.896  0.0501 -0.5635  0.6487
    5MOL    H73 1121   4.873   3.354   3.917 -0.1778 -0.5460  2.5964
    5MOL    H74 1122   5.081   3.136   3.900 -0.0630 -0.5089 -0.1494
    5MOL    H75 1123   4.960   2.910   3.833  1.6356 -1.3274 -1.0082
    5MOL    H76 1124   4.868   2.948   3.682 -1.7543  0.5129  1.1465
    5MOL    H77 1125   5.035   2.988   3.698 -0.1060 -2.7999 -1.0080
    5MOL    H78 1126   5.050   3.517   3.927 -0.0026 -0.0228 -1.0827
    5MOL    H79 1127   5.172   3.395   3.930  0.5160  0.2846 -0.2095
    5MOL    C80 1128   5.085   3.433   3.747  0.2219 -0.4543 -0.4139
    5MOL    N81 1129   5.179   3.543   3.720  0.5802 -0.0561 -0.1020
    5MOL    C82 1130   5.293   3.538   3.652 -0.3853 -0.2169  0.8120
    5MOL    O83 1131   5.323   3.437   3.583  0.0320 -0.1250 -0.0462
    5MOL    C84 1132   5.390   3.649   3.677  0.5884  0.9202 -0.5232
    5MOL    C85 1133   4.954   3.469   3.683  0.1344 -0.0443 -0.0238
    5MOL    H86 1134   5.124   3.341   3.704  1.2877 -0.5622  0.7297
    5MOL    H87 1135   5.173   3.618   3.788 -0.9679 -1.3634  1.2588
    5MOL    H88 1136   5.493   3.614   3.675 -0.0984 -1.2638  0.0963
    5MOL    H89 1137   5.364   3.722   3.601 -0.1138  2.4005  1.1065
    5MOL    H90 1138   5.390   3.702   3.772 -0.0335 -1.9278  1.1412
    5MOL    H91 1139   4.871   3.400   3.697  1.0971 -0.9466  1.3389
    5MOL    H92 1140   4.916   3.560   3.730  1.0008  0.6194 -0.5821
    5MOL    C93 1141   4.962   3.482   3.528 -0.5795 -0.6638  0.2230
    5MOL    N94 1142   4.844   3.564   3.492 -0.0101  0.4549  0.1726
    5MOL    C95 1143   4.851   3.698   3.469  0.0441  0.0629 -0.0040
    5MOL    O96 1144   4.948   3.764   3.501  0.4111  0.1669  0.2696
    5MOL    C97 1145   4.726   3.751   3.408  0.2583 -0.4478 -0.7290
    5MOL    C98 1146   4.956   3.344   3.464  0.4351  0.1332  0.0803
    5MOL    H99 1147   5.051   3.530   3.487 -2.2875  3.8637  1.5693
    5MOL   H100 1148   4.759   3.515   3.467 -0.0659  1.7171 -2.2990
    5MOL   H101 1149   4.659   3.769   3.492 -1.2048 -0.3952 -1.8795
    5MOL   H102 1150   4.741   3.842   3.350 -2.2044 -0.3686 -1.3070
    5MOL   H103 1151   4.678   3.673   3.348 -0.0939 -0.2559 -0.7022
    5MOL   H104 1152   5.010   3.263   3.515 -0.9037 -0.9007 -0.1248
    5MOL   H105 1153   4.856   3.310   3.489  0.2932  1.8424  1.9632
    5MOL   C106 1154   4.979   3.328   3.311 -0.0534  0.5309  0.0804
    5MOL   N107 1155   4.920   3.437   3.240 -0.2726  0.5512  0.7203
    5MOL   C108 1156   4.977   3.519   3.152 -0.3422  0.1886  0.1469
    5MOL   O109 1157   5.095   3.513   3.122 -0.0024 -0.9257  0.4217
    5MOL   C110 1158   4.890   3.626   3.090 -0.2473 -0.0337 -0.7072
    5MOL   C111 1159   4.931   3.191   3.257 -0.0716 -1.0781  0.2870
    5MOL   H112 1160   5.084   3.326   3.283 -0.4956  2.9474 -1.8855
    5MOL   H113 1161   4.819   3.434   3.229  0.0741 -0.8852 -2.8382
    5MOL   H114 1162   4.953   3.715   3.076  1.6758 -0.7824  2.6628
    5MOL   H115 1163   4.848   3.585   2.998  0.6498 -1.5297 -0.4628
    5MOL   H116 1164   4.811   3.667   3.153 -0.3985 -1.2122 -0.1307
    5MOL   H117 1165   4.958   3.112   3.327  0.8029 -0.0324  1.1534
    5MOL   H118 1166   4.822   3.188   3.264 -0.2341  1.9647 -0.2063
    5MOL   C119 1167   4.973   3.142   3.113 -0.2530 -0.2016 -0.5135
    5MOL   N120 1168   4.856   3.077   3.034 -0.1742 -0.3623  0.3101
    5MOL   C121 1169   4.769   3.141   2.960  0.6216 -0.4510  0.6200
    5MOL   O122 1170   4.775   3.264   2.948 -0.1438 -0.0558 -0.5885
    5MOL   C123 1171   4.661   3.063   2.890  0.1512 -0.9979 -0.0227
    5MOL   C124 1172   5.086   3.034   3.103 -0.3001 -0.5621  0.0907
    5MOL   H125 1173   5.012   3.231   3.064  1.2275  0.0016  0.9979
    5MOL   H126 1174   4.842   2.979   3.051 -1.6408 -0.1683  0.2762
    5MOL   H127 1175   4.605   3.001   2.961  1.5417 -2.0101  0.2106
    5MOL   H128 1176   4.602   3.129   2.827  0.4915 -1.1521 -0.5065
    5MOL   H129 1177   4.722   2.995   2.831 -0.5294 -2.3866  0.8410
    5MOL   H130 1178   5.132   3.044   3.201  1.1806  1.5231 -0.7891
    5MOL   H131 1179   5.043   2.934   3.095  2.1393 -1.7214  0.9542
    5MOL   C132 1180   5.182   3.041   2.996  0.1051 -0.0413  1.0827
    5MOL   N133 1181   5.243   3.169   2.986  0.1482 -0.4921 -0.6530
    5MOL   C134 1182   5.359   3.206   3.034  0.0455 -0.7716  0.2489
    5MOL   O135 1183   5.422   3.139   3.112  0.1046 -0.3624 -0.7133
    5MOL   C136 1184   5.412   3.340   2.984  0.0208 -0.0978 -0.2553
    5MOL   C137 1185   5.123   3.001   2.850  0.5797 -0.2093 -0.8807
    5MOL   H138 1186   5.266   2.977   3.026  0.0223  0.9954  3.6499
    5MOL   H139 1187   5.204   3.228   2.913 -0.8532  0.8809  0.9509
    5MOL   H140 1188   5.353   3.418   3.033 -0.4877 -0.5071 -0.2093
    5MOL   H141 1189   5.515   3.348   3.018 -0.9210  0.6597  2.5982
    5MOL   H142 1190   5.414   3.353   2.876  3.0470 -0.9708 -0.3293
    5MOL   H143 1191   5.019   3.021   2.827  0.4429 -0.2379 -0.2981
    5MOL   H144 1192   5.187   3.055   2.781  2.5575  0.5453  1.4797
    5MOL   C145 1193   5.142   2.855   2.813 -0.0055  0.1547  0.1436
    5MOL   N146 1194   5.160   2.844   2.670  0.0739 -0.2297 -0.6453
    5MOL   C147 1195   5.223   2.744   2.607 -0.8960 -0.3924 -0.7759
    5MOL   O148 1196   5.260   2.644   2.670  0.4717  0.9275 -0.3181
    5MOL   C149 1197   5.236   2.744   2.458  0.1051  0.4294 -0.3969
    5MOL   C150 1198   5.023   2.756   2.848  0.0256 -0.2642 -0.1891
    5MOL   H151 1199   5.234   2.836   2.868  0.6829 -0.8335 -1.2970
    5MOL   H152 1200   5.132   2.920   2.609 -0.9356  1.4926  1.9229
    5MOL   H153 1201   5.259   2.845   2.423  1.4225  1.3292  2.8739
    5MOL   H154 1202   5.307   2.672   2.418  1.2736 -0.0241  2.3860
    5MOL   H155 1203   5.137   2.723   2.415 -0.0706 -0.0289  0.2201
    5MOL   H156 1204   4.934   2.805   2.888  1.2029  0.7173  1.2871
    5MOL   H157 1205   4.992   2.701   2.759 -2.9756 -0.6626  1.0538
    5MOL   C158 1206   5.071   2.660   2.965 -0.3558 -0.8639 -0.3392
    5MOL   N159 1207   5.196   2.584   2.935 -0.0455  0.0849  0.1723
    5MOL   C160 1208   5.278   2.534   3.024  0.2336 -0.4817 -0.3451
    5MOL   O161 1209   5.251   2.536   3.147  0.6873  0.1010  0.4571
    5MOL   C162 1210   5.412   2.471   2.990  0.0828  0.3910 -0.2196
    5MOL   C163 1211   4.961   2.560   2.989 -0.4516  0.6590 -0.6787
    5MOL   H164 1212   5.097   2.705   3.061 -0.9717  0.8148 -0.9352
    5MOL   H165 1213   5.223   2.592   2.838 -2.2054 -0.6681 -0.5363
    5MOL   H166 1214   5.404   2.362   3.000  2.0732  0.1309 -1.2353
    5MOL   H167 1215   5.444   2.501   2.891  1.7705  2.1199  0.8092
    5MOL   H168 1216   5.493   2.501   3.057 -1.5636 -0.2670  2.1462
    5MOL   H169 1217   4.922   2.527   2.893 -1.4089  0.0733 -0.1113
    5MOL   H170 1218   4.979   2.466   3.042  1.4123  0.4527 -1.6623
    5MOL   C171 1219   4.848   2.626   3.075 -0.1819  0.1796  0.0537
    5MOL   N172 1220   4.895   2.658   3.212 -0.4265 -0.2272 -0.3547
    5MOL   C173 1221   4.870   2.770   3.282  0.4612  0.0136  0.0424
    5MOL   O174 1222   4.803   2.863   3.234  0.1811  0.3117 -0.2440
    5MOL   C175 1223   4.932   2.774   3.428  0.2506 -0.4436 -0.0994
    5MOL   C176 1224   4.721   2.538   3.081 -0.4236 -0.7377 -0.1736
    5MOL   H177 1225   4.823   2.723   3.032 -0.9126  0.8483  1.8889
    5MOL   H178 1226   4.931   2.583   3.270 -2.7902 -1.8373 -0.8971
    5MOL   H179 1227   5.034   2.736   3.421  0.5686  0.4687 -0.5637
    5MOL   H180 1228   4.939   2.874   3.471 -1.4651 -0.7504  0.9497
    5MOL   H181 1229   4.856   2.723   3.488  0.1157  0.4841  0.5371
    5MOL   H182 1230   4.752   2.449   3.136 -1.1299 -1.1623 -0.4662
    5MOL   H183 1231   4.652   2.589   3.148  2.5067  0.8879  1.7172
    5MOL   C184 1232   4.661   2.492   2.946  0.7112 -0.2182  0.3553
    5MOL   N185 1233   4.632   2.598   2.858 -0.8539 -0.3892 -0.6126
    5MOL   C186 1234   4.549   2.705   2.879 -0.6044  0.0429 -0.2687
    5MOL   O187 1235   4.500   2.729   2.992 -0.3293 -0.1521  0.5595
    5MOL   C188 1236   4.504   2.791   2.757 -0.3437  0.2595 -1.2653
    5MOL   C189 1237   4.539   2.399   2.965  0.0242  0.5439 -0.0004
    5MOL   H190 1238   4.743   2.434   2.904 -0.0220 -0.0447 -1.3592
    5MOL   H191 1239   4.668   2.588   2.764 -1.2871 -1.6814 -0.6523
    5MOL   H192 1240   4.470   2.892   2.779 -1.5925  0.2140 -2.8826
    5MOL   H193 1241   4.577   2.805   2.676 -1.6624  1.5174 -2.2585
    5MOL   H194 1242   4.419   2.736   2.717 -2.2793  2.0904  0.2477
    5MOL   H195 1243   4.573   2.299   2.994  2.0884  1.3159  0.2877
    5MOL   H196 1244   4.478   2.446   3.042  1.3867  1.8459  0.2976
    5MOL   C197 1245   4.444   2.377   2.847  0.0215  0.0928 -0.2586
    5MOL   N198 1246   4.307   2.349   2.891  0.2958  0.1610  0.2490
    5MOL   C199 1247   4.208   2.439   2.897  0.0808 -0.0925 -0.3267
    5MOL   O200 1248   4.216   2.552   2.849 -0.2075  0.2241  0.3039
    5MOL   C201 1249   4.085   2.397   2.976 -1.0101  0.1860 -0.8514
    5MOL   C202 1250   4.481   2.263   2.753  0.4501 -0.2292  0.5443
    5MOL   H203 1251   4.435   2.465   2.783 -1.1848  0.8326  0.8961
    5MOL   H204 1252   4.279   2.261   2.932  0.2569  0.1529  0.2053
    5MOL   H205 1253   3.992   2.412   2.921 -0.0426  0.4174 -2.4753
    5MOL   H206 1254   4.083   2.289   2.991 -0.9698  0.0586 -1.7378
    5MOL   H207 1255   4.085   2.468   3.058 -0.5533 -1.1737  0.3477
    5MOL   H208 1256   4.496   2.169   2.806  1.9313 -0.0422  0.4812
    5MOL   H209 1257   4.389   2.247   2.696 -0.4319  0.6732  1.6763
    5MOL   C210 1258   4.595   2.292   2.653  0.5561  0.0644 -0.4002
    5MOL   N211 1259   4.549   2.381   2.543  0.1392 -0.1982  0.4830
    5MOL   C212 1260   4.594   2.501   2.511  0.6115 -0.0558  1.3433
    5MOL   O213 1261   4.679   2.560   2.573  0.2697 -0.6436 -0.6420
    5MOL   C214 1262   4.530   2.556   2.382 -0.0631 -0.3003 -0.3064
    5MOL   C215 1263   4.655   2.163   2.584 -1.2083  0.0252 -0.9732
    5MOL   H216 1264   4.678   2.331   2.711  1.4718  0.3293 -1.8549
    5MOL   H217 1265   4.488   2.345   2.471  0.8928  0.0148 -0.2769
    5MOL   H218 1266   4.488   2.469   2.331  1.2343 -1.2274  0.1920
    5MOL   H219 1267   4.462   2.639   2.399  0.0756 -0.5975  1.7655
    5MOL   H220 1268   4.604   2.599   2.314  1.0300 -0.4663  0.7582
    5MOL   H221 1269   4.597   2.075   2.610 -1.5983  1.0714  1.8160
    5MOL   H222 1270   4.647   2.170   2.475 -2.8909 -1.3281 -0.9581
    5MOL   C223 1271   4.805   2.125   2.609  0.0537  0.4922 -0.2732
    5MOL   N224 1272   4.893   2.233   2.559 -0.3810 -0.2579 -0.4203
    5MOL   C225 1273   4.960   2.323   2.638 -0.6096 -0.7160 -0.2907
    5MOL   O226 1274   4.971   2.313   2.758  0.6900  0.5854  0.1845
    5MOL   C227 1275   5.027   2.438   2.565 -0.2782 -0.3389 -0.1919
    5MOL   C228 1276   4.852   1.999   2.537 -0.2023  0.4024 -0.0002
    5MOL   H229 1277   4.830   2.109   2.714  4.1226  0.7209 -1.1123
    5MOL   H230 1278   4.901   2.239   2.459 -0.2498  0.9255 -0.3458
    5MOL   H231 1279   4.955   2.471   2.490 -0.0753 -1.3153 -0.8223
    5MOL   H232 1280   5.036   2.521   2.635 -0.6781  0.0920 -0.6410
    5MOL   H233 1281   5.122   2.411   2.520  0.0631 -1.2481  1.0500
    5MOL   H234 1282   4.805   2.008   2.439 -1.8145  1.1548  0.8134
    5MOL   H235 1283   4.960   2.002   2.526 -0.3464  0.5130 -1.3915
    5MOL   C236 1284   4.811   1.862   2.599  0.2843 -0.0121 -0.1354
    5MOL   N237 1285   4.879   1.834   2.724 -0.6917  0.3646  0.0100
    5MOL   C238 1286   4.827   1.813   2.840  0.3781  0.1400  0.4406
    5MOL   O239 1287   4.707   1.803   2.862  0.2098 -0.2639 -0.1679
    5MOL   C240 1288   4.915   1.793   2.963 -0.3561  0.3166 -0.2489
    5MOL   C241 1289   4.828   1.737   2.507 -0.1124  0.4198 -0.0114
    5MOL   H242 1290   4.703   1.869   2.617  0.4595 -0.8023  1.3625
    5MOL   H243 1291   4.980   1.831   2.722 -0.7128 -2.8033  1.8280
    5MOL   H244 1292   5.023   1.807   2.959 -0.4543  1.8619  1.5887
    5MOL   H245 1293   4.880   1.846   3.052 -0.5096  1.2647 -0.8609
    5MOL   H246 1294   4.895   1.688   2.983 -1.5011  0.2968 -1.4362
    5MOL   H247 1295   4.935   1.733   2.489  0.1788  2.4245  1.1155
    5MOL   H248 1296   4.806   1.647   2.565  2.1408 -1.4946 -2.0047
    5MOL   C249 1297   4.755   1.738   2.370  0.3825  0.5867  0.3306
    5MOL   N250 1298   4.608   1.733   2.378 -0.4921 -0.1686 -0.7368
    5MOL   C251 1299   4.532   1.836   2.348  0.3852  0.3594  0.0234
    5MOL   O252 1300   4.567   1.941   2.296  0.2806 -0.0091  0.6544
    5MOL   C253 1301   4.393   1.826   2.398  0.3318 -0.5678 -0.1019
    5MOL   C254 1302   4.805   1.624   2.264 -0.4685  0.1529 -0.0865
    5MOL   H255 1303   4.787   1.831   2.323  1.3368  0.1236  0.0495
    5MOL   H256 1304   4.564   1.659   2.431  2.7440 -0.8644  1.1595
    5MOL   H257 1305   4.355   1.926   2.422 -0.9277 -1.0785  0.0578
    5MOL   H258 1306   4.323   1.799   2.319 -0.7661  2.4244 -0.2418
    5MOL   H259 1307   4.387   1.762   2.485  0.7452  0.0083  0.3574
    5MOL   H260 1308   4.736   1.621   2.180 -0.2562 -0.3744 -0.2408
    5MOL   H261 1309   4.903   1.651   2.223 -0.8465  1.4807 -0.1339
    5MOL   H262 1310   4.798   1.525   2.307  0.4008  0.0224 -0.2324
    6MOL     C1 1311   6.217   7.585   3.110  0.2762 -0.2476  0.0525
    6MOL     N2 1312   6.137   7.666   3.208  0.4458 -0.0082  0.1725
    6MOL     C3 1313   6.072   7.614   3.314  0.0898 -0.9620 -0.1128
    6MOL     O4 1314   6.075   7.497   3.347 -0.2629  0.3414  0.2436
    6MOL     C5 1315   5.989   7.710   3.405  0.1919  0.1392  0.1094
    6MOL     C6 1316   6.330   7.499   3.162  0.0661  0.1005  0.0180
    6MOL     H7 1317   6.152   7.521   3.051  2.6840 -2.6594 -0.0870
    6MOL     H8 1318   6.129   7.765   3.194 -1.9695 -0.1739  0.1282
    6MOL     H9 1319   6.025   7.809   3.380 -0.3718  1.1296  3.0001
    6MOL    H10 1320   5.882   7.706   3.385  0.1049  0.1179  0.5570
    6MOL    H11 1321   6.014   7.688   3.509 -0.8281  0.4867  0.4384
    6MOL    H12 1322   6.403   7.569   3.202  0.1121 -1.0659  2.0070
    6MOL    H13 1323   6.297   7.447   3.251 -0.3184  0.6490  0.1955
    6MOL    H14 1324   6.273   7.650   3.042  0.4083 -0.0053  0.3944
    6MOL    C15 1325   6.407   7.415   3.060 -0.3894  0.8000  0.3605
    6MOL    N16 1326   6.517   7.340   3.126  0.1893 -0.3628  0.4599
    6MOL    C17 1327   6.523   7.212   3.163 -0.6001 -0.4803  0.3893
    6MOL    O18 1328   6.435   7.128   3.128 -0.4947 -0.4489  0.2893
    6MOL    C19 1329   6.627   7.173   3.270 -0.1777  0.2221 -0.1203
    6MOL    C20 1330   6.461   7.498   2.938  0.0220 -0.0114  0.6366
    6MOL    H21 1331   6.330   7.353   3.014  0.6143  0.8249 -1.3790
    6MOL    H22 1332   6.595   7.398   3.150  0.9177 -1.4946  0.8925
    6MOL    H23 1333   6.683   7.260   3.303  0.7459 -0.2892 -0.3322
    6MOL    H24 1334   6.595   7.118   3.358  0.0471 -0.0802 -0.2259
    6MOL    H25 1335   6.700   7.106   3.225  1.0190  2.4655 -1.6046
    6MOL    H26 1336   6.498   7.589   2.984  0.3346  0.3687 -0.3559
    6MOL    H27 1337   6.542   7.441   2.893 -1.2503  0.0172 -1.7832
    6MOL    C28 1338   6.370   7.543   2.817  0.3687  0.0940  0.3121
    6MOL    N29 1339   6.300   7.431   2.762 -0.4549 -0.0216 -0.5350
    6MOL    C30 1340   6.178   7.435   2.706 -0.2535 -0.2385 -0.2224
    6MOL    O31 1341   6.109   7.535   2.700  0.0980 -0.4071  0.4358
    6MOL    C32 1342   6.115   7.309   2.656  0.2497 -0.6343 -0.1543
    6MOL    C33 1343   6.452   7.586   2.691  0.5605 -0.4683 -0.0427
    6MOL    H34 1344   6.300   7.624   2.839  0.8184  1.0490 -1.7441
    6MOL    H35 1345   6.343   7.339   2.763 -2.7213 -1.1320  0.8925
    6MOL    H36 1346   6.083   7.314   2.551  0.1123  1.0508 -0.0393
    6MOL    H37 1347   6.186   7.227   2.666  2.5024  1.0747 -1.4745
    6MOL    H38 1348   6.022   7.281   2.704 -0.7618  2.3432 -0.3077
    6MOL    H39 1349   6.513   7.499   2.666  0.4139 -0.6891  0.3625
    6MOL    H40 1350   6.389   7.609   2.605  0.7855 -0.6213 -0.2506
    6MOL    C41 1351   6.542   7.711   2.722 -0.4987  0.1915  0.4883
    6MOL    N42 1352   6.474   7.839   2.727  0.3195  0.2879 -0.0415
    6MOL    C43 1353   6.454   0.084   2.827  0.4084 -0.2182 -0.4111
    6MOL    O44 1354   6.485   0.061   2.942 -0.8776 -0.1977  0.0138
    6MOL    C45 1355   6.397   0.222   2.788  0.2231  1.0107 -0.2094
    6MOL    C46 1356   6.650   7.729   2.613 -0.2835  0.0854  0.2126
    6MOL    H47 1357   6.606   7.684   2.807  0.1739 -0.8149 -0.3090
    6MOL    H48 1358   6.441   0.032   2.637 -1.7526  0.1702  0.6580
    6MOL    H49 1359   6.314   0.210   2.718 -1.6172  1.5509  1.8342
    6MOL    H50 1360   6.358   0.259   2.883  1.3532 -1.8257  1.4141
    6MOL    H51 1361   6.481   0.281   2.751  0.7397 -0.4243 -1.3593
    6MOL    H52 1362   6.590   7.739   2.523  1.5743  2.8662 -0.8054
    6MOL    H53 1363   6.699   7.824   2.637  2.2170 -0.9861 -0.4768
    6MOL    C54 1364   6.757   7.620   2.569  0.6223 -0.2591  0.8785
    6MOL    N55 1365   6.849   7.597   2.676  0.2803 -0.2910  0.3080
    6MOL    C56 1366   6.868   7.479   2.736  0.0899 -0.1036 -0.8235
    6MOL    O57 1367   6.785   7.384   2.734 -0.1014 -0.2930  0.2134
    6MOL    C58 1368   6.990   7.456   2.821 -0.8017 -0.4194 -0.2413
    6MOL    C59 1369   6.836   7.656   2.436 -0.0468  0.2296 -0.0858
    6MOL    H60 1370   6.716   7.519   2.560 -2.9797  1.0600  1.9621
    6MOL    H61 1371   6.922   7.666   2.676  1.8124 -1.8708 -1.9316
    6MOL    H62 1372   7.047   7.548   2.839  1.3010 -1.9161  0.9309
    6MOL    H63 1373   6.961   7.416   2.918  0.1498  0.1012  0.2708
    6MOL    H64 1374   7.064   7.388   2.779  0.9570  0.4853  1.3208
    6MOL    H65 1375   6.806   7.755   2.400  1.3573  0.5528 -0.3801
    6MOL    H66 1376   6.941   7.668   2.458 -0.2034 -1.5898  1.7980
    6MOL    C67 1377   6.803   7.553   2.326  0.0817 -0.1329  0.3699
    6MOL    N68 1378   6.891   7.573   2.209 -0.2851 -0.0458 -0.1414
    6MOL    C69 1379   6.893   7.666   2.119 -0.3084 -0.6456 -1.2352
    6MOL    O70 1380   6.809   7.756   2.118  0.1013 -0.0903 -0.1363
    6MOL    C71 1381   6.999   7.658   2.010  0.2325  0.1498 -0.2421
    6MOL    C72 1382   6.654   7.537   2.280 -0.2229  0.2865 -0.2010
    6MOL    H73 1383   6.838   7.452   2.347  2.3708  0.2682 -1.2989
    6MOL    H74 1384   6.970   7.510   2.204 -0.7566 -0.7692  1.2156
    6MOL    H75 1385   7.082   7.719   2.045  0.0521  1.1538 -1.5143
    6MOL    H76 1386   7.040   7.559   1.991  0.3892  0.2606 -0.4836
    6MOL    H77 1387   6.955   7.704   1.921  0.5899  1.3483  0.1881
    6MOL    H78 1388   6.591   7.545   2.369  1.5445  2.7653  0.9239
    6MOL    H79 1389   6.621   7.623   2.222  1.2090  0.9526 -0.0589
    6MOL    C80 1390   6.607   7.429   2.176 -0.0125  0.3504 -0.4649
    6MOL    N81 1391   6.467   7.394   2.199 -0.2971 -0.4983  0.4164
    6MOL    C82 1392   6.409   7.355   2.311 -0.2030 -0.3714 -0.2093
    6MOL    O83 1393   6.468   7.334   2.415  0.0410 -0.0788  0.2922
    6MOL    C84 1394   6.264   7.325   2.298  0.7495  0.3915 -0.0092
    6MOL    C85 1395   6.701   7.317   2.152 -0.9955 -0.3551  0.3439
    6MOL    H86 1396   6.604   7.482   2.081  0.4965 -0.2905 -0.8365
    6MOL    H87 1397   6.404   7.390   2.121 -0.4095  0.6085  0.4482
    6MOL    H88 1398   6.238   7.256   2.219  2.5874 -0.1584 -0.1405
    6MOL    H89 1399   6.222   7.282   2.389  1.6586 -0.0086  0.2227
    6MOL    H90 1400   6.202   7.413   2.279 -2.2924 -1.7592 -0.3267
    6MOL    H91 1401   6.797   7.365   2.134 -2.0009  1.2069 -0.9715
    6MOL    H92 1402   6.723   7.257   2.241  3.9353 -0.9723 -1.1101
    6MOL    C93 1403   6.687   7.226   2.026 -0.4771  0.5167  0.4068
    6MOL    N94 1404   6.658   7.303   1.906 -0.3440 -0.7588  0.0250
    6MOL    C95 1405   6.749   7.372   1.838 -1.1222  0.0745  0.1327
    6MOL    O96 1406   6.870   7.365   1.866  0.1702 -0.2899 -0.1354
    6MOL    C97 1407   6.698   7.460   1.722 -0.5802  0.2040  0.8119
    6MOL    C98 1408   6.583   7.113   2.038 -0.4485  0.2296  0.2449
    6MOL    H99 1409   6.788   7.186   2.013 -1.0765 -1.1571  0.7082
    6MOL   H100 1410   6.563   7.334   1.893 -0.6863 -1.3521  1.0591
    6MOL   H101 1411   6.774   7.457   1.644 -2.8871 -0.6750 -1.4769
    6MOL   H102 1412   6.609   7.424   1.670  0.2656  1.7953 -1.8025
    6MOL   H103 1413   6.685   7.564   1.751 -0.3024 -0.3606  3.0607
    6MOL   H104 1414   6.489   7.165   2.018 -1.1694 -1.0672  0.1718
    6MOL   H105 1415   6.581   7.045   1.953  2.2605  0.2940  0.0756
    6MOL   C106 1416   6.579   7.033   2.173  0.1199 -0.1094  0.8703
    6MOL   N107 1417   6.699   6.966   2.206  0.3834  0.8831  0.5990
    6MOL   C108 1418   6.776   6.897   2.129 -0.3968 -0.0319  0.2173
    6MOL   O109 1419   6.740   6.852   2.018  0.5020 -0.2978  0.1291
    6MOL   C110 1420   6.902   6.847   2.185  0.3261  0.9715  0.0445
    6MOL   C111 1421   6.464   6.934   2.194  0.4428 -0.3497 -0.2807
    6MOL   H112 1422   6.571   7.106   2.253 -2.5794  0.0680  0.4938
    6MOL   H113 1423   6.728   6.967   2.303  0.3325 -4.2718  0.8137
    6MOL   H114 1424   6.988   6.891   2.135  1.6732 -1.0838  0.5296
    6MOL   H115 1425   6.903   6.878   2.290 -2.0581  0.8312  0.1471
    6MOL   H116 1426   6.920   6.740   2.189 -0.3366  0.9049  1.8019
    6MOL   H117 1427   6.370   6.983   2.171 -0.3682 -1.0882  1.3817
    6MOL   H118 1428   6.463   6.859   2.115  0.8437  0.7467 -1.3428
    6MOL   C119 1429   6.441   6.875   2.334  0.2672  0.4254 -0.2416
    6MOL   N120 1430   6.480   6.973   2.435  0.2626  0.4755 -0.1678
    6MOL   C121 1431   6.412   7.007   2.543 -0.2870 -0.3886  0.0910
    6MOL   O122 1432   6.306   6.958   2.576  0.3726 -0.2839 -0.2696
    6MOL   C123 1433   6.478   7.107   2.637  0.0743 -0.6009 -0.1309
    6MOL   C124 1434   6.514   6.736   2.353 -1.0406 -0.2152  0.2471
    6MOL   H125 1435   6.333   6.866   2.326  0.2350 -0.2045  0.8551
    6MOL   H126 1436   6.576   7.006   2.434  0.6917 -0.6026  1.8272
    6MOL   H127 1437   6.513   7.062   2.730  0.6942 -1.6897 -0.8760
    6MOL   H128 1438   6.560   7.152   2.581  0.0068 -1.8292 -1.2356
    6MOL   H129 1439   6.401   7.180   2.661  0.3888 -0.1333 -0.5280
    6MOL   H130 1440   6.470   6.675   2.273  0.6278  0.1769 -0.9774
    6MOL   H131 1441   6.620   6.738   2.329 -0.7938 -1.9833  1.0645
    6MOL   C132 1442   6.469   6.662   2.485  0.1683 -0.3687  0.0802
    6MOL   N133 1443   6.325   6.689   2.497  0.8277  0.0433 -0.0051
    6MOL   C134 1444   6.230   6.610   2.448 -0.3295  0.2909  0.0356
    6MOL   O135 1445   6.256   6.501   2.401 -0.3972 -0.0584  0.0791
    6MOL   C136 1446   6.088   6.665   2.455 -0.6600  0.3773  0.0521
    6MOL   C137 1447   6.543   6.679   2.616  0.2820  0.2136  0.7022
    6MOL   H138 1448   6.476   6.554   2.468 -1.0918 -0.2676 -1.2361
    6MOL   H139 1449   6.301   6.780   2.534  1.1233  0.5606 -1.0651
    6MOL   H140 1450   6.079   6.749   2.386 -1.6590 -1.3162 -1.9284
    6MOL   H141 1451   6.011   6.590   2.436  0.7470 -0.9455 -0.5072
    6MOL   H142 1452   6.078   6.703   2.557 -1.5171 -1.8968  0.8460
    6MOL   H143 1453   6.552   6.781   2.654  0.2877 -0.3130  2.1322
    6MOL   H144 1454   6.491   6.622   2.694  1.2001 -0.9932  0.4459
    6MOL   C145 1455   6.686   6.617   2.621 -0.8914 -0.3887  0.6661
    6MOL   N146 1456   6.707   6.553   2.745  0.0310  0.0318  0.0930
    6MOL   C147 1457   6.796   6.457   2.769  0.1192  0.4952 -0.5072
    6MOL   O148 1458   6.865   6.397   2.682 -0.2210 -0.6000 -0.2120
    6MOL   C149 1459   6.819   6.405   2.909 -0.3836  0.3462 -0.1128
    6MOL   C150 1460   6.806   6.718   2.596  0.4709  0.2850  0.3102
    6MOL   H151 1461   6.689   6.540   2.544  4.1412  1.0625 -0.8113
    6MOL   H152 1462   6.631   6.575   2.808  0.9269 -1.9148  1.9020
    6MOL   H153 1463   6.722   6.375   2.949  0.1439  0.1371  1.0173
    6MOL   H154 1464   6.872   6.311   2.895 -0.6975 -0.1809  2.1736
    6MOL   H155 1465   6.890   6.458   2.972  0.4304 -1.0254  0.1221
    6MOL   H156 1466   6.899   6.664   2.577  1.0457  1.6832 -0.9100
    6MOL   H157 1467   6.776   6.761   2.500  1.6795  0.2416 -0.1069
    6MOL   C158 1468   6.836   6.831   2.698 -0.2216  0.4105 -0.8194
    6MOL   N159 1469   6.913   6.938   2.637  0.3559 -0.1958 -0.0432
    6MOL   C160 1470   6.877   7.028   2.546 -0.2499  0.3641  0.0676
    6MOL   O161 1471   6.764   7.025   2.492 -0.0604  0.2750 -0.3299
    6MOL   C162 1472   6.981   7.119   2.489 -0.0275  0.6093 -0.1372
    6MOL   C163 1473   6.910   6.786   2.823 -0.6983 -0.4604 -0.2292
    6MOL   H164 1474   6.742   6.871   2.736  0.0836 -1.6298  2.3263
    6MOL   H165 1475   7.008   6.943   2.672 -0.0194  0.2168  0.9040
    6MOL   H166 1476   6.999   7.192   2.568  1.6272 -0.4986  0.5330
    6MOL   H167 1477   7.072   7.069   2.458 -1.0022  0.5964 -3.1608
    6MOL   H168 1478   6.944   7.179   2.406  1.0817  1.9760  0.3312
    6MOL   H169 1479   6.874   6.693   2.867 -0.1735 -0.6079 -0.1091
    6MOL   H170 1480   7.003   6.736   2.795 -1.9061 -3.5174  0.9397
    6MOL   C171 1481   6.953   6.889   2.924 -0.4240  0.9663  0.0798
    6MOL   N172 1482   7.054   6.836   3.021 -0.0120  0.1913  0.1501
    6MOL   C173 1483   7.118   6.915   3.103  0.0028  0.1577  0.1023
    6MOL   O174 1484   7.112   7.036   3.105  0.6636  0.5165 -0.2485
    6MOL   C175 1485   7.225   6.850   3.187  0.4594 -0.5663  0.0466
    6MOL   C176 1486   6.826   6.950   3.000 -0.2673 -0.3252  0.3193
    6MOL   H177 1487   6.996   6.977   2.875  0.6166  0.1032 -0.5694
    6MOL   H178 1488   7.070   6.737   3.030  0.6536  0.3145  0.3649
    6MOL   H179 1489   7.290   6.794   3.120  0.1871  1.0488 -1.6277
    6MOL   H180 1490   7.302   6.917   3.223 -0.5091  0.0284  1.0461
    6MOL   H181 1491   7.188   6.805   3.279  1.1598  0.8537  1.0452
    6MOL   H182 1492   6.852   7.035   3.063 -1.7851 -0.8586  1.6794
    6MOL   H183 1493   6.759   6.985   2.921  0.4684 -1.2222 -0.7156
    6MOL   C184 1494   6.731   6.855   3.073  0.0316  0.2041  0.5883
    6MOL   N185 1495   6.588   6.877   3.041 -0.0592  0.0224  0.0561
    6MOL   C186 1496   6.505   6.798   2.965  0.0668  0.6563  0.1161
    6MOL   O187 1497   6.543   6.688   2.922  0.4893 -0.2207 -0.1243
    6MOL   C188 1498   6.359   6.843   2.951  0.3168  0.4385 -0.1512
    6MOL   C189 1499   6.742   6.847   3.222 -0.1049  0.1774 -0.7330
    6MOL   H190 1500   6.751   6.756   3.030  0.3840  0.6641 -0.3101
    6MOL   H191 1501   6.559   6.971   3.062 -1.4521 -0.5387  0.6715
    6MOL   H192 1502   6.305   6.797   3.034  0.8751 -1.7937 -0.9997
    6MOL   H193 1503   6.342   6.950   2.936 -0.7623 -0.0725 -2.7897
    6MOL   H194 1504   6.322   6.795   2.861  2.7707  0.6751 -1.3306
    6MOL   H195 1505   6.821   6.916   3.253  0.2890 -0.0666 -1.1827
    6MOL   H196 1506   6.648   6.870   3.272  1.0561  0.7453  1.2721
    6MOL   C197 1507   6.793   6.711   3.280 -0.1658  0.7298 -0.0884
    6MOL   N198 1508   6.732   6.586   3.236 -0.2459 -0.1123 -0.6394
    6MOL   C199 1509   6.602   6.555   3.238  0.2782  0.6491 -0.9528
    6MOL   O200 1510   6.513   6.622   3.287  0.1992  0.6030 -0.2824
    6MOL   C201 1511   6.563   6.410   3.196 -0.4514  0.1936  0.0124
    6MOL   C202 1512   6.797   6.706   3.438  0.1555  0.0033  0.5052
    6MOL   H203 1513   6.896   6.706   3.247 -0.3178 -1.8522 -0.2074
    6MOL   H204 1514   6.793   6.527   3.182  0.9085 -0.3043  0.8309
    6MOL   H205 1515   6.481   6.363   3.252 -0.9384  2.3529  1.1590
    6MOL   H206 1516   6.517   6.424   3.098  0.7782  1.2994 -0.4095
    6MOL   H207 1517   6.637   6.336   3.166  0.4583  0.9059  0.4720
    6MOL   H208 1518   6.694   6.724   3.468  0.7701  1.1026  2.0495
    6MOL   H209 1519   6.820   6.604   3.470 -0.5645 -0.2650  0.1721
    6MOL   C210 1520   6.907   6.799   3.496  0.6773  0.6180 -0.1706
    6MOL   N211 1521   6.973   6.737   3.605 -0.3118 -0.0876  0.2572
    6MOL   C212 1522   7.105   6.721   3.613  0.5067  0.2559 -0.0000
    6MOL   O213 1523   7.191   6.767   3.535  0.3552 -0.0919  0.0453
    6MOL   C214 1524   7.147   6.655   3.742 -0.2280 -0.6430  1.4500
    6MOL   C215 1525   6.836   6.924   3.550 -0.6110 -0.5550  0.0977
    6MOL   H216 1526   6.985   6.810   3.420 -1.2790 -1.8608 -2.6253
    6MOL   H217 1527   6.915   6.705   3.681  0.7738  1.5508  1.8340
    6MOL   H218 1528   7.141   6.719   3.830 -1.9537  1.0989  0.1088
    6MOL   H219 1529   7.089   6.563   3.758 -3.4535  1.3633  1.6694
    6MOL   H220 1530   7.253   6.630   3.729  0.0993  0.5432  1.7883
    6MOL   H221 1531   6.767   6.963   3.476 -0.5871 -2.1357 -0.7864
    6MOL   H222 1532   6.780   6.895   3.639 -1.7447 -0.2638 -0.5134
    6MOL   C223 1533   6.929   7.036   3.592 -0.6651 -0.6063  0.4623
    6MOL   N224 1534   6.867   7.118   3.700  0.8297  0.5231 -0.4411
    6MOL   C225 1535   6.918   7.151   3.823  0.3333 -0.3289 -0.0799
    6MOL   O226 1536   7.024   7.111   3.872  0.3696 -0.2492  0.3804
    6MOL   C227 1537   6.826   7.249   3.897  0.1063  0.3087  0.3502
    6MOL   C228 1538   6.962   7.129   3.478  0.4035 -0.7422  0.1868
    6MOL   H229 1539   7.015   6.992   3.642  0.0901  2.2361  1.7280
    6MOL   H230 1540   6.780   7.164   3.678 -0.1398 -1.9434 -1.9401
    6MOL   H231 1541   6.723   7.213   3.898  0.8183 -1.8436 -0.3194
    6MOL   H232 1542   6.864   7.257   4.000  0.6242 -1.7428  0.3382
    6MOL   H233 1543   6.825   7.343   3.843  0.4563  0.2699  0.2761
    6MOL   H234 1544   7.014   7.074   3.400  0.6928 -0.9083  0.4986
    6MOL   H235 1545   6.874   7.171   3.430 -0.5796 -1.9036  0.9411
    6MOL   C236 1546   7.066   7.237   3.504 -0.0381  0.6983 -0.0694
    6MOL   N237 1547   7.002   7.361   3.556 -0.6687  0.2331 -0.2572
    6MOL   C238 1548   7.048   7.456   3.640 -0.4928 -0.5888 -0.2249
    6MOL   O239 1549   7.169   7.456   3.682  0.1790 -0.4711 -0.6277
    6MOL   C240 1550   6.958   7.574   3.670 -0.0325  0.3714 -0.3313
    6MOL   C241 1551   7.143   7.275   3.374 -0.1301  0.2643 -0.0795
    6MOL   H242 1552   7.145   7.194   3.566  0.6969 -1.4060 -2.3780
    6MOL   H243 1553   6.906   7.368   3.524 -1.6170 -2.0158  1.9689
    6MOL   H244 1554   7.016   7.635   3.739 -0.9660 -1.0523  1.7724
    6MOL   H245 1555   6.943   7.636   3.582 -1.0891 -0.5619 -0.8356
    6MOL   H246 1556   6.859   7.552   3.711 -0.5501  4.0703  0.5378
    6MOL   H247 1557   7.196   7.188   3.336 -0.6388  0.6854 -1.7853
    6MOL   H248 1558   7.076   7.308   3.294 -1.1676  0.0055  0.6676
    6MOL   C249 1559   7.260   7.371   3.382 -0.6940 -0.7394 -0.3445
    6MOL   N250 1560   7.313   7.400   3.241 -0.7514  0.0306 -0.4711
    6MOL   C251 1561   7.289   7.512   3.165 -0.1467 -0.2313 -0.4077
    6MOL   O252 1562   7.208   7.601   3.200  0.1652 -0.4904  0.2300
    6MOL   C253 1563   7.353   7.520   3.023 -0.0917 -0.5459 -0.2893
    6MOL   C254 1564   7.376   7.317   3.464  0.4121 -0.8631 -0.3506
    6MOL   H255 1565   7.219   7.459   3.432  0.7089 -0.4045  0.2292
    6MOL   H256 1566   7.382   7.336   3.203 -1.1577 -0.0658 -1.0467
    6MOL   H257 1567   7.399   7.426   2.992 -4.3975 -2.3790 -1.5425
    6MOL   H258 1568   7.281   7.537   2.943  1.6736  0.6743 -1.6471
    6MOL   H259 1569   7.421   7.602   3.003 -2.8574  1.6994 -0.9163
    6MOL   H260 1570   7.462   7.384   3.475 -0.7442  0.5250  0.4708
    6MOL   H261 1571   7.338   7.299   3.565  0.2821 -1.0514 -0.4348
    6MOL   H262 1572   7.401   7.220   3.421 -1.8643 -1.0555 -1.3169
    7MOL     C1 1573   1.276   5.489   7.805  0.6036 -0.0401  0.1962
    7MOL     N2 1574   1.348   5.554   7.693  0.9670 -0.2596  0.3879
    7MOL     C3 1575   1.446   5.644   7.687  0.0015 -0.0200  0.1487
    7MOL     O4 1576   1.483   5.718   7.781 -0.0627 -0.1029 -0.0409
    7MOL     C5 1577   1.508   5.647   7.549  0.2252  0.3118 -0.2947
    7MOL     C6 1578   1.299   5.333   7.814 -0.0707 -0.0848 -0.0371
    7MOL     H7 1579   1.309   5.534   0.059 -4.9311  1.0252  1.8175
    7MOL     H8 1580   1.323   5.527   7.599  0.0684  1.9331 -0.0335
    7MOL     H9 1581   1.443   5.705   7.483 -1.0765 -0.0998  0.6123
    7MOL    H10 1582   1.605   5.695   7.558 -0.8696  2.4787  0.3940
    7MOL    H11 1583   1.521   5.547   7.508 -0.0368 -0.7027  2.0153
    7MOL    H12 1584   1.258   5.299   7.718  2.6674 -0.3700 -1.1707
    7MOL    H13 1585   1.405   5.306   7.805 -0.6093 -2.2358 -0.2379
    7MOL    H14 1586   1.170   5.512   7.799  0.4645 -0.7087  0.1405
    7MOL    C15 1587   1.228   5.271   0.101  0.1402  0.0963  0.3897
    7MOL    N16 1588   1.301   5.308   0.219  0.1347  0.4435 -0.4589
    7MOL    C17 1589   1.284   5.410   0.300 -0.6234  0.2146 -0.0179
    7MOL    O18 1590   1.187   5.487   0.302 -0.0922  0.2252 -0.0011
    7MOL    C19 1591   1.398   5.445   0.394 -0.0025  0.6080  0.1023
    7MOL    C20 1592   1.239   5.115   0.088  0.1648  1.2604  0.2702
    7MOL    H21 1593   1.121   5.293   0.106  0.7180  2.9968  0.5468
    7MOL    H22 1594   1.386   5.254   0.227 -1.1676 -1.5921 -0.0526
    7MOL    H23 1595   1.439   5.357   0.445  1.1307  0.2778 -1.3577
    7MOL    H24 1596   1.484   5.475   0.335 -0.8036 -0.1322 -1.4777
    7MOL    H25 1597   1.366   5.512   0.473  0.9761 -0.6041  1.5608
    7MOL    H26 1598   1.190   5.084   7.836 -2.7050  0.5982  1.9911
    7MOL    H27 1599   1.343   5.082   0.078 -0.2307  0.2400 -0.6458
    7MOL    C28 1600   1.197   5.019   0.207 -0.4930  0.0929  0.0993
    7MOL    N29 1601   1.205   4.878   0.163 -0.2025 -0.7218  0.3387
    7MOL    C30 1602   1.297   4.789   0.206 -0.1249 -0.2275  0.3118
    7MOL    O31 1603   1.386   4.825   0.284 -0.0234 -0.7154 -0.0611
    7MOL    C32 1604   1.291   4.641   0.161  0.2479  0.6100 -0.2266
    7MOL    C33 1605   1.064   5.057   0.272  0.0144 -0.0018  0.4186
    7MOL    H34 1606   1.264   5.043   0.289 -1.7267  1.2460  0.8003
    7MOL    H35 1607   1.127   4.840   0.112  0.7113 -0.8683 -0.9753
    7MOL    H36 1608   1.366   4.589   0.221 -1.8413 -2.2277  0.0013
    7MOL    H37 1609   1.203   4.588   0.196  0.6372 -0.0212 -0.1960
    7MOL    H38 1610   1.310   4.620   0.055  0.1806  0.9085 -0.2976
    7MOL    H39 1611   1.069   5.008   0.369 -1.1991  0.1156  0.5582
    7MOL    H40 1612   1.065   5.161   0.306 -0.3106 -0.1420  0.8588
    7MOL    C41 1613   0.937   5.025   0.192  0.4106  0.0264  0.0301
    7MOL    N42 1614   0.887   5.139   0.120 -0.1130  0.1572 -0.1528
    7MOL    C43 1615   0.893   5.162   7.831  0.1436  0.6208  0.1128
    7MOL    O44 1616   0.941   5.078   7.752  0.3418 -0.5136 -0.2937
    7MOL    C45 1617   0.834   5.291   7.782  0.7425 -0.6785  0.3707
    7MOL    C46 1618   0.819   4.975   0.275  0.3745 -0.1859  0.2461
    7MOL    H47 1619   0.966   4.954   0.115  1.7586  1.0084 -0.3825
    7MOL    H48 1620   0.858   5.202   0.194  0.0403 -1.3558  1.2205
    7MOL    H49 1621   0.751   5.318   0.008  0.8388  1.7490 -0.4433
    7MOL    H50 1622   0.911   5.367   7.767 -0.5903  0.5092 -0.6123
    7MOL    H51 1623   0.792   5.265   7.685 -0.0138  2.0105 -0.0821
    7MOL    H52 1624   0.833   5.028   0.369 -0.1045 -0.9413  0.7413
    7MOL    H53 1625   0.724   5.020   0.244  0.1452 -0.4004  0.6364
    7MOL    C54 1626   0.805   4.821   0.292  0.5457  0.6152 -0.7769
    7MOL    N55 1627   0.765   4.770   0.164  0.0662  0.0719 -0.6604
    7MOL    C56 1628   0.838   4.720   0.067  0.4528 -0.4568  0.9566
    7MOL    O57 1629   0.963   4.712   0.078  0.2062 -0.4234 -0.2232
    7MOL    C58 1630   0.756   4.682   7.787 -0.4642 -0.5850  0.1382
    7MOL    C59 1631   0.708   4.776   0.402  0.5441  0.7404 -0.1701
    7MOL    H60 1632   0.906   4.785   0.312  1.6523  1.1901 -4.7777
    7MOL    H61 1633   0.670   4.797   0.143  0.5093  1.5403 -0.8171
    7MOL    H62 1634   0.692   4.766   7.758  1.9514  2.0946  2.2783
    7MOL    H63 1635   0.815   4.642   7.705  1.0078 -1.1547  1.4482
    7MOL    H64 1636   0.686   4.600   7.807 -1.0438  0.1382  1.1518
    7MOL    H65 1637   0.619   4.839   0.398  0.8411  1.1625 -0.1325
    7MOL    H66 1638   0.666   4.681   0.370  1.2782  0.0253  0.9593
    7MOL    C67 1639   0.766   4.759   0.543  0.7241 -0.1098 -0.3248
    7MOL    N68 1640   0.849   4.640   0.550 -0.3514  0.2444  0.3044
    7MOL    C69 1641   0.976   4.631   0.589 -0.1650  0.0898  0.2260
    7MOL    O70 1642   1.052   4.727   0.616  0.0513  0.1612  0.1585
    7MOL    C71 1643   1.048   4.496   0.603  0.8031 -1.0241  0.1451
    7MOL    C72 1644   0.644   4.751   0.644  0.1336 -0.6510 -0.1303
    7MOL    H73 1645   0.827   4.844   0.575 -0.4025 -0.4196  2.7900
    7MOL    H74 1646   0.806   4.552   0.524  0.4266  0.2550 -1.0659
    7MOL    H75 1647   0.988   4.416   0.647 -2.0140  1.0324  0.1286
    7MOL    H76 1648   1.072   4.448   0.508  1.7667  2.1911 -1.3128
    7MOL    H77 1649   1.137   4.502   0.666  0.9956  1.6572 -0.3447
    7MOL    H78 1650   0.633   4.854   0.679  2.5459  0.4636 -2.4364
    7MOL    H79 1651   0.551   4.742   0.590  1.6825 -1.0983 -2.8003
    7MOL    C80 1652   0.650   4.662   0.772  0.1889  0.0182  0.5904
    7MOL    N81 1653   0.756   4.709   0.859 -0.4660  0.4493 -0.1580
    7MOL    C82 1654   0.746   4.812   0.946  0.1170  0.1478  0.3725
    7MOL    O83 1655   0.640   4.872   0.962  0.2467  0.1211  0.3593
    7MOL    C84 1656   0.877   4.863   1.007  0.3310  0.0837 -0.5445
    7MOL    C85 1657   0.662   4.508   0.751 -0.0669 -0.2419  0.8516
    7MOL    H86 1658   0.557   4.680   0.824  0.8595  2.2170  1.0719
    7MOL    H87 1659   0.839   4.652   0.857 -0.5756  0.2724  0.4276
    7MOL    H88 1660   0.924   4.789   1.072  0.2048  0.3574 -0.1363
    7MOL    H89 1661   0.949   4.871   0.926 -1.0945  0.5503 -1.7969
    7MOL    H90 1662   0.880   4.961   1.055  1.1263 -0.0440 -0.3248
    7MOL    H91 1663   0.759   4.484   0.708 -0.5840 -1.7773  0.5295
    7MOL    H92 1664   0.643   4.448   0.840 -0.9907 -0.2951  0.6223
    7MOL    C93 1665   0.564   4.456   0.642 -0.4364  0.0408 -0.0067
    7MOL    N94 1666   0.427   4.510   0.648 -0.2702  0.5321  0.2432
    7MOL    C95 1667   0.358   4.531   0.535  0.4500  0.3309  0.3521
    7MOL    O96 1668   0.384   4.485   0.425 -0.0977  0.2160  0.7367
    7MOL    C97 1669   0.234   4.620   0.543  0.1280  0.2536 -0.2945
    7MOL    C98 1670   0.567   4.300   0.641 -0.3325  0.1681 -0.1236
    7MOL    H99 1671   0.599   4.491   0.545 -1.0052  1.1574  0.1875
    7MOL   H100 1672   0.389   4.545   0.734  0.5608 -1.5776  1.5075
    7MOL   H101 1673   0.142   4.579   0.501  0.2126 -0.4832  0.2431
    7MOL   H102 1674   0.207   4.648   0.645 -0.8433 -1.8347  0.0314
    7MOL   H103 1675   0.247   4.717   0.493  0.7896  0.9848  1.2654
    7MOL   H104 1676   0.557   4.262   0.742  0.0605  1.1550  0.2966
    7MOL   H105 1677   0.472   4.268   0.596 -0.6552  2.8304 -1.4582
    7MOL   C106 1678   0.688   4.234   0.574  0.2143 -0.0780 -0.8908
    7MOL   N107 1679   0.688   4.282   0.432 -0.1168  0.0961  0.3334
    7MOL   C108 1680   0.794   4.301   0.351 -0.3227 -0.2541 -0.3717
    7MOL   O109 1681   0.910   4.266   0.384 -0.0529  0.0797  0.5151
    7MOL   C110 1682   0.769   4.366   0.216  0.7318 -0.2302  0.3243
    7MOL   C111 1683   0.693   4.079   0.591  0.8620 -0.4891  0.1672
    7MOL   H112 1684   0.775   4.285   0.615 -1.2097  0.7541  1.1793
    7MOL   H113 1685   0.603   4.319   0.393  0.6963  0.8045 -0.7797
    7MOL   H114 1686   0.679   4.429   0.218  1.0528  0.2306  0.4420
    7MOL   H115 1687   0.851   4.436   0.200 -0.2445  0.5125 -1.5401
    7MOL   H116 1688   0.766   4.298   0.132  1.2553  0.5140 -0.3005
    7MOL   H117 1689   0.598   4.036   0.557  0.2534  0.4414  0.6488
    7MOL   H118 1690   0.772   4.048   0.523 -1.3570 -0.0627 -2.7172
    7MOL   C119 1691   0.721   4.032   0.737  0.3473 -0.5338 -0.0146
    7MOL   N120 1692   0.853   4.067   0.773 -0.3821  0.2019  0.1590
    7MOL   C121 1693   0.882   4.153   0.872  0.0324  0.1881 -0.0893
    7MOL   O122 1694   0.796   4.206   0.940 -0.2017  0.3485  0.0894
    7MOL   C123 1695   1.033   4.172   0.881 -0.0441  0.6910  0.6254
    7MOL   C124 1696   0.708   3.874   0.758 -0.4453 -0.0324 -0.4219
    7MOL   H125 1697   0.648   4.073   0.807 -0.4791 -2.0169  0.0092
    7MOL   H126 1698   0.926   4.032   0.714 -0.7071 -1.2220  0.5849
    7MOL   H127 1699   1.057   4.265   0.933 -1.0044  2.2749 -1.6341
    7MOL   H128 1700   1.088   4.088   0.922  1.9993 -0.3718 -3.9750
    7MOL   H129 1701   1.070   4.194   0.781 -1.2779  3.6613  0.7749
    7MOL   H130 1702   0.789   3.836   0.695 -0.2354  2.8203 -1.9576
    7MOL   H131 1703   0.728   3.848   0.862 -0.2583 -1.0318 -0.6981
    7MOL   C132 1704   0.569   3.815   0.721  0.0478  0.4209  0.5965
    7MOL   N133 1705   0.473   3.868   0.819  0.2144  0.6486  0.0850
    7MOL   C134 1706   0.367   3.948   0.788 -0.2477 -0.6050  0.2302
    7MOL   O135 1707   0.332   3.970   0.670 -0.1732  0.2722 -0.4133
    7MOL   C136 1708   0.283   4.011   0.905  0.3015  0.1201  0.3761
    7MOL   C137 1709   0.570   3.663   0.746  0.0940  0.0182 -0.5903
    7MOL   H138 1710   0.542   3.842   0.619  1.6266  2.5102  0.6977
    7MOL   H139 1711   0.496   3.865   0.917 -0.6769  2.6525  0.3798
    7MOL   H140 1712   0.333   3.988   0.999  1.8700  0.0180 -0.4673
    7MOL   H141 1713   0.280   4.119   0.888 -2.1552 -0.5012 -3.9017
    7MOL   H142 1714   0.182   3.971   0.899  1.1117 -1.9253 -0.1682
    7MOL   H143 1715   0.670   3.619   0.742  0.2832 -0.2830  4.1385
    7MOL   H144 1716   0.552   3.642   0.852  0.8400 -2.4220 -0.9328
    7MOL   C145 1717   0.469   3.581   0.663  1.0962 -0.5937 -0.6204
    7MOL   N146 1718   0.379   3.522   0.761  0.2066 -0.2037  0.0301
    7MOL   C147 1719   0.249   3.555   0.775 -0.2270  0.6110 -0.5519
    7MOL   O148 1720   0.200   3.635   0.704 -0.2260 -0.1067 -0.6627
    7MOL   C149 1721   0.166   3.461   0.864 -0.0005  0.3960  0.7667
    7MOL   C150 1722   0.537   3.460   0.589 -0.1314  0.4078 -0.1778
    7MOL   H151 1723   0.427   3.644   0.585  0.4036  0.2063  0.3840
    7MOL   H152 1724   0.421   3.439   0.801 -0.6527 -0.3779  0.5649
    7MOL   H153 1725   0.201   3.454   0.967  0.4187  2.0682  0.7484
    7MOL   H154 1726   0.064   3.495   0.882  0.2868  2.3459 -1.1670
    7MOL   H155 1727   0.161   3.363   0.818  1.3771  1.3594 -1.5094
    7MOL   H156 1728   0.597   3.416   0.669 -2.8007 -0.2131  1.5694
    7MOL   H157 1729   0.459   3.393   0.554  0.3678 -0.9732  1.2972
    7MOL   C158 1730   0.616   3.485   0.455  0.0618  0.1152  0.1626
    7MOL   N159 1731   0.669   3.355   0.420 -0.1917  0.4130  0.9120
    7MOL   C160 1732   0.623   3.267   0.329 -0.3943  0.3189 -0.2052
    7MOL   O161 1733   0.533   3.298   0.254  0.4895  0.2719 -0.4059
    7MOL   C162 1734   0.692   3.127   0.317 -0.9963 -0.5744  0.1288
    7MOL   C163 1735   0.727   3.595   0.439  0.0166 -0.1622 -0.3513
    7MOL   H164 1736   0.540   3.511   0.381 -0.9976  1.2975  1.6404
    7MOL   H165 1737   0.731   3.313   0.488  0.4671 -0.1524 -0.0306
    7MOL   H166 1738   0.711   3.101   0.213 -0.1498 -0.8000  0.3375
    7MOL   H167 1739   0.790   3.157   0.355 -1.6094  0.2229  1.1249
    7MOL   H168 1740   0.639   3.052   0.375 -2.4935 -0.5818 -1.2214
    7MOL   H169 1741   0.730   3.619   0.332  0.3097  0.6084 -0.1724
    7MOL   H170 1742   0.690   3.690   0.477  0.2692 -0.8468  1.6438
    7MOL   C171 1743   0.871   3.566   0.487  0.4623 -0.1830 -0.1386
    7MOL   N172 1744   0.875   3.533   0.635  0.4197  0.2266  0.9812
    7MOL   C173 1745   0.901   3.412   0.685 -0.2555 -0.5918 -0.1673
    7MOL   O174 1746   0.915   3.314   0.616  0.2207  0.0473 -0.1232
    7MOL   C175 1747   0.926   3.411   0.837 -0.1813  0.3845  1.3918
    7MOL   C176 1748   0.971   3.680   0.446 -0.3704 -0.5591 -0.5135
    7MOL   H177 1749   0.896   3.471   0.438  0.4099  0.1238 -0.7662
    7MOL   H178 1750   0.838   3.607   0.694  0.8303  0.4181  0.9967
    7MOL   H179 1751   1.019   3.464   0.857 -0.6825  1.6211  0.4358
    7MOL   H180 1752   0.840   3.465   0.877  0.7284  1.5625  1.7992
    7MOL   H181 1753   0.932   3.308   0.874  2.6105  0.0481  0.1371
    7MOL   H182 1754   0.989   3.665   0.339 -0.0776  0.7059 -0.6503
    7MOL   H183 1755   0.910   3.770   0.446  1.1772  0.5223  0.8490
    7MOL   C184 1756   1.094   3.713   0.531 -0.7375 -0.2583  0.6898
    7MOL   N185 1757   1.162   3.833   0.488 -0.3564  0.3480 -0.4538
    7MOL   C186 1758   1.139   3.950   0.550 -0.5308 -0.5303  0.3807
    7MOL   O187 1759   1.046   3.964   0.627  0.4900  0.2535  0.0417
    7MOL   C188 1760   1.242   4.066   0.540  0.1759  0.1735 -0.1848
    7MOL   C189 1761   1.193   3.593   0.526  0.4649  0.0075 -0.1803
    7MOL   H190 1762   1.063   3.720   0.635 -0.2109 -0.4439  0.8624
    7MOL   H191 1763   1.245   3.820   0.432 -0.2190  1.9429 -0.6542
    7MOL   H192 1764   1.207   4.121   0.627 -1.2798 -1.4787  0.3250
    7MOL   H193 1765   1.347   4.040   0.543  0.0697 -0.1592  0.9529
    7MOL   H194 1766   1.233   4.124   0.448 -1.6160  0.1006 -0.0774
    7MOL   H195 1767   1.144   3.512   0.472 -2.6354  0.9814  1.0854
    7MOL   H196 1768   1.274   3.608   0.455 -0.8239 -0.9181 -1.8687
    7MOL   C197 1769   1.257   3.560   0.667  0.4263  0.3201  0.0630
    7MOL   N198 1770   1.349   3.672   0.692  0.4213  0.7313 -0.1896
    7MOL   C199 1771   1.339   3.756   0.797 -0.2385 -0.5345 -0.4048
    7MOL   O200 1772   1.246   3.748   0.878 -0.5649 -0.1665 -0.6960
    7MOL   C201 1773   1.430   3.878   0.795  0.6942 -0.5354 -0.0663
    7MOL   C202 1774   1.328   3.426   0.683  0.3911  0.4821 -0.3217
    7MOL   H203 1775   1.170   3.561   0.732 -0.8372  1.0236 -1.6129
    7MOL   H204 1776   1.396   3.714   0.613 -0.9164  0.5253 -1.1105
    7MOL   H205 1777   1.381   3.961   0.744  4.3532  2.6665  1.3667
    7MOL   H206 1778   1.444   3.904   0.900 -1.5285  1.7653 -0.2780
    7MOL   H207 1779   1.526   3.865   0.745  0.0561 -1.4442 -1.0686
    7MOL   H208 1780   1.286   3.358   0.608  2.4378 -0.3351 -0.7438
    7MOL   H209 1781   1.427   3.443   0.642 -0.1036 -2.5131 -2.9206
    7MOL   C210 1782   1.313   3.357   0.824  0.1573 -1.0186  0.6567
    7MOL   N211 1783   1.365   3.445   0.927  0.2687 -0.1634 -0.0961
    7MOL   C212 1784   1.481   3.458   0.977 -0.2430 -1.0589 -0.5154
    7MOL   O213 1785   1.579   3.401   0.937 -0.5512 -0.1617  0.2356
    7MOL   C214 1786   1.499   3.553   1.092 -0.5843  0.6602 -0.2150
    7MOL   C215 1787   1.355   3.215   0.847  0.2496 -0.2425  0.0955
    7MOL   H216 1788   1.206   3.358   0.846  0.1506 -1.4922  0.6385
    7MOL   H217 1789   1.293   3.502   0.970  0.0897  1.4074 -2.4169
    7MOL   H218 1790   1.560   3.635   1.054 -2.3270  1.5104 -1.2701
    7MOL   H219 1791   1.402   3.589   1.127 -2.4122 -3.0435 -1.1368
    7MOL   H220 1792   1.558   3.518   1.176  0.0464  1.2011 -0.4269
    7MOL   H221 1793   1.460   3.203   0.822  0.6759 -2.8120  2.8062
    7MOL   H222 1794   1.340   3.193   0.953 -1.9917 -0.9327 -0.3527
    7MOL   C223 1795   1.278   3.105   0.776  0.1250 -0.5482 -0.5993
    7MOL   N224 1796   1.150   3.066   0.842  0.2168 -0.4070 -0.2221
    7MOL   C225 1797   1.046   3.023   0.767  0.4832 -0.5196  0.4196
    7MOL   O226 1798   1.064   3.010   0.646 -0.3304  0.3509 -0.9599
    7MOL   C227 1799   0.926   2.976   0.841  0.2975 -0.1654  0.0117
    7MOL   C228 1800   1.368   2.973   0.759 -0.7855 -0.1395  0.6316
    7MOL   H229 1801   1.268   3.146   0.676  0.9132 -1.1366 -0.9326
    7MOL   H230 1802   1.129   3.078   0.940 -1.2388  0.5856 -0.6226
    7MOL   H231 1803   0.953   2.924   0.933  2.0295 -0.1233 -0.4637
    7MOL   H232 1804   0.872   3.066   0.870  0.4124  0.5241 -1.8322
    7MOL   H233 1805   0.862   2.904   0.789 -0.4504  0.0459  0.6319
    7MOL   H234 1806   1.436   2.968   0.845  0.0261  1.2895  0.0951
    7MOL   H235 1807   1.310   2.881   0.756 -2.5190  0.9101  1.2123
    7MOL   C236 1808   1.451   2.967   0.626 -0.2313  0.2915  0.5310
    7MOL   N237 1809   1.352   2.934   0.522  0.1872 -0.3431  0.3493
    7MOL   C238 1810   1.310   3.001   0.419 -0.1995  0.8708  1.0952
    7MOL   O239 1811   1.369   3.103   0.379  0.7591  0.3039 -0.3821
    7MOL   C240 1812   1.173   2.956   0.361  0.0746 -0.3993  0.4006
    7MOL   C241 1813   1.565   2.861   0.615 -0.4056 -0.0390  0.0258
    7MOL   H242 1814   1.484   3.068   0.603 -0.5054 -0.2024 -2.1563
    7MOL   H243 1815   1.287   2.860   0.545 -1.0778  0.8082  0.5487
    7MOL   H244 1816   1.173   2.938   0.254  0.5083  0.9578  0.1688
    7MOL   H245 1817   1.148   2.861   0.410  0.6604 -0.6646  0.1869
    7MOL   H246 1818   1.102   3.032   0.393  0.7171 -0.3896  1.8408
    7MOL   H247 1819   1.534   2.762   0.646 -1.6122  0.3131 -0.0487
    7MOL   H248 1820   1.587   2.841   0.509  0.0566 -1.0277  0.3009
    7MOL   C249 1821   1.690   2.909   0.690  0.3703  0.3415  0.8475
    7MOL   N250 1822   1.817   2.877   0.615 -0.1148 -0.3107  0.9638
    7MOL   C251 1823   1.863   2.958   0.522 -0.5469 -0.8024  0.3090
    7MOL   O252 1824   1.813   3.068   0.496  0.6573  0.5184  0.2930
    7MOL   C253 1825   1.986   2.909   0.453 -0.0947  0.1018  0.0724
    7MOL   C254 1826   1.707   2.841   0.823  0.1385 -0.2760  0.1149
    7MOL   H255 1827   1.691   3.016   0.709 -0.2358  0.3824  0.6685
    7MOL   H256 1828   1.868   2.792   0.635 -1.5047 -1.3749  0.0609
    7MOL   H257 1829   1.962   2.864   0.356  0.6094 -2.5242  1.0942
    7MOL   H258 1830   2.070   2.978   0.445 -0.4242  0.6204  1.0107
    7MOL   H259 1831   2.019   2.824   0.511  0.7139  0.4439  0.1134
    7MOL   H260 1832   1.621   2.845   0.890 -0.2139 -0.7359 -0.3049
    7MOL   H261 1833   1.732   2.736   0.815 -0.1181 -0.4355  1.3273
    7MOL   H262 1834   1.780   2.904   0.874 -0.6593 -1.9032  3.3454
    8MOL     C1 1835   0.925   6.044   5.543  0.3251  0.3274 -0.0913
    8MOL     N2 1836   0.946   6.029   5.690  0.2286  0.2008  0.1069
    8MOL     C3 1837   1.017   5.933   5.745 -0.6237  0.3027 -0.3730
    8MOL     O4 1838   1.087   5.853   5.683 -0.1464 -0.5422 -0.6619
    8MOL     C5 1839   1.012   5.900   5.897  0.2347 -0.0117  0.8480
    8MOL     C6 1840   1.044   6.109   5.463 -0.1415 -0.2743 -0.4451
    8MOL     H7 1841   0.907   5.940   5.514  1.3069  0.0717  0.1952
    8MOL     H8 1842   0.918   6.110   5.743 -0.5457 -0.2147  0.3505
    8MOL     H9 1843   1.094   5.944   5.955  0.6315  2.1988 -1.3155
    8MOL    H10 1844   0.917   5.938   5.934 -0.2942 -2.4464  2.1048
    8MOL    H11 1845   1.015   5.791   5.895 -3.3239 -0.1369 -0.6647
    8MOL    H12 1846   1.066   6.205   5.510  0.2892  0.1393 -1.4720
    8MOL    H13 1847   1.130   6.044   5.469  1.3251  1.8263  2.3430
    8MOL    H14 1848   0.830   6.092   5.517  0.7754  1.6622  0.6956
    8MOL    C15 1849   1.013   6.133   5.308  0.9860  0.1582  0.6697
    8MOL    N16 1850   0.933   6.025   5.247  0.1106 -0.2227  0.0809
    8MOL    C17 1851   0.978   5.904   5.214  0.2322  0.7548  0.8778
    8MOL    O18 1852   1.091   5.857   5.227  0.0829 -0.2247  0.8024
    8MOL    C19 1853   0.868   5.823   5.144 -0.0485 -0.1592 -0.2183
    8MOL    C20 1854   1.133   6.178   5.217  0.4645  0.8239  0.2937
    8MOL    H21 1855   0.941   6.214   5.305  0.9554  0.0973 -0.3275
    8MOL    H22 1856   0.833   6.035   5.246 -0.1042 -1.8985  1.8481
    8MOL    H23 1857   0.846   5.853   5.041 -0.5234 -0.3552 -0.1741
    8MOL    H24 1858   0.892   5.719   5.123  0.7991 -0.2541  1.1489
    8MOL    H25 1859   0.772   5.837   5.193  0.2388  0.5071  0.1639
    8MOL    H26 1860   1.192   6.095   5.178  0.8426  0.8313  0.8521
    8MOL    H27 1861   1.092   6.211   5.122 -0.9008  1.0510  0.9505
    8MOL    C28 1862   1.232   6.276   5.272 -0.0629 -0.2767  0.0076
    8MOL    N29 1863   1.283   6.358   5.161  0.6022  0.1903 -0.5798
    8MOL    C30 1864   1.312   6.488   5.156  0.4426  0.0490  0.7761
    8MOL    O31 1865   1.323   6.558   5.254  0.0834  0.5720 -0.7195
    8MOL    C32 1866   1.344   6.558   5.021  0.1312 -0.0437 -0.1866
    8MOL    C33 1867   1.354   6.207   5.328 -0.2499  0.0237 -0.0203
    8MOL    H34 1868   1.183   6.337   5.348 -1.8482 -1.6890  0.0072
    8MOL    H35 1869   1.285   6.318   5.068  0.9770 -0.3877 -0.3252
    8MOL    H36 1870   1.446   6.528   4.999  0.1991 -1.6502  2.0910
    8MOL    H37 1871   1.272   6.526   4.946  1.9758  0.2972 -2.1350
    8MOL    H38 1872   1.345   6.666   5.031  2.6629 -0.1006  0.6242
    8MOL    H39 1873   1.313   6.112   5.363  2.0737  0.2169  3.4491
    8MOL    H40 1874   1.425   6.178   5.251 -0.1557  1.3173 -0.4197
    8MOL    C41 1875   1.414   6.260   5.462 -0.0657  0.0689  0.3338
    8MOL    N42 1876   1.447   6.404   5.460  0.0222  0.8338  1.0480
    8MOL    C43 1877   1.432   6.483   5.564  0.2973  0.0733 -0.0318
    8MOL    O44 1878   1.387   6.445   5.672  0.0080 -0.0614 -0.4570
    8MOL    C45 1879   1.464   6.630   5.556  0.2895 -0.3496  0.2254
    8MOL    C46 1880   1.535   6.185   5.518 -0.3053 -0.2092 -1.3416
    8MOL    H47 1881   1.325   6.244   5.524 -0.3169 -0.5567 -0.1834
    8MOL    H48 1882   1.480   6.444   5.373 -0.4860 -0.5876  0.1795
    8MOL    H49 1883   1.558   6.639   5.501  0.3380  2.1732  0.6640
    8MOL    H50 1884   1.387   6.681   5.499 -0.8204 -1.3595  0.7984
    8MOL    H51 1885   1.481   6.685   5.648  0.2850  3.1347 -1.7758
    8MOL    H52 1886   1.553   6.202   5.625 -1.3036 -1.6563 -0.9224
    8MOL    H53 1887   1.485   6.088   5.524 -1.1559  0.3495  2.1926
    8MOL    C54 1888   1.668   6.196   5.438  0.4912 -0.4309 -0.3897
    8MOL    N55 1889   1.731   6.066   5.438 -0.0813  0.2014  0.0259
    8MOL    C56 1890   1.820   6.024   5.347 -0.1984  0.6160 -0.7363
    8MOL    O57 1891   1.879   6.097   5.274 -0.0465 -0.1132 -0.0423
    8MOL    C58 1892   1.857   5.877   5.360  0.2431  0.7210 -0.2937
    8MOL    C59 1893   1.755   6.308   5.486 -0.1541  0.2461  0.2459
    8MOL    H60 1894   1.646   6.224   5.335  0.6994  2.2624  0.2748
    8MOL    H61 1895   1.707   6.005   5.515 -0.2424 -2.5505 -2.1255
    8MOL    H62 1896   1.835   5.826   5.267 -1.0592  0.1388  0.3119
    8MOL    H63 1897   1.962   5.873   5.388  0.8893  1.1934 -2.5612
    8MOL    H64 1898   1.796   5.832   5.439 -0.2747  1.0610 -0.4972
    8MOL    H65 1899   1.725   6.353   5.581  0.6073  0.4799  0.3849
    8MOL    H66 1900   1.851   6.264   5.515 -1.6520 -2.6173  1.1328
    8MOL    C67 1901   1.779   6.424   5.378 -0.1432  0.3529 -0.1515
    8MOL    N68 1902   1.832   6.375   5.247  0.7214 -0.4606 -0.3903
    8MOL    C69 1903   1.801   6.420   5.126  0.3678 -0.7614 -0.1459
    8MOL    O70 1904   1.711   6.502   5.107 -0.3089  0.3383  0.3811
    8MOL    C71 1905   1.865   6.359   5.010 -0.2467  0.1666 -0.2298
    8MOL    C72 1906   1.876   6.533   5.431 -0.4132 -1.2100  0.8022
    8MOL    H73 1907   1.680   6.469   5.369  0.2033  1.7252  2.4856
    8MOL    H74 1908   1.894   6.296   5.258  1.0146 -0.4102 -1.6672
    8MOL    H75 1909   1.944   6.424   4.974  0.1243  0.6750  1.4613
    8MOL    H76 1910   1.911   6.263   5.035 -1.3578 -1.1143 -2.8167
    8MOL    H77 1911   1.809   6.330   4.921 -0.2639  1.7872 -0.7640
    8MOL    H78 1912   1.886   6.596   5.343  1.7154 -0.5281  1.4979
    8MOL    H79 1913   1.833   6.587   5.515 -0.8888  2.9769 -1.9853
    8MOL    C80 1914   2.023   6.488   5.463 -0.0521  0.2078 -0.0249
    8MOL    N81 1915   2.033   6.475   5.608 -0.1011 -0.2205  0.4337
    8MOL    C82 1916   2.128   6.414   5.679  0.2353  0.2431 -0.4328
    8MOL    O83 1917   2.237   6.382   5.629  1.0514  0.0264 -0.4031
    8MOL    C84 1918   2.098   6.382   5.829  0.2420 -0.1939  0.3103
    8MOL    C85 1919   2.128   6.578   5.393 -0.1547  0.1548  0.2565
    8MOL    H86 1920   2.043   6.391   5.418  1.0157  1.2930 -1.9445
    8MOL    H87 1921   1.962   6.511   5.670  0.4741  2.6258 -0.4596
    8MOL    H88 1922   2.194   6.355   5.873  0.2823  0.2260  0.4796
    8MOL    H89 1923   2.035   6.459   5.874  1.0146  1.0446 -0.7207
    8MOL    H90 1924   2.036   6.292   5.820 -1.1536  0.8001 -0.2010
    8MOL    H91 1925   2.220   6.520   5.390  0.0619  0.4522  1.0811
    8MOL    H92 1926   2.102   6.591   5.288 -1.2761  0.5556  0.5749
    8MOL    C93 1927   2.152   6.714   5.466  0.5214 -0.1980  0.1793
    8MOL    N94 1928   2.030   6.799   5.447 -0.1406 -0.1427 -0.0080
    8MOL    C95 1929   1.967   6.859   5.549 -0.0347  0.3062 -0.4397
    8MOL    O96 1930   2.023   6.894   5.657  0.0437  0.2152  0.2408
    8MOL    C97 1931   1.818   6.887   5.531 -0.0046 -0.2840  0.3074
    8MOL    C98 1932   2.281   6.785   5.407 -0.1590 -0.4608 -0.6602
    8MOL    H99 1933   2.165   6.690   5.572 -2.5752  1.8576  1.0920
    8MOL   H100 1934   1.988   6.813   5.356  0.6460 -1.4965 -0.5955
    8MOL   H101 1935   1.796   6.933   5.435  0.2242 -0.8964 -0.0472
    8MOL   H102 1936   1.754   6.799   5.537  1.6136 -1.5341 -0.0672
    8MOL   H103 1937   1.776   6.958   5.602 -0.8720 -0.1480 -0.3390
    8MOL   H104 1938   2.302   6.757   5.303 -0.9205  2.2362 -1.5761
    8MOL   H105 1939   2.265   6.892   5.408 -0.3979 -0.5066  0.3595
    8MOL   C106 1940   2.412   6.778   5.494 -0.6052 -0.0108  0.0794
    8MOL   N107 1941   2.458   6.639   5.511 -0.5517  0.0220  0.5508
    8MOL   C108 1942   2.574   6.604   5.556 -0.0712  0.0619 -0.9051
    8MOL   O109 1943   2.663   6.681   5.583 -0.2603  0.5600  0.5947
    8MOL   C110 1944   2.597   6.458   5.552 -0.3311  0.1515  0.3313
    8MOL   C111 1945   2.391   6.855   5.628  0.3379  0.3617 -0.2337
    8MOL   H112 1946   2.487   6.840   5.445 -1.1304  1.7835  1.4924
    8MOL   H113 1947   2.394   6.562   5.499  0.2337 -0.7912  1.4321
    8MOL   H114 1948   2.506   6.409   5.587  0.9686 -2.2637  0.4978
    8MOL   H115 1949   2.619   6.426   5.449 -2.2360  0.9292 -0.3393
    8MOL   H116 1950   2.672   6.433   5.627  0.8799  1.6222 -0.3614
    8MOL   H117 1951   2.285   6.861   5.654  0.2066 -1.9971 -0.0585
    8MOL   H118 1952   2.433   6.791   5.706 -0.6551 -0.1215 -0.0765
    8MOL   C119 1953   2.466   6.992   5.649 -0.2150 -0.8484 -0.3983
    8MOL   N120 1954   2.609   6.972   5.675 -0.4754  0.0859  0.1158
    8MOL   C121 1955   2.710   7.025   5.607  0.0336 -0.1370  0.4945
    8MOL   O122 1956   2.694   7.097   5.506 -0.3916 -0.1483  0.0301
    8MOL   C123 1957   2.849   6.973   5.625  0.2637  0.2652  0.9079
    8MOL   C124 1958   2.415   7.077   5.763  0.0445  0.3184  0.3156
    8MOL   H125 1959   2.471   7.035   5.549  1.6951 -0.1616 -0.0257
    8MOL   H126 1960   2.624   6.910   5.753  0.8937 -0.4943 -0.5910
    8MOL   H127 1961   2.853   6.870   5.591  0.6013  0.7945 -0.6637
    8MOL   H128 1962   2.918   7.026   5.560 -0.4193  2.1355  1.6593
    8MOL   H129 1963   2.885   6.981   5.728  1.6548 -1.4981  0.5751
    8MOL   H130 1964   2.423   7.012   5.850  0.6809 -1.4214 -1.0218
    8MOL   H131 1965   2.481   7.159   5.790 -0.8346  1.1447 -0.0093
    8MOL   C132 1966   2.273   7.139   5.731  0.2187  0.5291 -0.2788
    8MOL   N133 1967   2.301   7.250   5.643  0.0538  0.1141  0.3519
    8MOL   C134 1968   2.294   7.252   5.513 -0.9211  0.8408  0.1597
    8MOL   O135 1969   2.251   7.154   5.440 -0.2710 -0.0951 -0.1275
    8MOL   C136 1970   2.370   7.368   5.450 -0.2887 -0.3563  0.5536
    8MOL   C137 1971   2.213   7.197   5.864  0.6946  0.0678 -0.4496
    8MOL   H138 1972   2.209   7.065   5.682 -1.5338  2.0039 -0.2407
    8MOL   H139 1973   2.327   7.335   5.691 -1.7828  0.8679  0.0509
    8MOL   H140 1974   2.365   7.457   5.514 -0.9280 -1.2022  1.6854
    8MOL   H141 1975   2.474   7.343   5.428  0.1152  1.6440  0.0969
    8MOL   H142 1976   2.315   7.394   5.360  0.8520  1.0123  0.2341
    8MOL   H143 1977   2.286   7.265   5.908 -0.2881 -1.0285  3.0458
    8MOL   H144 1978   2.121   7.255   5.851 -0.6876 -2.4965 -2.4285
    8MOL   C145 1979   2.196   7.095   5.983  0.2938 -0.3359 -0.6937
    8MOL   N146 1980   2.146   6.966   5.927  0.1317  0.0468 -0.0763
    8MOL   C147 1981   2.193   6.849   5.986  0.3429  0.2840 -0.2164
    8MOL   O148 1982   2.272   6.846   6.081 -0.3379  0.5144 -0.0403
    8MOL   C149 1983   2.146   6.720   5.917 -0.4635  0.9644  0.5577
    8MOL   C150 1984   2.085   7.150   6.085  0.3410  0.5504 -0.9304
    8MOL   H151 1985   2.299   7.080   6.015  0.2742 -1.8676 -1.2854
    8MOL   H152 1986   2.090   6.960   5.843 -1.6620  0.2498  1.0690
    8MOL   H153 1987   2.059   6.681   5.970  0.9812 -0.8558  1.6904
    8MOL   H154 1988   2.113   6.727   5.814  2.4386 -2.3559 -0.7228
    8MOL   H155 1989   2.225   6.645   5.907 -0.3231  1.4396 -2.2212
    8MOL   H156 1990   2.026   7.236   6.052 -0.6018  0.2481 -0.0440
    8MOL   H157 1991   2.009   7.073   6.088 -0.8930  1.7966  0.6984
    8MOL   C158 1992   2.156   7.173   6.216 -0.3060  0.3113  0.1903
    8MOL   N159 1993   2.050   7.215   6.310  0.1470 -1.0697  0.0036
    8MOL   C160 1994   2.001   7.147   6.418 -0.2597 -0.8472  0.9448
    8MOL   O161 1995   2.026   7.032   6.448  0.5724 -0.4580  0.1669
    8MOL   C162 1996   1.897   7.220   6.495  0.1613 -0.9229  0.3924
    8MOL   C163 1997   2.264   7.281   6.219  0.2429  0.3853  0.1174
    8MOL   H164 1998   2.198   7.077   6.245 -1.9760 -0.6235 -0.4257
    8MOL   H165 1999   2.013   7.308   6.303 -2.6768 -2.1052  0.7939
    8MOL   H166 2000   1.831   7.277   6.429  0.8307 -0.8108 -0.1860
    8MOL   H167 2001   1.839   7.146   6.551 -0.4751  1.3037  2.7707
    8MOL   H168 2002   1.943   7.301   6.551 -0.3906 -1.6474  1.9248
    8MOL   H169 2003   2.340   7.242   6.150  0.1940 -1.7578  1.2375
    8MOL   H170 2004   2.239   7.371   6.163  0.3589  1.0766  1.1637
    8MOL   C171 2005   2.339   7.315   6.346 -0.3633 -0.5701 -0.3116
    8MOL   N172 2006   2.430   7.428   6.309  0.5919 -0.0646 -0.4739
    8MOL   C173 2007   2.440   7.541   6.379  0.1200  0.5173  0.6441
    8MOL   O174 2008   2.355   7.581   6.459 -0.2443 -0.1308  0.3819
    8MOL   C175 2009   2.573   7.614   6.371 -0.4361 -0.1714  0.6984
    8MOL   C176 2010   2.424   7.198   6.406 -0.7089 -0.3058  0.1784
    8MOL   H177 2011   2.266   7.351   6.419 -0.4593  2.6184 -1.9234
    8MOL   H178 2012   2.496   7.395   6.240  0.7811  0.6759 -0.6585
    8MOL   H179 2013   2.652   7.542   6.393 -1.5318 -1.6908 -0.1931
    8MOL   H180 2014   2.590   7.656   6.272 -0.6387 -2.2401 -0.2505
    8MOL   H181 2015   2.567   7.688   6.451  1.8573 -0.9085  1.5729
    8MOL   H182 2016   2.437   7.129   6.323 -1.1367 -0.4269  0.2080
    8MOL   H183 2017   2.524   7.230   6.432 -0.4580 -1.3128  0.4725
    8MOL   C184 2018   2.352   7.127   6.523  0.0509  0.3054  0.5457
    8MOL   N185 2019   2.309   7.225   6.625  0.2288 -0.4900 -0.3861
    8MOL   C186 2020   2.391   7.307   6.690 -0.0138  0.0354 -0.0098
    8MOL   O187 2021   2.514   7.310   6.685  0.6591 -0.5118  0.0293
    8MOL   C188 2022   2.313   7.408   6.775  0.2536  0.3955 -0.9052
    8MOL   C189 2023   2.444   7.018   6.570  0.0039  0.4146  0.1534
    8MOL   H190 2024   2.254   7.087   6.500  0.3785  0.0873 -0.4652
    8MOL   H191 2025   2.212   7.231   6.652 -0.1810  3.1882 -2.3426
    8MOL   H192 2026   2.326   7.500   6.718  1.3041  0.9328  0.1864
    8MOL   H193 2027   2.206   7.389   6.767  0.0970  1.6881 -2.1784
    8MOL   H194 2028   2.342   7.414   6.879 -2.7879 -0.4078  0.0411
    8MOL   H195 2029   2.548   7.050   6.560 -0.0189 -0.2659 -2.4700
    8MOL   H196 2030   2.435   7.010   6.678  1.5813  1.9411  0.4262
    8MOL   C197 2031   2.443   6.873   6.510  0.0683 -0.5231 -0.3346
    8MOL   N198 2032   2.555   6.796   6.577 -0.0546 -0.5178 -0.0257
    8MOL   C199 2033   2.541   6.727   6.691  0.5671  0.1683 -0.9386
    8MOL   O200 2034   2.433   6.715   6.743  0.0355  0.1620 -0.5285
    8MOL   C201 2035   2.666   6.694   6.764  0.0257 -0.3653 -0.6420
    8MOL   C202 2036   2.465   6.874   6.356  0.4658 -0.1211  1.0298
    8MOL   H203 2037   2.343   6.833   6.528 -0.5595  1.4634  0.7366
    8MOL   H204 2038   2.647   6.811   6.538 -0.7592  0.0531 -1.4915
    8MOL   H205 2039   2.651   6.717   6.870  0.3941 -0.9310 -0.4636
    8MOL   H206 2040   2.683   6.587   6.754  0.7841 -0.0948 -2.3408
    8MOL   H207 2041   2.760   6.741   6.737  0.2674 -0.3985  0.1132
    8MOL   H208 2042   2.373   6.915   6.315  1.5106  1.9318  0.7170
    8MOL   H209 2043   2.549   6.940   6.341  1.0901 -1.1167  0.0974
    8MOL   C210 2044   2.512   6.740   6.294  0.2861  0.9126  0.0416
    8MOL   N211 2045   2.528   6.742   6.147 -0.2402 -0.1203  0.5766
    8MOL   C212 2046   2.642   6.745   6.081  0.5739  0.0710 -0.2275
    8MOL   O213 2047   2.752   6.756   6.137 -0.6016 -0.2836  0.6283
    8MOL   C214 2048   2.638   6.724   5.935 -0.1549 -0.2859  0.0740
    8MOL   C215 2049   2.423   6.621   6.324 -0.3618  0.2258  0.6353
    8MOL   H216 2050   2.609   6.718   6.338  0.1111  0.1670  0.0562
    8MOL   H217 2051   2.443   6.743   6.092 -1.1580 -1.9831  1.8676
    8MOL   H218 2052   2.541   6.757   5.901 -0.8607 -1.5858  0.7663
    8MOL   H219 2053   2.712   6.783   5.880 -0.2205  0.5008  0.8257
    8MOL   H220 2054   2.658   6.618   5.920 -0.3593 -0.9032  3.6063
    8MOL   H221 2055   2.410   6.613   6.432  2.3974 -0.9559  0.9239
    8MOL   H222 2056   2.327   6.648   6.280  0.3454  1.8419  0.0494
    8MOL   C223 2057   2.478   6.490   6.282  0.0061 -0.2964 -0.3535
    8MOL   N224 2058   2.361   6.403   6.287 -0.2360 -0.6732  0.4292
    8MOL   C225 2059   2.293   6.379   6.177  0.1568  0.1960 -0.5484
    8MOL   O226 2060   2.318   6.430   6.069  0.7307  0.0897  0.7766
    8MOL   C227 2061   2.183   6.279   6.182  0.2128  0.3428  0.4470
    8MOL   C228 2062   2.591   6.451   6.382  0.3158 -0.0995  0.0854
    8MOL   H229 2063   2.523   6.496   6.183  3.1384  0.8137  1.0837
    8MOL   H230 2064   2.331   6.379   6.380 -2.4513  1.1304  0.2023
    8MOL   H231 2065   2.083   6.320   6.196 -0.5089 -1.4986  0.7005
    8MOL   H232 2066   2.184   6.228   6.086  0.1297  0.3120  0.4634
    8MOL   H233 2067   2.194   6.199   6.255  0.5121 -0.5476 -0.5603
    8MOL   H234 2068   2.684   6.473   6.329  0.9815  2.2315  2.1072
    8MOL   H235 2069   2.592   6.514   6.472 -0.6380  0.5850 -0.3679
    8MOL   C236 2070   2.604   6.304   6.436  0.1654  1.2171 -0.2698
    8MOL   N237 2071   2.539   6.307   6.570 -0.1025 -0.0957 -0.1127
    8MOL   C238 2072   2.528   6.210   6.658 -0.0859  0.6190 -0.1391
    8MOL   O239 2073   2.590   6.103   6.664 -0.0812  0.6244 -0.2909
    8MOL   C240 2074   2.433   6.237   6.770  0.1804 -0.1191 -0.0143
    8MOL   C241 2075   2.749   6.245   6.443 -0.2717  0.4152  0.9998
    8MOL   H242 2076   2.546   6.237   6.373  0.2160  1.0796 -0.1718
    8MOL   H243 2077   2.487   6.392   6.588  0.2347  0.1585 -0.3395
    8MOL   H244 2078   2.474   6.307   6.844  1.8323 -1.6549  0.5573
    8MOL   H245 2079   2.355   6.298   6.725 -0.1397  0.3196  1.1089
    8MOL   H246 2080   2.401   6.146   6.819  1.0809 -0.2863  0.2838
    8MOL   H247 2081   2.750   6.140   6.473 -2.4000  0.0953  0.0434
    8MOL   H248 2082   2.785   6.233   6.341 -0.5555 -1.3072  1.0862
    8MOL   C249 2083   2.843   6.314   6.550  0.2362 -0.4569 -0.1406
    8MOL   N250 2084   2.922   6.417   6.479 -0.0590  0.4434 -0.0900
    8MOL   C251 2085   2.902   6.548   6.476  0.7457  0.0549  0.3074
    8MOL   O252 2086   2.817   6.613   6.534  0.3174  0.0962  0.0931
    8MOL   C253 2087   3.004   6.631   6.401 -0.1710  0.4688 -0.1479
    8MOL   C254 2088   2.928   6.214   6.626  0.1184 -0.0890  0.5371
    8MOL   H255 2089   2.784   6.367   6.625 -0.3494 -0.2729 -0.7219
    8MOL   H256 2090   3.007   6.383   6.436 -0.4248 -0.5235 -0.0620
    8MOL   H257 2091   2.955   6.643   6.304  0.7413  0.4143 -0.6217
    8MOL   H258 2092   3.023   6.729   6.445 -1.6350  0.3596  0.7314
    8MOL   H259 2093   3.097   6.575   6.386  0.6447  2.0444 -1.1620
    8MOL   H260 2094   2.861   6.155   6.689 -0.0828 -1.9329 -1.3447
    8MOL   H261 2095   2.970   6.146   6.552 -1.7316  0.9749 -1.5655
    8MOL   H262 2096   3.010   6.258   6.683  0.5363  0.7263 -0.6700
    9MOL     C1 2097   3.055   1.989   3.040 -0.1059  0.3828  0.4300
    9MOL     N2 2098   3.172   2.064   3.016  0.0606 -0.0276 -0.0743
    9MOL     C3 2099   3.299   2.032   3.047 -0.3063  0.4618  0.1956
    9MOL     O4 2100   3.333   1.927   3.105  0.0702  0.3544  0.4847
    9MOL     C5 2101   3.410   2.133   2.999 -0.0166  0.3759  0.1010
    9MOL     C6 2102   3.023   1.970   3.192  0.2204  0.1380  0.5819
    9MOL     H7 2103   2.972   2.049   3.003 -0.2466  0.1076  0.2927
    9MOL     H8 2104   3.160   2.160   2.988  1.0370 -0.1742 -1.0379
    9MOL     H9 2105   3.480   2.075   2.938  2.0289  3.4201 -0.5668
    9MOL    H10 2106   3.379   2.212   2.931 -0.6240  0.4787  0.4946
    9MOL    H11 2107   3.448   2.168   3.094  0.2236 -1.0729  0.5508
    9MOL    H12 2108   3.032   1.863   3.209 -3.0538 -0.4912 -1.3112
    9MOL    H13 2109   3.095   2.024   3.252 -0.4553  2.9601 -1.0590
    9MOL    H14 2110   3.054   1.896   2.983 -3.6461  0.7541 -0.2407
    9MOL    C15 2111   2.880   2.013   3.245  0.1003  0.6874  0.2953
    9MOL    N16 2112   2.780   1.956   3.154  0.3592 -0.2092 -0.3789
    9MOL    C17 2113   2.773   1.824   3.139  0.0810  0.2694 -1.0580
    9MOL    O18 2114   2.827   1.743   3.211  0.4771 -0.4432  0.0899
    9MOL    C19 2115   2.690   1.775   3.021 -0.1511  0.5646  0.5913
    9MOL    C20 2116   2.858   2.170   3.270 -0.1610  0.3551  0.1011
    9MOL    H21 2117   2.857   1.967   3.341  0.7200 -2.1084 -0.8315
    9MOL    H22 2118   2.733   2.020   3.091  0.7462  1.0094  0.5391
    9MOL    H23 2119   2.702   1.841   2.935  1.1471  0.7981  0.9444
    9MOL    H24 2120   2.724   1.680   2.980 -2.2500  0.3187 -0.6464
    9MOL    H25 2121   2.588   1.755   3.053 -0.5291  2.2275  0.4740
    9MOL    H26 2122   2.839   2.208   3.169  1.0777  2.3846  0.5813
    9MOL    H27 2123   2.761   2.166   3.319  0.3535 -2.2539  0.9664
    9MOL    C28 2124   2.956   2.247   3.363 -0.3324 -0.4175 -0.3782
    9MOL    N29 2125   2.956   2.185   3.502  0.2804  0.0056  0.0667
    9MOL    C30 2126   3.054   2.194   3.591 -0.8080  0.2968  0.5587
    9MOL    O31 2127   3.146   2.274   3.587 -0.1390  0.1767  0.3417
    9MOL    C32 2128   3.044   2.097   3.709 -0.2374  0.2144  0.1627
    9MOL    C33 2129   2.938   2.400   3.376  0.3309 -0.0468 -0.2096
    9MOL    H34 2130   3.057   2.243   3.322  0.5592 -0.0829  1.7343
    9MOL    H35 2131   2.897   2.107   3.528  0.4607  0.1189  0.8157
    9MOL    H36 2132   2.941   2.105   3.745 -1.3108  1.5157 -3.0246
    9MOL    H37 2133   3.063   1.997   3.670 -0.3055 -0.2746  1.3719
    9MOL    H38 2134   3.118   2.131   3.781 -1.3335  2.4970  0.2496
    9MOL    H39 2135   2.833   2.411   3.403  0.6354  1.6433  0.3972
    9MOL    H40 2136   2.996   2.444   3.457 -1.9099  1.2411  0.7576
    9MOL    C41 2137   2.948   2.488   3.245  0.0754 -0.1570 -0.1591
    9MOL    N42 2138   3.083   2.485   3.200 -0.4049 -0.0549 -0.1089
    9MOL    C43 2139   3.129   2.434   3.084 -0.8451 -0.5931 -0.4579
    9MOL    O44 2140   3.064   2.353   3.017 -0.4902 -0.3843  0.4746
    9MOL    C45 2141   3.265   2.465   3.031 -0.6982  0.4103 -0.5247
    9MOL    C46 2142   2.916   2.643   3.266  0.2941 -0.5294  0.2474
    9MOL    H47 2143   2.880   2.442   3.173 -0.5129  0.6269 -0.1012
    9MOL    H48 2144   3.159   2.519   3.257  0.2611 -0.1790 -0.8986
    9MOL    H49 2145   3.297   2.569   3.043  0.1705 -0.1485  2.5317
    9MOL    H50 2146   3.337   2.408   3.090 -3.4046 -1.1352  1.4111
    9MOL    H51 2147   3.275   2.429   2.929  1.8199 -1.6206  0.3676
    9MOL    H52 2148   2.991   2.670   3.341  1.5534 -1.9044 -0.4899
    9MOL    H53 2149   2.946   2.694   3.175 -2.2295  0.2338 -0.2014
    9MOL    C54 2150   2.762   2.673   3.303  0.2663  0.5875  0.6396
    9MOL    N55 2151   2.664   2.638   3.201  0.2676  0.0959  0.7897
    9MOL    C56 2152   2.544   2.594   3.220  0.1657  0.1251 -0.3042
    9MOL    O57 2153   2.502   2.544   3.323  0.3014 -0.1904 -0.0886
    9MOL    C58 2154   2.460   2.598   3.093  0.0314  0.1225  0.2021
    9MOL    C59 2155   2.741   2.826   3.338 -0.2436  0.1280 -0.2120
    9MOL    H60 2156   2.744   2.607   3.388 -2.1504 -1.7726 -1.6068
    9MOL    H61 2157   2.697   2.663   3.109 -0.2786  0.5413  0.7179
    9MOL    H62 2158   2.425   2.500   3.059  1.4683 -0.3717  0.1310
    9MOL    H63 2159   2.365   2.648   3.112 -1.1085 -1.5114 -0.9886
    9MOL    H64 2160   2.510   2.655   3.016  0.3072 -1.7702 -1.0551
    9MOL    H65 2161   2.828   2.866   3.390 -0.8925 -1.5862  2.2863
    9MOL    H66 2162   2.734   2.875   3.241 -2.2271 -0.6403 -0.4868
    9MOL    C67 2163   2.624   2.858   3.432 -0.0928 -0.7459  0.7075
    9MOL    N68 2164   2.590   3.006   3.423  0.3233  0.6630 -0.8034
    9MOL    C69 2165   2.467   3.050   3.459  0.0907 -0.4362 -0.7344
    9MOL    O70 2166   2.373   2.970   3.478  0.1868  0.1999  0.2730
    9MOL    C71 2167   2.449   3.199   3.491 -0.3338  0.0792 -0.3420
    9MOL    C72 2168   2.666   2.822   3.576  0.0650  0.4085 -0.2048
    9MOL    H73 2169   2.534   2.798   3.413 -0.6963 -0.4147  2.4357
    9MOL    H74 2170   2.657   3.071   3.384  1.7878 -0.3709 -0.0879
    9MOL    H75 2171   2.483   3.277   3.423  0.4977  0.7255  0.7921
    9MOL    H76 2172   2.340   3.211   3.494 -0.1052  2.1859  0.5518
    9MOL    H77 2173   2.494   3.216   3.589  2.3015 -1.6081 -1.2126
    9MOL    H78 2174   2.728   2.732   3.581  1.2933  1.3513  2.1717
    9MOL    H79 2175   2.727   2.903   3.614  2.0967  0.2066 -2.8575
    9MOL    C80 2176   2.560   2.792   3.683  0.3794  0.5205 -0.0586
    9MOL    N81 2177   2.604   2.800   3.821  0.0558  0.1073 -0.5727
    9MOL    C82 2178   2.661   2.903   3.880  0.3429 -0.2111  0.7358
    9MOL    O83 2179   2.685   3.011   3.829 -0.5926 -0.0413 -0.0683
    9MOL    C84 2180   2.665   2.889   4.029  0.4144  0.6105  0.5838
    9MOL    C85 2181   2.500   2.654   3.661 -0.3490 -0.0975 -0.5658
    9MOL    H86 2182   2.479   2.865   3.676 -0.7638 -0.8465 -1.4850
    9MOL    H87 2183   2.580   2.725   3.884  0.9205  1.2384  1.1527
    9MOL    H88 2184   2.574   2.873   4.087  0.5926 -1.1018  0.4124
    9MOL    H89 2185   2.709   2.790   4.043 -4.0526 -1.4203  1.1043
    9MOL    H90 2186   2.725   2.965   4.078  2.6617 -0.2777 -0.7141
    9MOL    H91 2187   2.474   2.654   3.555 -0.5582 -1.6187 -0.5341
    9MOL    H92 2188   2.574   2.575   3.662 -1.5765 -1.2699 -0.0802
    9MOL    C93 2189   2.368   2.616   3.742  0.0139 -0.4190  0.4859
    9MOL    N94 2190   2.394   2.500   3.835  0.6079  0.2947 -0.4475
    9MOL    C95 2191   2.471   2.484   3.948 -0.7568  0.2043  1.2543
    9MOL    O96 2192   2.536   2.577   3.990 -0.3214  0.0112 -0.6301
    9MOL    C97 2193   2.480   2.347   4.003 -0.4794 -0.6243  0.2946
    9MOL    C98 2194   2.251   2.581   3.650 -0.8173  0.1862 -0.1697
    9MOL    H99 2195   2.336   2.700   3.804  1.2005  0.8039 -0.5282
    9MOL   H100 2196   2.380   2.406   3.801  2.5333 -0.0894 -0.2244
    9MOL   H101 2197   2.463   2.264   3.935  3.3091 -0.9817 -0.3349
    9MOL   H102 2198   2.585   2.350   4.033 -0.6074 -0.1928  0.7027
    9MOL   H103 2199   2.419   2.334   4.093  2.0540 -1.5233  1.9371
    9MOL   H104 2200   2.284   2.494   3.594 -0.8772 -0.3867  0.6893
    9MOL   H105 2201   2.171   2.555   3.719  1.8398 -2.2516  2.1553
    9MOL   C106 2202   2.198   2.687   3.547  0.7718 -0.1093 -0.5878
    9MOL   N107 2203   2.188   2.825   3.599  0.0281 -0.0640 -0.4250
    9MOL   C108 2204   2.138   2.879   3.708 -1.0505  0.4130 -0.1122
    9MOL   O109 2205   2.086   2.807   3.798 -0.3267 -0.4700 -0.0001
    9MOL   C110 2206   2.142   3.025   3.726  0.0109 -0.3632  0.3073
    9MOL   C111 2207   2.059   2.651   3.483  0.5095 -0.1968  0.3898
    9MOL   H112 2208   2.263   2.677   3.460 -1.4577 -1.2218 -2.1756
    9MOL   H113 2209   2.228   2.897   3.541 -0.4520 -0.3586 -1.1222
    9MOL   H114 2210   2.052   3.059   3.675  0.4349 -0.5647 -0.5767
    9MOL   H115 2211   2.123   3.048   3.831 -2.8975  0.3418 -0.3239
    9MOL   H116 2212   2.242   3.066   3.709  1.3139 -1.7906  3.9515
    9MOL   H117 2213   1.979   2.662   3.556  0.0519  0.8225 -0.2645
    9MOL   H118 2214   2.044   2.734   3.414  0.6740 -1.6548 -1.4550
    9MOL   C119 2215   2.056   2.521   3.404 -0.6862 -0.1099  0.0448
    9MOL   N120 2216   2.061   2.544   3.258 -1.0340  0.5840 -0.2676
    9MOL   C121 2217   2.139   2.472   3.175  0.9168 -0.1904  0.1022
    9MOL   O122 2218   2.188   2.363   3.201 -0.2858 -0.3999 -0.5143
    9MOL   C123 2219   2.130   2.519   3.026  0.3440 -0.2631 -0.5653
    9MOL   C124 2220   1.943   2.416   3.436 -0.0196 -0.3281 -0.4463
    9MOL   H125 2221   2.153   2.476   3.424 -1.3930 -1.7418 -0.1334
    9MOL   H126 2222   2.017   2.628   3.223 -0.6636  0.7142 -0.4269
    9MOL   H127 2223   2.057   2.465   2.966  0.1713  1.0652 -1.5799
    9MOL   H128 2224   2.117   2.625   3.005  3.2928  0.6336  1.8125
    9MOL   H129 2225   2.221   2.494   2.971  0.3098 -0.1034 -0.6967
    9MOL   H130 2226   1.847   2.467   3.450  0.7233  0.4039  2.3520
    9MOL   H131 2227   1.916   2.351   3.353 -1.2242  0.9275 -1.0650
    9MOL   C132 2228   1.981   2.328   3.555  0.0316  0.3625 -0.1604
    9MOL   N133 2229   1.965   2.183   3.530 -0.0100 -0.3479  0.1299
    9MOL   C134 2230   1.843   2.122   3.506 -0.4187 -0.2327  0.1924
    9MOL   O135 2231   1.739   2.191   3.497 -0.7025  0.4595  0.1987
    9MOL   C136 2232   1.834   1.971   3.486 -0.0885  0.3879 -0.2342
    9MOL   C137 2233   1.900   2.372   3.688 -0.6268  0.6586 -0.2608
    9MOL   H138 2234   2.090   2.335   3.562 -0.0085 -0.5470  1.8133
    9MOL   H139 2235   2.049   2.128   3.536 -1.1573 -2.1110  0.4369
    9MOL   H140 2236   1.935   1.931   3.478 -0.2834  0.1696 -1.7492
    9MOL   H141 2237   1.798   1.917   3.574  0.7043  0.0217 -0.1315
    9MOL   H142 2238   1.788   1.934   3.395 -0.0555 -0.9363  0.2828
    9MOL   H143 2239   1.874   2.478   3.689 -3.3982  0.0252 -1.6583
    9MOL   H144 2240   1.802   2.326   3.696  0.2821 -0.9965  2.3281
    9MOL   C145 2241   1.963   2.353   3.830  0.4901  0.0043  0.0792
    9MOL   N146 2242   1.987   2.215   3.863  0.1572  0.5424 -0.0247
    9MOL   C147 2243   2.105   2.156   3.859 -0.9798  0.9139 -0.0435
    9MOL   O148 2244   2.209   2.218   3.828  0.4507 -0.2580  0.2614
    9MOL   C149 2245   2.123   2.012   3.897  0.7691  0.1729  0.0915
    9MOL   C150 2246   1.871   2.421   3.939 -0.0500  0.7075 -0.7975
    9MOL   H151 2247   2.060   2.403   3.833  0.7424 -0.3128 -2.2762
    9MOL   H152 2248   1.907   2.165   3.899  0.7687 -1.5039 -1.4072
    9MOL   H153 2249   2.045   1.952   3.849 -0.0030  1.3327 -0.1275
    9MOL   H154 2250   2.215   1.962   3.868 -0.1482 -0.6863 -1.4012
    9MOL   H155 2251   2.105   1.993   4.003 -0.1044  1.5987  0.2162
    9MOL   H156 2252   1.836   2.514   3.893  0.5773  0.8513 -0.9812
    9MOL   H157 2253   1.783   2.358   3.951 -0.9096  1.9259 -0.5966
    9MOL   C158 2254   1.934   2.440   4.079  0.1776 -0.2576  0.1697
    9MOL   N159 2255   1.922   2.316   4.154  0.3488  0.0764 -0.1899
    9MOL   C160 2256   2.003   2.269   4.252 -0.1081 -0.7241 -0.4620
    9MOL   O161 2257   2.110   2.320   4.283  0.0215 -0.5409 -0.6225
    9MOL   C162 2258   1.965   2.128   4.308 -0.3738 -0.1930  0.0385
    9MOL   C163 2259   1.881   2.561   4.158  0.8437  0.2399  0.1242
    9MOL   H164 2260   2.041   2.453   4.068 -0.0868  0.1962 -2.0089
    9MOL   H165 2261   1.839   2.262   4.134  1.0155 -1.8292  2.0755
    9MOL   H166 2262   1.911   2.147   4.401 -1.1531 -0.9245 -0.2548
    9MOL   H167 2263   1.922   2.055   4.239 -1.2485  0.3802 -0.0277
    9MOL   H168 2264   2.062   2.081   4.317 -0.0707 -0.2332 -2.8818
    9MOL   H169 2265   1.774   2.542   4.173  1.1363 -0.6582  1.1835
    9MOL   H170 2266   1.917   2.557   4.261  0.1322 -2.0474  0.3100
    9MOL   C171 2267   1.881   2.703   4.109  0.1891 -0.2263 -0.1842
    9MOL   N172 2268   2.025   2.734   4.092 -0.5435 -0.6023  0.9078
    9MOL   C173 2269   2.117   2.733   4.184 -0.0655 -0.7397 -0.0658
    9MOL   O174 2270   2.094   2.716   4.302 -0.6434 -0.4333  0.0732
    9MOL   C175 2271   2.261   2.769   4.140 -0.6294  0.4341  0.1195
    9MOL   C176 2272   1.800   2.798   4.204  0.8619  0.0680 -0.4487
    9MOL   H177 2273   1.847   2.707   4.005 -2.4334  1.4246  0.6843
    9MOL   H178 2274   2.054   2.745   3.996  0.1745 -0.0634  1.1894
    9MOL   H179 2275   2.275   2.862   4.084  1.1626 -0.7138 -1.4222
    9MOL   H180 2276   2.315   2.779   4.234  1.1111 -0.2256 -0.7925
    9MOL   H181 2277   2.293   2.682   4.083 -1.6695  0.8854 -1.1915
    9MOL   H182 2278   1.785   2.757   4.304 -2.5543  0.2437 -0.8546
    9MOL   H183 2279   1.861   2.883   4.236  2.4529 -1.2857  0.1827
    9MOL   C184 2280   1.663   2.846   4.134 -0.7299 -0.4082 -0.0876
    9MOL   N185 2281   1.594   2.951   4.199  0.2087 -0.0369  0.1204
    9MOL   C186 2282   1.546   2.949   4.319 -0.0048  0.1802 -0.0845
    9MOL   O187 2283   1.540   2.853   4.390  1.6327 -0.3487 -0.4991
    9MOL   C188 2284   1.483   3.069   4.357 -0.0769  0.1780  0.3037
    9MOL   C189 2285   1.564   2.736   4.109 -0.1621 -0.1143  0.0245
    9MOL   H190 2286   1.681   2.884   4.033 -2.9231  0.1165 -0.2885
    9MOL   H191 2287   1.592   3.043   4.157 -2.5777  0.2909  0.8810
    9MOL   H192 2288   1.508   3.154   4.294  1.8026 -0.7086 -0.1827
    9MOL   H193 2289   1.374   3.060   4.362 -0.1398  0.2367 -1.0036
    9MOL   H194 2290   1.513   3.100   4.457 -0.8562  0.6730  0.3821
    9MOL   H195 2291   1.614   2.676   4.033 -0.1122  0.3304 -0.2979
    9MOL   H196 2292   1.555   2.674   4.198 -2.2772 -1.5709 -1.1656
    9MOL   C197 2293   1.417   2.761   4.059 -0.5473 -0.0743 -0.4228
    9MOL   N198 2294   1.350   2.625   4.063 -0.3013 -0.2460 -0.3405
    9MOL   C199 2295   1.218   2.604   4.043  0.3015  0.0829 -0.0785
    9MOL   O200 2296   1.135   2.698   4.038  0.1069 -0.4092 -0.2860
    9MOL   C201 2297   1.173   2.462   4.021  0.2826  0.1417 -0.3654
    9MOL   C202 2298   1.420   2.822   3.918  0.3921  0.4540 -1.1638
    9MOL   H203 2299   1.363   2.822   4.131  0.3605 -1.0429  1.1178
    9MOL   H204 2300   1.403   2.544   4.090  0.0811  0.0594 -0.1633
    9MOL   H205 2301   1.126   2.422   4.111  0.8969 -1.2247 -0.6352
    9MOL   H206 2302   1.115   2.450   3.929 -0.4373 -1.2438  0.2396
    9MOL   H207 2303   1.259   2.396   4.004  1.5837  1.4421  1.0220
    9MOL   H208 2304   1.524   2.819   3.886  0.6067 -2.3090 -0.3205
    9MOL   H209 2305   1.369   2.762   3.843  0.0161 -0.6048 -0.0858
    9MOL   C210 2306   1.367   2.966   3.906  0.0491 -0.5708 -0.5958
    9MOL   N211 2307   1.230   2.965   3.963 -0.0605  0.1532 -0.3471
    9MOL   C212 2308   1.194   3.031   4.072 -1.3511 -0.1884  0.2792
    9MOL   O213 2309   1.262   3.109   4.134  0.6979  0.3423 -0.2262
    9MOL   C214 2310   1.055   3.006   4.126  0.2444 -0.2952 -0.7265
    9MOL   C215 2311   1.371   3.019   3.759 -0.1747  0.1192 -0.1736
    9MOL   H216 2312   1.429   3.036   3.962 -1.9245  0.8344 -0.0830
    9MOL   H217 2313   1.174   2.884   3.947 -0.2114  0.2932 -0.5276
    9MOL   H218 2314   0.998   3.099   4.121 -1.0449 -1.1559 -2.0605
    9MOL   H219 2315   0.999   2.929   4.074 -1.8800 -0.9603  2.4073
    9MOL   H220 2316   1.068   2.976   4.230  1.6412  0.8598 -0.5411
    9MOL   H221 2317   1.470   2.989   3.724 -0.3574 -1.3416  0.5389
    9MOL   H222 2318   1.293   2.959   3.713 -1.6009  0.7117  1.4285
    9MOL   C223 2319   1.333   3.165   3.711 -0.0520 -0.1628 -0.1166
    9MOL   N224 2320   1.210   3.220   3.765 -0.6211  0.4993  0.2119
    9MOL   C225 2321   1.162   3.346   3.753 -0.0060  0.2221  0.6142
    9MOL   O226 2322   1.217   3.439   3.698 -0.1288 -0.0761  0.6259
    9MOL   C227 2323   1.024   3.363   3.807 -0.2952 -0.3388  0.0898
    9MOL   C228 2324   1.331   3.166   3.555 -0.0635  0.3064 -0.0172
    9MOL   H229 2325   1.418   3.222   3.748  0.9005 -1.0759 -0.8788
    9MOL   H230 2326   1.151   3.151   3.810 -0.5120 -0.5755 -1.2788
    9MOL   H231 2327   1.025   3.370   3.916  0.0345  0.3515  0.0405
    9MOL   H232 2328   0.978   3.448   3.757 -1.9889 -1.3521 -0.1335
    9MOL   H233 2329   0.967   3.272   3.786  1.2610 -1.8872  2.3180
    9MOL   H234 2330   1.334   3.064   3.520 -1.6262  0.5585 -0.9485
    9MOL   H235 2331   1.232   3.201   3.525 -1.5097 -2.2762  1.5486
    9MOL   C236 2332   1.455   3.228   3.505  0.3169  0.8612 -0.3415
    9MOL   N237 2333   1.441   3.368   3.552  0.3835  0.5074  0.0225
    9MOL   C238 2334   1.540   3.464   3.547 -0.7909  0.1334  0.4654
    9MOL   O239 2335   1.652   3.440   3.512  0.1674 -0.2778 -0.2609
    9MOL   C240 2336   1.504   3.615   3.568  0.3546  0.9590 -0.9433
    9MOL   C241 2337   1.457   3.218   3.345 -0.4404  0.7611 -0.0690
    9MOL   H242 2338   1.546   3.189   3.551  0.7925 -0.8291 -2.6403
    9MOL   H243 2339   1.350   3.397   3.583  0.3792 -1.4434  1.9620
    9MOL   H244 2340   1.479   3.632   3.673  1.5042 -1.1376 -0.3049
    9MOL   H245 2341   1.584   3.683   3.539  0.2871  1.2278 -0.5012
    9MOL   H246 2342   1.408   3.645   3.526 -0.2558 -1.3992 -1.3127
    9MOL   H247 2343   1.391   3.291   3.297  1.8246  1.0902 -2.7574
    9MOL   H248 2344   1.557   3.259   3.329 -0.5827  0.8312 -0.7882
    9MOL   C249 2345   1.454   3.076   3.286 -0.7306  0.7061  0.2942
    9MOL   N250 2346   1.544   3.086   3.168  0.5688  0.1777 -0.2125
    9MOL   C251 2347   1.648   3.000   3.133  0.9609  0.3405 -0.3156
    9MOL   O252 2348   1.673   2.914   3.211  0.0289 -0.2045 -0.2372
    9MOL   C253 2349   1.717   3.034   3.002  0.5832  0.1315  0.1094
    9MOL   C254 2350   1.315   3.027   3.251  0.1891 -0.3193  0.3439
    9MOL   H255 2351   1.508   3.010   3.354  0.1166 -1.7738 -2.6725
    9MOL   H256 2352   1.501   3.143   3.096 -2.8417 -0.8241  0.9548
    9MOL   H257 2353   1.756   2.940   2.963  2.3051 -0.0226  2.1056
    9MOL   H258 2354   1.640   3.069   2.934  1.0731  0.3118 -0.3521
    9MOL   H259 2355   1.798   3.106   3.009  1.6522 -1.0169 -0.1440
    9MOL   H260 2356   1.329   2.938   3.190  1.3436  1.7038 -2.4388
    9MOL   H261 2357   1.259   2.992   3.338 -0.2467 -1.7522 -0.4925
    9MOL   H262 2358   1.262   3.111   3.205  1.9299  1.0016  0.7048
   10MOL     C1 2359   7.712   2.048   1.922  0.1266  0.6234 -0.9112
   10MOL     N2 2360   7.616   2.040   2.034 -0.2770  0.2906 -0.0065
   10MOL     C3 2361   7.635   1.955   2.136 -0.5783 -0.4494  0.4158
   10MOL     O4 2362   7.728   1.877   2.146  0.7788 -0.0223 -0.3148
   10MOL     C5 2363   7.529   1.951   2.246  0.3101 -0.1605 -0.1317
   10MOL     C6 2364   7.651   2.104   1.784 -0.6436 -0.5063  0.4906
   10MOL     H7 2365   7.797   2.109   1.950  0.1967  1.2913 -2.5181
   10MOL     H8 2366   7.533   2.098   2.026  0.5995  1.3769 -1.6379
   10MOL     H9 2367   7.566   1.915   2.342 -0.5456  0.1386  0.3116
   10MOL    H10 2368   7.502   2.056   2.250 -4.2770 -1.2616  0.5385
   10MOL    H11 2369   7.447   1.891   2.206 -0.2976  0.3641  0.3175
   10MOL    H12 2370   7.571   2.036   1.753 -0.7221 -0.4195  0.5048
   10MOL    H13 2371   7.609   2.203   1.799 -0.8060 -0.5063  0.0188
   10MOL    H14 2372   7.757   1.950   1.906  1.1783 -0.0024  4.9981
   10MOL    C15 2373   7.766   2.095   1.677  0.1439 -0.3809 -0.4956
   10MOL    N16 2374   0.008   2.215   1.703  0.5776  0.6299  0.3989
   10MOL    C17 2375   0.138   2.218   1.730 -0.4682 -0.5775 -0.0709
   10MOL    O18 2376   0.215   2.124   1.741  0.5453  0.2222  0.2323
   10MOL    C19 2377   0.196   2.359   1.751 -0.0916 -1.3642  0.3568
   10MOL    C20 2378   7.700   2.111   1.535  0.0312 -0.0310 -0.0552
   10MOL    H21 2379   7.827   2.005   1.683  1.6542  0.6336 -0.4033
   10MOL    H22 2380   7.798   2.302   1.708  0.5801  0.7920 -1.9088
   10MOL    H23 2381   0.303   2.376   1.758 -0.6239  2.2176  0.9574
   10MOL    H24 2382   0.150   2.442   1.697  1.4662  0.5687  1.9392
   10MOL    H25 2383   0.171   2.392   1.852 -0.7127 -1.8724  0.3726
   10MOL    H26 2384   7.640   2.021   1.520 -2.7303  1.3321  2.2803
   10MOL    H27 2385   7.628   2.193   1.541 -0.2475 -0.3986  1.7691
   10MOL    C28 2386   7.798   2.130   1.422 -0.6754 -0.2139 -0.5142
   10MOL    N29 2387   7.716   2.134   1.296  0.8066 -1.0558  0.0334
   10MOL    C30 2388   7.707   2.234   1.209  0.2047  0.4631 -0.8107
   10MOL    O31 2389   7.760   2.342   1.227 -0.4703  0.0360  0.7684
   10MOL    C32 2390   7.628   2.203   1.084 -0.1010  0.6578 -0.6862
   10MOL    C33 2391   0.060   2.016   1.412 -0.2612 -0.3490 -0.5407
   10MOL    H34 2392   0.006   2.227   1.430 -0.1884 -0.4405 -0.6619
   10MOL    H35 2393   7.645   2.063   1.283 -0.5231  0.0781  0.9411
   10MOL    H36 2394   7.574   2.291   1.049  0.5158  0.7956 -1.3031
   10MOL    H37 2395   7.696   2.160   1.011  1.0080  0.3192  0.5213
   10MOL    H38 2396   7.553   2.125   1.098 -0.4297  1.3503  1.6298
   10MOL    H39 2397   0.111   2.004   1.508 -0.8435  2.9769  0.2392
   10MOL    H40 2398   0.000   1.925   1.404 -0.0510 -0.7134  1.7380
   10MOL    C41 2399   0.176   2.030   1.301  0.1250  0.2848  0.3596
   10MOL    N42 2400   0.235   1.898   1.302 -0.9592  0.0579  0.4818
   10MOL    C43 2401   0.321   1.842   1.217 -0.1130  0.2226  0.2132
   10MOL    O44 2402   0.377   1.911   1.138 -0.0545  0.0433  0.1689
   10MOL    C45 2403   0.346   1.695   1.224 -0.6097  0.2786 -0.2976
   10MOL    C46 2404   0.278   2.139   1.356 -0.6433  0.8198 -0.2457
   10MOL    H47 2405   0.146   2.052   1.199  0.8219 -0.5186 -0.0308
   10MOL    H48 2406   0.197   1.831   1.368  1.6491 -0.7544  1.1936
   10MOL    H49 2407   0.378   1.662   1.125  1.0879  2.4044 -0.5025
   10MOL    H50 2408   0.428   1.670   1.291 -0.9001 -2.4748 -0.9104
   10MOL    H51 2409   0.254   1.647   1.258 -0.2189 -0.3254 -0.0830
   10MOL    H52 2410   0.282   2.148   1.465 -1.3843  0.5456 -0.1925
   10MOL    H53 2411   0.375   2.108   1.316  0.2585  2.1064  0.9062
   10MOL    C54 2412   0.264   2.279   1.296  0.5235 -0.0802 -0.1163
   10MOL    N55 2413   0.348   2.281   1.173 -0.7248 -0.0640 -0.1156
   10MOL    C56 2414   0.311   2.339   1.057 -0.8654 -0.4370  0.5562
   10MOL    O57 2415   0.218   2.421   1.040  0.6872 -0.1011 -0.0655
   10MOL    C58 2416   0.404   2.296   0.937 -0.7670  0.1569 -0.3980
   10MOL    C59 2417   0.325   2.394   1.386 -0.2626 -0.3856 -0.0072
   10MOL    H60 2418   0.161   2.311   1.281  0.7273  0.3625 -0.5918
   10MOL    H61 2419   0.429   2.221   1.179  0.3310  1.6012  3.0981
   10MOL    H62 2420   0.505   2.330   0.962 -0.8400  0.4203 -0.4701
   10MOL    H63 2421   0.424   2.188   0.935  0.0893  0.3275 -1.7777
   10MOL    H64 2422   0.383   2.321   0.833  0.2768 -1.3443 -1.0023
   10MOL    H65 2423   0.294   2.490   1.343  2.0377  0.3702 -0.0414
   10MOL    H66 2424   0.272   2.388   1.481  1.2423  3.3708  1.1742
   10MOL    C67 2425   0.474   2.397   1.417 -0.0837  0.1345  0.1436
   10MOL    N68 2426   0.512   2.286   1.501  0.7127 -0.1066 -0.6720
   10MOL    C69 2427   0.600   2.196   1.461 -0.1138  0.5391  0.7969
   10MOL    O70 2428   0.639   2.185   1.340 -0.2487  0.0194 -0.7544
   10MOL    C71 2429   0.629   2.088   1.559  0.7595 -0.1201 -0.3328
   10MOL    C72 2430   0.509   2.532   1.492 -0.1221 -0.7881  0.3212
   10MOL    H73 2431   0.529   2.396   1.323  0.9679 -1.5268  0.7553
   10MOL    H74 2432   0.477   2.281   1.596 -2.0636 -0.2962 -1.6789
   10MOL    H75 2433   0.735   2.081   1.583  0.4530 -3.1527  0.3768
   10MOL    H76 2434   0.569   2.107   1.648  1.7070 -3.3579  1.0755
   10MOL    H77 2435   0.595   1.991   1.521 -0.9099  0.0058  0.8166
   10MOL    H78 2436   0.438   2.553   1.572  0.3544  1.7032  0.1040
   10MOL    H79 2437   0.606   2.508   1.534 -0.2705 -2.3954 -0.1922
   10MOL    C80 2438   0.530   2.659   1.403 -0.0928 -0.3133  0.5801
   10MOL    N81 2439   0.621   2.638   1.282  0.3415  0.0752  0.0428
   10MOL    C82 2440   0.741   2.581   1.283  0.3097  0.3528  0.3000
   10MOL    O83 2441   0.798   2.565   1.389  0.2785 -0.3367 -0.4123
   10MOL    C84 2442   0.821   2.545   1.158  0.4120  0.3424  0.3946
   10MOL    C85 2443   0.591   2.777   1.487  0.4983 -0.0281 -0.3686
   10MOL    H86 2444   0.440   2.708   1.367  0.2754 -0.2666 -0.2971
   10MOL    H87 2445   0.572   2.645   1.194 -0.8320 -1.2599  0.5670
   10MOL    H88 2446   0.787   2.449   1.121  3.2817 -1.2321  1.6765
   10MOL    H89 2447   0.808   2.624   1.084 -0.1408  0.0043  0.1286
   10MOL    H90 2448   0.928   2.528   1.175  0.5284 -0.4701 -1.0190
   10MOL    H91 2449   0.653   2.734   1.567  0.8115 -0.7142 -0.9674
   10MOL    H92 2450   0.657   2.835   1.422  0.0167  1.2888  0.3120
   10MOL    C93 2451   0.491   2.881   1.540 -0.0398  0.1463 -0.2635
   10MOL    N94 2452   0.584   2.975   1.606  1.1557  0.3941 -0.2673
   10MOL    C95 2453   0.585   3.112   1.594  0.3525 -0.0131  0.1176
   10MOL    O96 2454   0.505   3.178   1.528 -0.4753 -0.0356  0.1044
   10MOL    C97 2455   0.694   3.186   1.665  0.0271  0.8048 -0.0179
   10MOL    C98 2456   0.378   2.822   1.634 -0.2463 -0.6770  0.7834
   10MOL    H99 2457   0.459   2.940   1.454  0.4201 -1.2760 -1.4385
   10MOL   H100 2458   0.650   2.929   1.668  0.3329 -1.5659 -0.7977
   10MOL   H101 2459   0.763   3.226   1.589  0.2139 -0.5840 -0.5846
   10MOL   H102 2460   0.649   3.267   1.723 -0.5417  0.0246  0.6290
   10MOL   H103 2461   0.754   3.125   1.731 -1.4523 -1.2969 -0.5728
   10MOL   H104 2462   0.319   2.748   1.580 -1.1207 -0.4850  1.4809
   10MOL   H105 2463   0.435   2.767   1.709  2.4495 -0.4045 -0.9856
   10MOL   C106 2464   0.292   2.943   1.702  0.0504  0.0421 -0.8263
   10MOL   N107 2465   0.265   2.881   1.836 -0.2170 -0.6191  0.4851
   10MOL   C108 2466   0.181   2.782   1.866 -0.6978  0.2860  0.3051
   10MOL   O109 2467   0.109   2.729   1.789 -0.5768 -0.0857  0.1190
   10MOL   C110 2468   0.191   2.725   2.007  0.2315 -0.5079  0.7198
   10MOL   C111 2469   0.165   2.993   1.622 -0.3984  0.5430 -0.2436
   10MOL   H112 2470   0.360   3.026   1.717  1.4162 -1.1227 -0.4353
   10MOL   H113 2471   0.296   2.937   1.915 -0.5339 -0.6882  0.6566
   10MOL   H114 2472   0.201   2.617   2.003 -1.2694 -0.6207 -0.1268
   10MOL   H115 2473   0.273   2.780   2.054 -0.8113  2.4882 -0.8533
   10MOL   H116 2474   0.100   2.753   2.060 -0.8255 -0.9024 -0.8622
   10MOL   H117 2475   0.183   2.988   1.515 -0.1217 -1.4866 -0.1284
   10MOL   H118 2476   0.083   2.922   1.636  0.3059 -0.3020 -0.3622
   10MOL   C119 2477   0.125   3.138   1.658  0.5061 -0.0118  0.0773
   10MOL   N120 2478   0.112   3.167   1.798 -0.5362 -0.0277 -0.1685
   10MOL   C121 2479   0.203   3.242   1.863 -0.1153 -0.5288  0.0287
   10MOL   O122 2480   0.297   3.304   1.815  0.4462 -0.3783  0.1010
   10MOL   C123 2481   0.179   3.255   2.013  0.5169  0.6386 -0.4673
   10MOL   C124 2482   7.838   3.184   1.575 -0.1194  0.2096 -0.3241
   10MOL   H125 2483   0.206   3.195   1.612 -1.0387  1.4470 -0.8959
   10MOL   H126 2484   0.031   3.141   1.852 -1.6304  0.3110 -1.6352
   10MOL   H127 2485   0.104   3.328   2.041  1.6143  1.3631  0.5912
   10MOL   H128 2486   0.147   3.158   2.052  1.5901  0.5971  0.3397
   10MOL   H129 2487   0.275   3.283   2.056  1.1167  0.2026 -1.4894
   10MOL   H130 2488   7.824   3.290   1.593 -2.6511 -0.3118  1.0191
   10MOL   H131 2489   0.033   3.172   1.472 -0.2046 -0.5983 -0.2632
   10MOL   C132 2490   7.711   3.089   1.599 -0.2128 -0.6265  1.1432
   10MOL   N133 2491   7.636   3.092   1.465 -0.1383 -0.2060 -0.8997
   10MOL   C134 2492   7.564   2.993   1.411 -0.1986  0.3434  0.6707
   10MOL   O135 2493   7.570   2.877   1.465 -0.1341  0.0476 -0.3225
   10MOL   C136 2494   7.494   3.012   1.277 -0.4439  0.4204  0.3863
   10MOL   C137 2495   7.625   3.140   1.714  0.3209  0.0573  0.1143
   10MOL   H138 2496   7.734   2.989   1.636  1.2036  0.1486  2.3924
   10MOL   H139 2497   7.655   3.178   1.414 -1.4047  0.6136 -0.0307
   10MOL   H140 2498   7.411   3.082   1.289 -3.2408 -2.8176  0.6090
   10MOL   H141 2499   7.557   3.053   1.198  0.7734  2.1252  2.1837
   10MOL   H142 2500   7.446   2.919   1.247  2.2870 -0.9945  0.2219
   10MOL   H143 2501   7.694   3.171   1.792 -0.5720  0.7520  0.6230
   10MOL   H144 2502   7.577   3.229   1.674  0.5663 -0.2869 -0.9843
   10MOL   C145 2503   7.513   3.053   1.770  0.2346  0.3440  0.1435
   10MOL   N146 2504   7.414   3.137   1.833 -0.0914 -0.2149  0.3709
   10MOL   C147 2505   7.426   3.216   1.942 -0.8059 -0.2667  0.2118
   10MOL   O148 2506   7.520   3.223   2.023  0.1462  0.6369  0.4443
   10MOL   C149 2507   7.309   3.309   1.963 -0.1957 -0.0925  0.2203
   10MOL   C150 2508   7.561   2.930   1.860  0.8407  0.4023  0.3639
   10MOL   H151 2509   7.464   3.012   1.682  2.0916 -1.2778 -0.1697
   10MOL   H152 2510   7.327   3.148   1.783  1.5020  0.7245 -2.2730
   10MOL   H153 2511   7.346   3.407   1.991  3.6356 -1.4309  0.1364
   10MOL   H154 2512   7.254   3.318   1.869  2.5008 -0.2107 -1.4277
   10MOL   H155 2513   7.246   3.272   2.044  1.8848 -0.3003  1.7812
   10MOL   H156 2514   7.641   2.878   1.808  0.8783  1.1883 -0.3858
   10MOL   H157 2515   7.606   2.974   1.949  0.7367 -0.7176  0.9721
   10MOL   C158 2516   7.447   2.824   1.889 -0.5361  0.1528 -0.6065
   10MOL   N159 2517   7.479   2.749   2.011 -0.1671  0.0223 -0.0866
   10MOL   C160 2518   7.390   2.708   2.104  0.5202 -0.4162  0.0809
   10MOL   O161 2519   7.267   2.722   2.095 -0.2787  0.8155 -0.0214
   10MOL   C162 2520   7.448   2.648   2.229  0.3079  0.4481  0.6478
   10MOL   C163 2521   7.422   2.720   1.769 -0.5758 -0.7690  0.2012
   10MOL   H164 2522   7.355   2.881   1.901 -1.0366 -0.4437 -1.5507
   10MOL   H165 2523   7.576   2.772   2.026  0.2192  1.2805 -3.8819
   10MOL   H166 2524   7.548   2.609   2.213 -0.0847  0.5226 -2.3296
   10MOL   H167 2525   7.445   2.726   2.305 -2.0285  1.0235  0.0180
   10MOL   H168 2526   7.387   2.563   2.262 -3.1330  1.6504 -2.2445
   10MOL   H169 2527   7.467   2.761   1.679 -3.2352 -0.0120 -0.7993
   10MOL   H170 2528   7.475   2.625   1.784 -0.3988 -0.7174 -0.0861
   10MOL   C171 2529   7.276   2.694   1.740 -0.3090  0.4786 -0.4928
   10MOL   N172 2530   7.270   2.578   1.651 -0.0186 -0.1433 -0.4205
   10MOL   C173 2531   7.170   2.493   1.637  0.6954 -0.0970  0.3636
   10MOL   O174 2532   7.058   2.508   1.689 -0.8584  0.6789 -0.2567
   10MOL   C175 2533   7.189   2.388   1.528  0.1882 -0.1924 -0.3552
   10MOL   C176 2534   7.209   2.819   1.673 -0.5775 -0.2590  0.1405
   10MOL   H177 2535   7.233   2.669   1.837  0.0281  0.6631 -0.2968
   10MOL   H178 2536   7.356   2.574   1.599  2.1156  1.1409  2.8361
   10MOL   H179 2537   7.181   2.419   1.424 -2.1065 -2.2575 -0.8499
   10MOL   H180 2538   7.284   2.334   1.535 -0.4813 -1.2324  1.0217
   10MOL   H181 2539   7.109   2.315   1.542  0.0040 -0.0845 -0.8328
   10MOL   H182 2540   7.257   2.906   1.716 -1.5266  0.0379  0.6204
   10MOL   H183 2541   7.228   2.807   1.566 -1.7807 -5.7945  0.3737
   10MOL   C184 2542   7.057   2.837   1.702  0.0665  0.3511  1.0208
   10MOL   N185 2543   6.987   2.945   1.630  0.1826  0.1465 -0.3373
   10MOL   C186 2544   7.022   3.071   1.622 -0.7919 -0.2031 -0.2947
   10MOL   O187 2545   7.116   3.120   1.679 -0.0909  0.0243 -0.7835
   10MOL   C188 2546   6.941   3.156   1.527  0.1265 -0.1348 -0.0273
   10MOL   C189 2547   7.037   2.861   1.854 -0.2550  0.0497  1.0948
   10MOL   H190 2548   6.995   2.751   1.676  0.5826  0.7076 -1.4913
   10MOL   H191 2549   6.903   2.914   1.583  1.7132 -1.3158 -2.2062
   10MOL   H192 2550   6.867   3.098   1.471 -2.1103  1.7636  0.8483
   10MOL   H193 2551   6.895   3.225   1.598  1.4362 -0.4398  1.1441
   10MOL   H194 2552   7.000   3.216   1.458  0.4100 -0.6426 -0.2321
   10MOL   H195 2553   7.130   2.828   1.900 -1.5881 -0.2537  3.6186
   10MOL   H196 2554   7.020   2.967   1.871  0.5382  0.4436 -0.4429
   10MOL   C197 2555   6.930   2.772   1.925  0.1287 -0.1384 -0.8939
   10MOL   N198 2556   6.957   2.632   1.914 -0.2060 -0.0434 -0.1591
   10MOL   C199 2557   6.984   2.551   2.020  0.4591  0.1207 -0.2728
   10MOL   O200 2558   6.984   2.586   2.137 -0.0129 -0.0152  0.3262
   10MOL   C201 2559   7.031   2.408   1.984 -0.5322  0.3852 -0.4655
   10MOL   C202 2560   6.788   2.798   1.878  0.3547  0.1711 -0.0069
   10MOL   H203 2561   6.940   2.796   2.031  2.2040 -2.5638 -0.4987
   10MOL   H204 2562   6.978   2.596   1.822  0.8943 -1.1333  0.4954
   10MOL   H205 2563   7.101   2.408   1.900 -2.1294  0.3431 -1.8325
   10MOL   H206 2564   7.067   2.352   2.070  0.3025 -0.5181 -1.3709
   10MOL   H207 2565   6.942   2.349   1.961 -0.5944  0.2276  0.1666
   10MOL   H208 2566   6.771   2.903   1.855  0.8489 -0.4642 -3.5585
   10MOL   H209 2567   6.781   2.743   1.785  0.6454 -0.8553  0.5687
   10MOL   C210 2568   6.674   2.744   1.966  0.1791 -0.1131 -0.5206
   10MOL   N211 2569   6.547   2.748   1.890 -0.0628  0.3121 -0.0941
   10MOL   C212 2570   6.486   2.652   1.816 -0.3277 -0.2083 -0.1271
   10MOL   O213 2571   6.374   2.667   1.767 -0.0385  0.0091 -0.1441
   10MOL   C214 2572   6.559   2.519   1.797 -0.1864 -0.6411  0.2400
   10MOL   C215 2573   6.665   2.831   2.091  1.0540  0.3013  0.4751
   10MOL   H216 2574   6.688   2.641   1.998  0.1418  0.2585  0.6941
   10MOL   H217 2575   6.488   2.828   1.907 -1.5081 -0.7308 -0.0775
   10MOL   H218 2576   6.512   2.450   1.728  0.1073 -0.3067 -0.2964
   10MOL   H219 2577   6.660   2.526   1.757 -0.9191 -1.6291 -1.8150
   10MOL   H220 2578   6.564   2.472   1.895  1.6632  0.7485  0.8405
   10MOL   H221 2579   6.759   2.839   2.146  0.7846 -1.7587  1.2860
   10MOL   H222 2580   6.644   2.933   2.060 -0.7980 -0.3890 -0.6269
   10MOL   C223 2581   6.545   2.805   2.194  0.5129  0.8144  0.2978
   10MOL   N224 2582   6.544   2.913   2.298  0.1667 -0.7655  0.4771
   10MOL   C225 2583   6.443   2.975   2.346 -0.0112 -0.1412  0.3546
   10MOL   O226 2584   6.324   2.940   2.322  0.2209  0.0418  0.2286
   10MOL   C227 2585   6.465   3.102   2.423 -0.3688 -0.4437 -0.2102
   10MOL   C228 2586   6.566   2.670   2.265  0.4790  0.5047 -0.4355
   10MOL   H229 2587   6.452   2.795   2.138  2.2465 -0.2799 -2.4930
   10MOL   H230 2588   6.634   2.951   2.326 -1.5937  2.3570  2.1392
   10MOL   H231 2589   6.572   3.108   2.444 -0.6324 -1.1656  1.4763
   10MOL   H232 2590   6.422   3.190   2.375 -0.8767 -0.5256  0.0831
   10MOL   H233 2591   6.418   3.084   2.520 -0.7833 -2.4324 -0.7513
   10MOL   H234 2592   6.481   2.655   2.331  1.7560 -1.1272  0.8967
   10MOL   H235 2593   6.541   2.588   2.197  0.2625 -0.5104  0.8447
   10MOL   C236 2594   6.700   2.640   2.344 -0.2949  1.0197 -0.6672
   10MOL   N237 2595   6.778   2.521   2.309  0.1412  0.1015  0.1169
   10MOL   C238 2596   6.740   2.397   2.331  0.3558 -0.1026 -0.2306
   10MOL   O239 2597   6.622   2.370   2.368 -0.7972  0.4200 -0.2902
   10MOL   C240 2598   6.839   2.287   2.304  0.3196  0.4443  0.4801
   10MOL   C241 2599   6.690   2.646   2.505  0.6663  0.1117 -0.2583
   10MOL   H242 2600   6.762   2.724   2.313  3.3002 -1.4670 -0.5640
   10MOL   H243 2601   6.866   2.540   2.263  0.0048  0.6071  0.0716
   10MOL   H244 2602   6.832   2.257   2.200  2.1834  1.1929  0.1096
   10MOL   H245 2603   6.943   2.318   2.320  0.5219 -0.8033  1.6696
   10MOL   H246 2604   6.823   2.208   2.377  0.5886 -0.3944 -0.3501
   10MOL   H247 2605   6.587   2.620   2.529  1.2709 -2.2783 -0.1091
   10MOL   H248 2606   6.758   2.569   2.541 -0.2276 -0.0524  1.1163
   10MOL   C249 2607   6.718   2.778   2.564 -0.7017  0.2019 -0.0362
   10MOL   N250 2608   6.852   2.830   2.531 -0.0103 -0.1329 -0.1615
   10MOL   C251 2609   6.894   2.944   2.472  0.4319  0.4585 -1.2115
   10MOL   O252 2610   6.813   3.024   2.428 -0.2890 -0.2248  0.5914
   10MOL   C253 2611   7.036   2.969   2.424  0.2957 -0.1041  0.2462
   10MOL   C254 2612   6.697   2.775   2.719 -0.4475  0.1343  0.9085
   10MOL   H255 2613   6.649   2.844   2.512 -0.2415 -0.7694 -1.9182
   10MOL   H256 2614   6.923   2.765   2.560  0.1432 -0.0810 -0.4222
   10MOL   H257 2615   7.109   2.901   2.469 -1.0600 -0.2690  2.2207
   10MOL   H258 2616   7.043   2.941   2.319  0.3584  0.8549 -0.0148
   10MOL   H259 2617   7.062   3.072   2.448 -0.3497  0.5597 -1.7945
   10MOL   H260 2618   6.715   2.876   2.757  0.3443  0.0089  0.8778
   10MOL   H261 2619   6.594   2.744   2.736 -0.4118 -0.4192  0.1498
   10MOL   H262 2620   6.773   2.713   2.767  1.8090  0.6209 -1.8576
   11MOL     C1 2621   2.459   4.602   5.124  0.2561 -0.0276  0.0840
   11MOL     N2 2622   2.513   4.653   4.998  0.0896 -0.2155  0.2092
   11MOL     C3 2623   2.481   4.597   4.879 -0.3762  0.1682 -0.2469
   11MOL     O4 2624   2.404   4.501   4.865 -0.3146 -0.1225 -0.1121
   11MOL     C5 2625   2.524   4.668   4.750  0.2109  0.2010  0.1458
   11MOL     C6 2626   2.452   4.700   5.236 -0.0075  0.1904  0.1370
   11MOL     H7 2627   2.360   4.564   5.101  0.5905 -0.5525 -0.4954
   11MOL     H8 2628   2.568   4.737   4.995 -0.1269 -0.0850 -0.1034
   11MOL     H9 2629   2.533   4.601   4.664 -0.3628 -0.5323  0.6468
   11MOL    H10 2630   2.452   4.749   4.734 -1.4578 -1.3718 -0.5437
   11MOL    H11 2631   2.616   4.725   4.753 -0.3585  1.1871 -0.5248
   11MOL    H12 2632   2.550   4.744   5.253  0.2817 -1.0217  1.6552
   11MOL    H13 2633   2.387   4.785   5.212  0.5400  0.5293 -0.1618
   11MOL    H14 2634   2.530   4.523   5.149 -0.5500 -1.2278 -1.3900
   11MOL    C15 2635   2.402   4.630   5.369  0.1045  0.4157  0.1737
   11MOL    N16 2636   2.273   4.570   5.353 -0.4256 -0.6449  0.3547
   11MOL    C17 2637   2.152   4.619   5.337  0.1997 -0.1044  0.3739
   11MOL    O18 2638   2.124   4.740   5.349  0.4822  0.1494  0.7194
   11MOL    C19 2639   2.046   4.525   5.302  0.8235 -0.0268  0.3862
   11MOL    C20 2640   2.411   4.711   5.500 -0.1577 -0.3781 -0.1865
   11MOL    H21 2641   2.470   4.547   5.385  1.3580  1.6963  1.6022
   11MOL    H22 2642   2.286   4.471   5.339  1.1587 -0.1647 -1.8027
   11MOL    H23 2643   1.972   4.532   5.382 -0.6389 -1.7854 -0.7838
   11MOL    H24 2644   1.998   4.560   5.210  0.0843  2.2782  1.5979
   11MOL    H25 2645   2.079   4.423   5.286 -1.2964 -0.8333  0.9996
   11MOL    H26 2646   2.353   4.802   5.483 -1.3717 -1.0391  0.3054
   11MOL    H27 2647   2.362   4.650   5.576 -2.0404 -0.3517 -1.3368
   11MOL    C28 2648   2.561   4.749   5.550 -0.3496  0.0081 -0.0846
   11MOL    N29 2649   2.632   4.634   5.599  0.1718  0.4754 -0.6479
   11MOL    C30 2650   2.713   4.554   5.530  0.5670  0.6746  0.0891
   11MOL    O31 2651   2.735   4.553   5.412  0.5428 -1.0437  0.5041
   11MOL    C32 2652   2.791   4.461   5.624  0.7956  0.1297  0.1599
   11MOL    C33 2653   2.548   4.861   5.655 -0.5194  0.1059  0.3488
   11MOL    H34 2654   2.630   4.784   5.473 -0.0850 -1.7624 -0.6642
   11MOL    H35 2655   2.618   4.612   5.697  0.2335 -2.5271 -1.2581
   11MOL    H36 2656   2.873   4.517   5.670 -0.2996  2.8382 -1.0366
   11MOL    H37 2657   2.726   4.413   5.696  0.7861 -0.8901 -0.5249
   11MOL    H38 2658   2.845   4.391   5.561  0.7207 -0.5074  0.8128
   11MOL    H39 2659   2.483   4.944   5.624 -0.7718 -0.1363  0.2294
   11MOL    H40 2660   2.486   4.819   5.734 -2.8667 -1.0169 -2.0231
   11MOL    C41 2661   2.677   4.923   5.726 -0.7697  0.4029  0.4165
   11MOL    N42 2662   2.752   4.824   5.804 -0.8475  0.2711 -0.4123
   11MOL    C43 2663   2.873   4.834   5.858 -0.0873  0.6642  0.1518
   11MOL    O44 2664   2.946   4.929   5.820  0.8965 -0.0526 -0.4946
   11MOL    C45 2665   2.927   4.721   5.952 -0.2162 -0.0057  0.0779
   11MOL    C46 2666   2.656   5.059   5.812 -0.0991 -0.0205  0.3280
   11MOL    H47 2667   2.737   4.960   5.643 -0.9405  2.2106  1.0660
   11MOL    H48 2668   2.711   4.732   5.808 -1.4804  0.5191 -1.1496
   11MOL    H49 2669   2.879   4.712   6.049  0.3711  1.4799  0.5190
   11MOL    H50 2670   2.918   4.628   5.896  1.2016 -0.6457  0.8717
   11MOL    H51 2671   3.029   4.747   5.981  0.2390 -0.8262 -0.7623
   11MOL    H52 2672   2.586   5.034   5.891  0.3000  1.1375  1.0631
   11MOL    H53 2673   2.750   5.098   5.851 -1.0808  1.2109  1.4990
   11MOL    C54 2674   2.594   5.177   5.730  0.4061 -0.0269  0.1808
   11MOL    N55 2675   2.691   5.215   5.625  0.1141  0.2558  0.0064
   11MOL    C56 2676   2.656   5.220   5.495 -0.1861  0.1798 -0.1085
   11MOL    O57 2677   2.555   5.176   5.446 -0.1662  0.1645 -0.0560
   11MOL    C58 2678   2.751   5.284   5.400 -0.1697 -0.4647 -0.1071
   11MOL    C59 2679   2.568   5.305   5.804 -0.1317  0.0200  0.0789
   11MOL    H60 2680   2.498   5.145   5.689 -0.6584  2.4344  0.7078
   11MOL    H61 2681   2.785   5.223   5.662  1.3045 -3.8208 -1.7425
   11MOL    H62 2682   2.701   5.293   5.304 -0.9458 -1.8236  0.1594
   11MOL    H63 2683   2.782   5.383   5.434  2.6422 -1.1728 -0.5035
   11MOL    H64 2684   2.839   5.221   5.394 -0.9249 -1.3764 -1.8173
   11MOL    H65 2685   2.648   5.313   5.878  2.8671  0.2264 -3.0776
   11MOL    H66 2686   2.584   5.395   5.745  0.0740 -1.2237 -1.7805
   11MOL    C67 2687   2.424   5.330   5.859  0.5958 -0.0721  0.1494
   11MOL    N68 2688   2.399   5.474   5.881  0.1042  0.0594 -0.4840
   11MOL    C69 2689   2.471   5.558   5.953 -0.5915  0.5807 -0.3425
   11MOL    O70 2690   2.566   5.522   6.022 -0.3442 -0.1889 -0.0197
   11MOL    C71 2691   2.418   5.704   5.956  0.0355 -0.2342 -0.3729
   11MOL    C72 2692   2.383   5.256   5.993 -0.0159  0.4664 -0.7079
   11MOL    H73 2693   2.345   5.298   5.791  0.8825 -2.1946  0.7816
   11MOL    H74 2694   2.312   5.510   5.844  0.6003 -0.1658 -1.8756
   11MOL    H75 2695   2.393   5.712   6.062  1.0143  0.0043 -0.1525
   11MOL    H76 2696   2.488   5.775   5.911 -0.7568  0.7656 -0.0394
   11MOL    H77 2697   2.328   5.706   5.895  2.0318 -0.3533 -3.4237
   11MOL    H78 2698   2.478   5.234   6.042 -1.1889 -0.6604  1.1323
   11MOL    H79 2699   2.316   5.310   6.059  1.9074  1.2050  0.6772
   11MOL    C80 2700   2.320   5.111   5.975 -0.4798 -0.3970 -0.1406
   11MOL    N81 2701   2.183   5.115   5.923  0.2429 -0.2009  0.3702
   11MOL    C82 2702   2.145   5.074   5.799 -0.4132  0.3087 -0.4470
   11MOL    O83 2703   2.232   5.024   5.717  0.0070  0.3686 -0.0648
   11MOL    C84 2704   2.001   5.104   5.764  0.5462  0.0910  0.2853
   11MOL    C85 2705   2.347   5.026   6.100 -0.0524 -0.0679  1.2921
   11MOL    H86 2706   2.378   5.072   5.891 -0.4588  1.5970 -1.0806
   11MOL    H87 2707   2.101   5.147   5.973 -0.3143  0.7468 -1.1342
   11MOL    H88 2708   1.979   5.211   5.763 -2.5350 -0.4874 -0.0930
   11MOL    H89 2709   1.985   5.067   5.663  2.4401 -0.7912  0.2909
   11MOL    H90 2710   1.946   5.058   5.847 -0.3516  1.4196  0.4518
   11MOL    H91 2711   2.455   5.037   6.116 -0.0147 -0.9644  1.6918
   11MOL    H92 2712   2.307   5.065   6.194 -0.0534  1.7114  0.5574
   11MOL    C93 2713   2.310   4.877   6.098 -0.4158 -0.5925 -0.8929
   11MOL    N94 2714   2.170   4.860   6.135  0.0240 -0.0131  0.3577
   11MOL    C95 2715   2.078   4.802   6.063  0.0013 -0.0247 -0.6390
   11MOL    O96 2716   2.095   4.767   5.943  0.9764 -0.0514 -0.4384
   11MOL    C97 2717   1.942   4.796   6.123  0.5056 -0.3976 -0.5837
   11MOL    C98 2718   2.385   4.790   6.207  1.1560  0.3170  0.5096
   11MOL    H99 2719   2.322   4.841   5.996 -1.8320  1.9715 -2.0200
   11MOL   H100 2720   2.141   4.902   6.222  2.2798  0.2589  1.0275
   11MOL   H101 2721   1.923   4.696   6.163  0.4962 -0.5343 -0.9253
   11MOL   H102 2722   1.920   4.866   6.204  0.8176 -1.4163  0.3984
   11MOL   H103 2723   1.867   4.813   6.046 -0.4511  2.2461  0.8544
   11MOL   H104 2724   2.409   4.843   6.299  3.1797  0.2972  0.0229
   11MOL   H105 2725   2.317   4.713   6.240 -0.3908  1.9606  1.2532
   11MOL   C106 2726   2.500   4.709   6.155  0.7259  0.1984  0.8109
   11MOL   N107 2727   2.450   4.603   6.059 -0.4868  0.0003 -0.2073
   11MOL   C108 2728   2.524   4.542   5.960 -0.3297  0.3091  0.2041
   11MOL   O109 2729   2.615   4.596   5.904 -0.1444  0.0260  0.2426
   11MOL   C110 2730   2.472   4.405   5.914  0.0515  0.1539  0.5997
   11MOL   C111 2731   2.600   4.655   6.266 -1.1360  0.2442 -0.4581
   11MOL   H112 2732   2.555   4.775   6.088  1.0800  1.8474  2.6788
   11MOL   H113 2733   2.367   4.556   6.093 -0.3584 -0.0588  0.0311
   11MOL   H114 2734   2.419   4.353   5.994 -0.9058  0.7516  0.3602
   11MOL   H115 2735   2.406   4.417   5.828  2.2584  0.6164 -1.0753
   11MOL   H116 2736   2.559   4.343   5.891  1.2291  1.4749  1.4525
   11MOL   H117 2737   2.555   4.587   6.338  0.4150  0.6273  0.9181
   11MOL   H118 2738   2.671   4.594   6.210 -2.5501  1.7488 -4.0279
   11MOL   C119 2739   2.678   4.763   6.352  0.3782  0.0143 -0.1090
   11MOL   N120 2740   2.749   4.866   6.269  0.0343  0.5035  0.0979
   11MOL   C121 2741   2.724   4.999   6.251  0.3712  0.3730 -0.1220
   11MOL   O122 2742   2.634   5.067   6.300  0.1267  0.0511 -0.3054
   11MOL   C123 2743   2.822   5.071   6.169 -0.0294 -0.1584  0.7235
   11MOL   C124 2744   2.783   4.694   6.433  0.1095  0.2723  0.4269
   11MOL   H125 2745   2.618   4.816   6.426 -0.3903 -1.8620  0.6206
   11MOL   H126 2746   2.834   4.838   6.223  0.2110 -1.2970  1.4923
   11MOL   H127 2747   2.871   5.007   6.095 -1.3852 -1.1796  0.6908
   11MOL   H128 2748   2.778   5.151   6.109 -0.3663 -0.6053  0.3614
   11MOL   H129 2749   2.890   5.102   6.248 -0.1896 -1.2617  1.3171
   11MOL   H130 2750   2.856   4.639   6.373 -1.0005 -1.0505  0.2569
   11MOL   H131 2751   2.854   4.770   6.464 -0.2562  0.7852 -0.0071
   11MOL   C132 2752   2.747   4.602   6.547  0.6441  0.6258 -0.4264
   11MOL   N133 2753   2.788   4.661   6.676 -0.3752  0.0215  0.1097
   11MOL   C134 2754   2.719   4.758   6.737 -0.0675  0.3373  0.7677
   11MOL   O135 2755   2.604   4.790   6.701  0.2779 -0.1691  0.1948
   11MOL   C136 2756   2.786   4.808   6.867  0.0140  0.4722  0.7042
   11MOL   C137 2757   2.840   4.478   6.545  0.3673  0.4773  0.3734
   11MOL   H138 2758   2.641   4.578   6.546  0.6927  0.3683  0.3028
   11MOL   H139 2759   2.880   4.637   6.709  0.1006  1.1974 -0.3418
   11MOL   H140 2760   2.875   4.861   6.834 -1.4070  2.1430 -0.6185
   11MOL   H141 2761   2.717   4.885   6.904 -0.5537 -0.5602  1.8119
   11MOL   H142 2762   2.810   4.735   6.944 -0.4887 -0.6180 -0.1533
   11MOL   H143 2763   2.943   4.510   6.533  1.1920 -2.0591  0.3682
   11MOL   H144 2764   2.842   4.432   6.644  1.9452 -0.4184 -0.0591
   11MOL   C145 2765   2.811   4.370   6.434  0.4209 -0.6594 -0.7338
   11MOL   N146 2766   2.672   4.323   6.450  0.2677 -0.6014  0.1081
   11MOL   C147 2767   2.589   4.287   6.348 -0.2210  0.2731 -0.1527
   11MOL   O148 2768   2.606   4.317   6.229 -0.3217 -0.1751  0.1613
   11MOL   C149 2769   2.465   4.212   6.380 -0.0620 -0.4750  0.0980
   11MOL   C150 2770   2.925   4.269   6.433 -0.0986  0.4724  0.3527
   11MOL   H151 2771   2.798   4.418   6.337 -0.2683 -3.0206 -1.8536
   11MOL   H152 2772   2.632   4.291   6.537 -0.5269  0.5287  0.1804
   11MOL   H153 2773   2.468   4.104   6.398 -1.8044 -1.2111 -3.5568
   11MOL   H154 2774   2.425   4.259   6.470  0.5799  2.4473 -1.0986
   11MOL   H155 2775   2.384   4.222   6.309  0.1717 -0.2637 -0.1374
   11MOL   H156 2776   3.015   4.327   6.413  1.8921 -2.9456 -1.0482
   11MOL   H157 2777   2.939   4.232   6.534 -0.5142 -1.3790 -0.2576
   11MOL   C158 2778   2.938   4.160   6.328  0.6177 -0.2752  0.3343
   11MOL   N159 2779   2.875   4.217   6.205  0.0785 -0.5807  0.0521
   11MOL   C160 2780   2.941   4.291   6.114 -0.2733  0.5391  0.0504
   11MOL   O161 2781   3.062   4.289   6.116  0.1016  0.3033 -0.1994
   11MOL   C162 2782   2.865   4.359   6.005 -0.5758  0.0586  0.6306
   11MOL   C163 2783   2.869   4.024   6.359  0.1480  0.5999 -0.1610
   11MOL   H164 2784   3.045   4.152   6.312  0.8977  0.3053  1.8071
   11MOL   H165 2785   2.775   4.230   6.206  0.1157  0.7081 -3.7232
   11MOL   H166 2786   2.919   4.371   5.911 -0.0208 -1.7177  0.7097
   11MOL   H167 2787   2.779   4.302   5.971  0.9373 -2.8673  1.4816
   11MOL   H168 2788   2.836   4.456   6.044 -2.0036  0.7368 -2.0334
   11MOL   H169 2789   2.766   4.049   6.385  0.0435 -0.2696  0.2661
   11MOL   H170 2790   2.864   3.967   6.267  1.7593  0.7988 -0.3884
   11MOL   C171 2791   2.916   3.940   6.479  0.0135 -0.0940  0.0760
   11MOL   N172 2792   3.062   3.927   6.473 -0.1513  0.4175  0.0581
   11MOL   C173 2793   3.161   3.989   6.540  0.2206 -0.5982 -0.4896
   11MOL   O174 2794   3.140   4.088   6.614 -0.4041  0.1343 -0.4223
   11MOL   C175 2795   3.301   3.938   6.536 -0.0448  0.0017  0.0677
   11MOL   C176 2796   2.854   3.796   6.491  0.1680 -0.4049  0.0837
   11MOL   H177 2797   2.878   3.991   6.568  2.0824 -0.0865  0.9839
   11MOL   H178 2798   3.096   3.844   6.427 -1.7830  0.1123 -0.6445
   11MOL   H179 2799   3.355   3.976   6.449 -0.3618  0.6812  0.1644
   11MOL   H180 2800   3.357   3.972   6.623 -2.2430  1.1928  1.0655
   11MOL   H181 2801   3.307   3.829   6.534 -1.6676 -0.0980 -1.8952
   11MOL   H182 2802   2.888   3.747   6.399  0.5949  0.0180  0.0105
   11MOL   H183 2803   2.902   3.750   6.577 -1.7597  0.2171  1.5245
   11MOL   C184 2804   2.701   3.777   6.509 -0.3716  0.1895 -0.1141
   11MOL   N185 2805   2.680   3.633   6.525  0.0657 -0.2688  0.2014
   11MOL   C186 2806   2.612   3.570   6.621 -0.1105 -0.1458  0.5079
   11MOL   O187 2807   2.563   3.634   6.709 -0.0781 -0.2695  0.1658
   11MOL   C188 2808   2.597   3.417   6.608 -0.2024  0.2869  0.0985
   11MOL   C189 2809   2.602   3.829   6.404  0.2431 -0.4842 -0.6565
   11MOL   H190 2810   2.680   3.827   6.603 -1.3748 -1.1512  0.3992
   11MOL   H191 2811   2.721   3.572   6.457  1.6513  0.5019  0.4312
   11MOL   H192 2812   2.690   3.364   6.627  0.5306  1.6157  0.2967
   11MOL   H193 2813   2.529   3.376   6.682  0.7946 -1.1419  0.2384
   11MOL   H194 2814   2.571   3.398   6.504 -1.1899 -0.6169  0.4978
   11MOL   H195 2815   2.507   3.800   6.446 -0.9460  1.3999 -1.9554
   11MOL   H196 2816   2.596   3.938   6.407 -2.9987 -0.6852  1.5380
   11MOL   C197 2817   2.614   3.776   6.264  0.5128 -1.1370 -0.1138
   11MOL   N198 2818   2.552   3.871   6.177  0.1922 -0.2024 -0.0574
   11MOL   C199 2819   2.591   3.930   6.066 -0.7052  0.3154 -0.7286
   11MOL   O200 2820   2.688   3.896   6.001 -0.1442 -0.0225  0.2109
   11MOL   C201 2821   2.514   4.050   6.021  0.2755 -0.6598 -0.4780
   11MOL   C202 2822   2.546   3.636   6.240 -0.8576  0.1203 -0.1882
   11MOL   H203 2823   2.722   3.772   6.246  1.1031 -0.8253  3.0450
   11MOL   H204 2824   2.470   3.923   6.205  0.0438 -0.1003 -0.6717
   11MOL   H205 2825   2.484   4.122   6.098  0.9303  0.7501 -1.5171
   11MOL   H206 2826   2.564   4.116   5.951 -0.2291  1.4897  1.1021
   11MOL   H207 2827   2.427   4.026   5.960 -0.9645 -0.7932  1.2822
   11MOL   H208 2828   2.502   3.601   6.334  1.1626  0.1793  0.7895
   11MOL   H209 2829   2.457   3.644   6.177  0.2783 -3.4043 -2.3131
   11MOL   C210 2830   2.633   3.519   6.191  0.1323  0.3812 -1.7421
   11MOL   N211 2831   2.709   3.569   6.074 -0.2723  0.2233 -0.2402
   11MOL   C212 2832   2.837   3.544   6.047 -0.0822  0.2386 -0.2821
   11MOL   O213 2833   2.915   3.489   6.124 -0.3331  0.0017  0.2857
   11MOL   C214 2834   2.883   3.590   5.907 -0.2890  0.2562 -1.0079
   11MOL   C215 2835   2.546   3.390   6.167 -0.8737 -0.0489  0.1547
   11MOL   H216 2836   2.699   3.492   6.273 -3.5044 -0.0673  1.1640
   11MOL   H217 2837   2.657   3.620   6.004  1.5628  2.3073 -0.1500
   11MOL   H218 2838   2.868   3.519   5.826  0.9514  0.4420 -1.4150
   11MOL   H219 2839   2.809   3.667   5.883 -0.0732  0.1677 -1.9819
   11MOL   H220 2840   2.985   3.629   5.912  0.5081 -1.9160  0.4315
   11MOL   H221 2841   2.510   3.361   6.266  0.6461 -1.1683  0.3974
   11MOL   H222 2842   2.453   3.414   6.116 -0.7908  1.0327  0.4935
   11MOL   C223 2843   2.616   3.267   6.105  0.0881 -0.6436 -0.3743
   11MOL   N224 2844   2.657   3.296   5.966 -0.0382  0.4114  0.0931
   11MOL   C225 2845   2.746   3.252   5.883  0.1637  0.5515 -0.1921
   11MOL   O226 2846   2.744   3.277   5.762 -0.1364  0.2797  0.0559
   11MOL   C227 2847   2.846   3.159   5.946 -0.7148 -0.2720 -0.8296
   11MOL   C228 2848   2.524   3.140   6.086  0.2880  0.1292  0.5678
   11MOL   H229 2849   2.707   3.244   6.160  0.2120  1.3398  0.3148
   11MOL   H230 2850   2.583   3.354   5.930 -0.5343 -0.0850  0.3055
   11MOL   H231 2851   2.860   3.151   6.054 -1.1641 -1.1903 -0.8360
   11MOL   H232 2852   2.826   3.060   5.905  0.4266 -0.7376 -0.3096
   11MOL   H233 2853   2.946   3.193   5.919  0.1958 -0.8621  1.6265
   11MOL   H234 2854   2.434   3.179   6.039  1.3318  0.0084 -1.5739
   11MOL   H235 2855   2.573   3.070   6.019  0.8862  0.3066  0.8109
   11MOL   C236 2856   2.493   3.063   6.217  0.2969  0.2194  0.1472
   11MOL   N237 2857   2.618   3.022   6.276 -0.2761  0.0456  0.0662
   11MOL   C238 2858   2.675   3.064   6.388  0.6767 -0.6844 -0.1387
   11MOL   O239 2859   2.614   3.129   6.472 -0.0187  0.2336  0.6302
   11MOL   C240 2860   2.828   3.036   6.390  0.0926  0.4700 -0.5953
   11MOL   C241 2861   2.411   2.935   6.190  0.0634 -0.8030  0.0288
   11MOL   H242 2862   2.435   3.130   6.280  1.9178 -0.2233  2.1438
   11MOL   H243 2863   2.680   2.969   6.217 -1.2809  0.5340 -1.4517
   11MOL   H244 2864   2.878   3.093   6.468 -0.4205  0.7736 -0.4875
   11MOL   H245 2865   2.829   2.928   6.409 -1.5488  0.1087 -2.4054
   11MOL   H246 2866   2.874   3.043   6.291  2.8667  0.4076  0.6452
   11MOL   H247 2867   2.458   2.883   6.107  0.2201 -0.1664 -0.2875
   11MOL   H248 2868   2.422   2.868   6.275 -0.5200  1.1478  1.6868
   11MOL   C249 2869   2.259   2.934   6.153  1.1769 -0.3704 -0.4807
   11MOL   N250 2870   2.222   3.021   6.045 -0.2704 -0.1757  0.0046
   11MOL   C251 2871   2.168   2.989   5.923  0.8165 -0.7411 -0.8793
   11MOL   O252 2872   2.096   2.892   5.905 -0.4942  0.6020 -0.4068
   11MOL   C253 2873   2.202   3.077   5.806 -0.2640  0.0924  0.0774
   11MOL   C254 2874   2.180   2.966   6.277 -0.9732 -0.0977 -0.4831
   11MOL   H255 2875   2.234   2.833   6.121 -2.4319  0.6240 -1.0430
   11MOL   H256 2876   2.278   3.104   6.033 -0.6534 -0.0240 -0.7871
   11MOL   H257 2877   2.176   3.032   5.710 -2.5534 -1.5736  1.4170
   11MOL   H258 2878   2.142   3.166   5.824 -1.1951 -0.8476  1.7662
   11MOL   H259 2879   2.308   3.101   5.802  0.0085 -0.7509  1.9906
   11MOL   H260 2880   2.073   2.958   6.255 -0.6297 -0.5660 -2.0795
   11MOL   H261 2881   2.197   2.892   6.355  0.4914 -0.3535 -1.0373
   11MOL   H262 2882   2.202   3.063   6.320 -0.5941 -0.5034  0.2443
   12MOL     C1 2883   5.085   4.828   3.699  0.2786 -0.3158  0.1018
   12MOL     N2 2884   5.012   4.851   3.576  0.2773  0.4189  0.3525
   12MOL     C3 2885   5.037   4.956   3.494 -0.4024 -0.1468  0.0880
   12MOL     O4 2886   5.116   5.043   3.522  0.5676  0.0431  0.0122
   12MOL     C5 2887   4.936   4.972   3.382  0.2956  0.8114  0.2896
   12MOL     C6 2888   5.129   4.681   3.713 -0.0460  0.6202  0.5689
   12MOL     H7 2889   5.172   4.894   3.702 -0.6197  0.9833 -1.6757
   12MOL     H8 2890   4.926   4.803   3.553 -0.8215  1.0708  2.9334
   12MOL     H9 2891   4.917   5.079   3.381  2.0259  1.1675  1.6446
   12MOL    H10 2892   4.972   4.935   3.286 -2.2798  0.0747 -0.4271
   12MOL    H11 2893   4.839   4.926   3.399 -0.6186  2.5590 -0.1295
   12MOL    H12 2894   5.037   4.623   3.708 -0.0535  0.7873 -2.2117
   12MOL    H13 2895   5.176   4.644   3.623 -1.6754 -0.6594  0.2137
   12MOL    H14 2896   5.024   4.872   3.778  2.7297 -0.1835  1.9750
   12MOL    C15 2897   5.198   4.634   3.845  0.1595 -0.3253 -0.5958
   12MOL    N16 2898   5.336   4.697   3.858  0.1218  0.3212  0.0825
   12MOL    C17 2899   5.397   4.713   3.976  0.0694  0.5659  0.2635
   12MOL    O18 2900   5.344   4.699   4.083  0.6350  0.7180 -0.1972
   12MOL    C19 2901   5.544   4.757   3.983 -0.6296 -0.2035 -0.6642
   12MOL    C20 2902   5.199   4.479   3.877 -0.6389 -0.3570 -0.2310
   12MOL    H21 2903   5.143   4.673   3.931  2.1222 -0.6458  0.8568
   12MOL    H22 2904   5.383   4.711   3.770 -0.9877  0.0083 -0.5775
   12MOL    H23 2905   5.615   4.675   3.989  0.7937  1.0456  0.1269
   12MOL    H24 2906   5.577   4.820   3.901  2.8347 -0.3033  0.5594
   12MOL    H25 2907   5.561   4.814   4.075 -1.3271 -0.6722 -0.2398
   12MOL    H26 2908   5.268   4.443   3.802  1.1515 -1.7735  2.0335
   12MOL    H27 2909   5.238   4.455   3.976  1.2972  2.0074 -0.3690
   12MOL    C28 2910   5.066   4.406   3.853 -0.0069  0.0232  0.9671
   12MOL    N29 2911   4.947   4.456   3.926  0.1133  0.7696  0.2599
   12MOL    C30 2912   4.826   4.476   3.874 -0.0727  0.1258  0.1715
   12MOL    O31 2913   4.794   4.446   3.758  0.5384  0.2177 -0.8245
   12MOL    C32 2914   4.719   4.525   3.965 -0.2299  0.4727 -0.2805
   12MOL    C33 2915   5.089   4.255   3.889  0.5326 -0.8106 -0.3080
   12MOL    H34 2916   5.050   4.405   3.745  1.2548 -1.5964  0.7978
   12MOL    H35 2917   4.971   4.471   4.023 -3.3477 -0.4906  1.3902
   12MOL    H36 2918   4.689   4.440   4.027  1.2527  0.2232  0.1096
   12MOL    H37 2919   4.759   4.605   4.027  0.1448  1.6563 -2.0387
   12MOL    H38 2920   4.622   4.548   3.921 -0.2273  0.1131 -0.4773
   12MOL    H39 2921   5.185   4.217   3.854  1.2049  0.8519 -0.3416
   12MOL    H40 2922   5.086   4.245   3.997  1.9912  1.8125  0.0201
   12MOL    C41 2923   4.980   4.151   3.831  0.2608 -0.4040 -0.4177
   12MOL    N42 2924   5.003   4.016   3.881  0.5899 -0.2191  0.2968
   12MOL    C43 2925   5.107   3.927   3.866  0.2963 -0.0143  1.3230
   12MOL    O44 2926   5.208   3.948   3.798 -0.4837 -0.3506 -0.6234
   12MOL    C45 2927   5.093   3.792   3.936 -0.0223  0.1874  0.6869
   12MOL    C46 2928   4.982   4.148   3.675  0.4836 -0.3420 -0.1522
   12MOL    H47 2929   4.880   4.180   3.862 -0.1599 -4.0029  1.8697
   12MOL    H48 2930   4.927   3.988   3.942  0.6569  1.1529  1.0269
   12MOL    H49 2931   5.043   3.731   3.861  1.6916  0.6266 -0.8485
   12MOL    H50 2932   5.183   3.738   3.965 -0.1265  0.5407  1.7119
   12MOL    H51 2933   5.031   3.796   4.025  0.2540  0.1865  0.8794
   12MOL    H52 2934   5.022   4.241   3.633 -1.4609 -0.4562 -2.3519
   12MOL    H53 2935   5.055   4.081   3.630  0.6083 -0.4723  0.2459
   12MOL    C54 2936   4.849   4.125   3.604  0.1567  0.1836  0.1760
   12MOL    N55 2937   4.791   4.009   3.663 -0.0501  0.1600  0.7658
   12MOL    C56 2938   4.666   3.978   3.691 -0.0781  0.2599  0.3636
   12MOL    O57 2939   4.565   4.042   3.656 -0.5346  0.0179 -0.2763
   12MOL    C58 2940   4.647   3.842   3.770  0.2408 -0.1927  0.3837
   12MOL    C59 2941   4.866   4.112   3.451 -0.9668 -0.5520 -0.3983
   12MOL    H60 2942   4.787   4.214   3.612  0.4106  0.2055  2.2291
   12MOL    H61 2943   4.863   3.942   3.689  0.2743  1.2241  2.6854
   12MOL    H62 2944   4.739   3.784   3.755  0.7678  1.1045 -1.5528
   12MOL    H63 2945   4.628   3.848   3.877 -0.2327 -2.0138  0.4328
   12MOL    H64 2946   4.574   3.777   3.723  0.0485 -1.2081  2.0455
   12MOL    H65 2947   4.927   4.024   3.431  0.8930  0.5625  0.2524
   12MOL    H66 2948   4.766   4.089   3.412 -0.4267  0.1680 -2.2947
   12MOL    C67 2949   4.955   4.219   3.374 -0.2837  0.2966  0.0863
   12MOL    N68 2950   4.901   4.357   3.399 -0.0846 -0.2574  0.9020
   12MOL    C69 2951   4.956   4.476   3.370 -0.4569 -0.6892  0.1568
   12MOL    O70 2952   5.067   4.481   3.312  0.0476 -0.0800  0.0202
   12MOL    C71 2953   4.873   4.595   3.401  0.1543 -0.5206  0.0338
   12MOL    C72 2954   4.969   4.176   3.224  0.1574  0.1851 -1.1221
   12MOL    H73 2955   5.058   4.217   3.409 -0.5811  4.0622  1.4287
   12MOL    H74 2956   4.807   4.357   3.437  0.2155  0.0411  1.6497
   12MOL    H75 2957   4.887   4.674   3.327  0.6448 -2.3153 -1.8335
   12MOL    H76 2958   4.768   4.569   3.412  0.3884 -1.4304  0.1401
   12MOL    H77 2959   4.915   4.636   3.493 -0.4859  0.1695  0.0295
   12MOL    H78 2960   5.059   4.223   3.184  1.9426  0.1020  2.6589
   12MOL    H79 2961   5.012   4.076   3.226 -1.3493 -0.4698 -0.7259
   12MOL    C80 2962   4.852   4.203   3.127  0.0308  0.1450 -0.4382
   12MOL    N81 2963   4.781   4.081   3.093 -0.0924  0.1703 -0.4271
   12MOL    C82 2964   4.826   3.979   3.023  0.1368 -0.0027 -0.2452
   12MOL    O83 2965   4.946   3.971   2.992 -0.0929 -0.2588  0.0273
   12MOL    C84 2966   4.719   3.881   2.978  0.3785  0.3212  0.5769
   12MOL    C85 2967   4.900   4.279   3.000 -0.1470  0.0293 -0.0513
   12MOL    H86 2968   4.787   4.274   3.178 -0.9797  0.0697 -1.5945
   12MOL    H87 2969   4.681   4.075   3.110 -0.2465  0.1448 -1.3112
   12MOL    H88 2970   4.646   3.932   2.915  0.5921 -0.1324 -0.0358
   12MOL    H89 2971   4.764   3.801   2.919 -2.7774 -0.8545 -0.3324
   12MOL    H90 2972   4.666   3.840   3.064 -1.7714  2.4558  0.3079
   12MOL    H91 2973   4.949   4.371   3.033  1.5539 -0.5835 -0.8024
   12MOL    H92 2974   4.986   4.230   2.954 -0.6465 -1.0023  0.0941
   12MOL    C93 2975   4.791   4.306   2.894  0.2680  0.2905  0.6356
   12MOL    N94 2976   4.860   4.380   2.782 -0.0129 -0.5294 -0.2988
   12MOL    C95 2977   4.915   4.319   2.675 -0.4660 -0.1399 -0.1385
   12MOL    O96 2978   4.921   4.197   2.665  0.2674  0.2709  0.0050
   12MOL    C97 2979   4.972   4.414   2.567  0.0693  0.5291  0.2719
   12MOL    C98 2980   4.662   4.387   2.936  0.5393 -0.4251  0.8126
   12MOL    H99 2981   4.765   4.207   2.857 -0.5023 -0.7756  3.9234
   12MOL   H100 2982   4.847   4.480   2.782 -1.2581 -0.6752 -1.7815
   12MOL   H101 2983   4.956   4.373   2.468 -3.1162 -2.9101  2.0877
   12MOL   H102 2984   4.944   4.518   2.559  0.8256  0.5996 -1.5599
   12MOL   H103 2985   5.079   4.405   2.586  0.2148  2.7986  0.6476
   12MOL   H104 2986   4.594   4.340   3.006  1.4553  0.3315  2.2368
   12MOL   H105 2987   4.708   4.462   3.000  0.4031 -0.4725  0.9646
   12MOL   C106 2988   4.583   4.453   2.819  0.1497 -0.4443 -0.3900
   12MOL   N107 2989   4.468   4.523   2.867 -0.1683 -0.6120 -0.0301
   12MOL   C108 2990   4.415   4.639   2.828  0.6848 -0.1269 -0.1739
   12MOL   O109 2991   4.463   4.696   2.734  0.0809 -0.9555  0.0513
   12MOL   C110 2992   4.303   4.700   2.911  0.2731  0.2255  0.5448
   12MOL   C111 2993   4.535   4.339   2.719 -0.1333  0.0503  0.7254
   12MOL   H112 2994   4.653   4.515   2.764 -1.2865  0.4441 -1.2559
   12MOL   H113 2995   4.415   4.471   2.935 -0.7094 -2.1104 -1.5792
   12MOL   H114 2996   4.298   4.631   2.995  0.7007  0.9836  1.2018
   12MOL   H115 2997   4.319   4.799   2.954  1.8260  0.5014 -0.6045
   12MOL   H116 2998   4.210   4.696   2.855 -0.4827  0.6004  1.7505
   12MOL   H117 2999   4.614   4.266   2.704  1.7974  2.1290  0.4031
   12MOL   H118 3000   4.454   4.276   2.757  0.6921 -0.2355  2.0373
   12MOL   C119 3001   4.485   4.380   2.576  0.0414 -0.2241  0.2770
   12MOL   N120 3002   4.567   4.481   2.518  0.3712 -0.0645  0.5141
   12MOL   C121 3003   4.622   4.474   2.395 -0.2840 -0.2921 -0.3597
   12MOL   O122 3004   4.625   4.373   2.322 -0.2562 -0.2341  0.5299
   12MOL   C123 3005   4.718   4.588   2.364 -0.0890  0.0435 -0.0109
   12MOL   C124 3006   4.335   4.399   2.551  0.0036 -0.1591  0.2478
   12MOL   H125 3007   4.505   4.285   2.527  1.3182 -0.0070  0.3613
   12MOL   H126 3008   4.584   4.563   2.575 -1.6780  1.0251 -0.4155
   12MOL   H127 3009   4.676   4.681   2.325 -2.3247  0.4191  3.0930
   12MOL   H128 3010   4.749   4.620   2.464  0.4963 -1.3903  0.2740
   12MOL   H129 3011   4.814   4.557   2.322  0.2754  0.6215  0.3801
   12MOL   H130 3012   4.305   4.493   2.597  1.4390  0.5408 -0.2101
   12MOL   H131 3013   4.318   4.417   2.445 -0.7157  0.0825  0.4009
   12MOL   C132 3014   4.254   4.280   2.592  0.7904  0.4124 -0.2197
   12MOL   N133 3015   4.289   4.162   2.512  0.2360 -0.4917  0.1965
   12MOL   C134 3016   4.284   4.031   2.554  0.4577  0.3317  0.8795
   12MOL   O135 3017   4.252   4.002   2.675 -0.1320  0.2874 -0.6657
   12MOL   C136 3018   4.308   3.920   2.446  0.3348 -0.1836 -0.0649
   12MOL   C137 3019   4.103   4.316   2.566  0.1198  0.4173  0.1374
   12MOL   H138 3020   4.260   4.269   2.700 -1.2075  2.3897  0.1354
   12MOL   H139 3021   4.330   4.192   2.425 -0.0361  0.4043  0.3692
   12MOL   H140 3022   4.270   3.826   2.485 -0.3685 -0.5820 -1.6920
   12MOL   H141 3023   4.269   3.947   2.348 -1.3250 -0.5400  0.4657
   12MOL   H142 3024   4.416   3.908   2.442  0.1836 -2.0787  0.9731
   12MOL   H143 3025   4.103   4.360   2.467  1.7492  0.5646  0.2042
   12MOL   H144 3026   4.041   4.227   2.554 -0.2446  0.5287  1.1208
   12MOL   C145 3027   4.047   4.422   2.658 -0.1074  0.8476 -0.6473
   12MOL   N146 3028   4.019   4.360   2.791 -0.3693  0.2509  0.7099
   12MOL   C147 3029   4.094   4.352   2.910  0.6968  0.1790  0.3486
   12MOL   O148 3030   4.202   4.406   2.922 -0.0010 -0.0995 -0.4370
   12MOL   C149 3031   4.033   4.254   3.011 -0.1007  0.4646  0.8636
   12MOL   C150 3032   3.923   4.501   2.605 -0.1957 -0.1030  0.4013
   12MOL   H151 3033   4.115   4.503   2.685 -0.0628  0.0856  1.5720
   12MOL   H152 3034   3.942   4.294   2.787  0.1559 -0.4468  1.9520
   12MOL   H153 3035   4.101   4.230   3.093 -0.4059  1.9193  1.5493
   12MOL   H154 3036   3.945   4.293   3.062 -0.1388 -0.5721  1.5957
   12MOL   H155 3037   4.006   4.158   2.967  0.6014  0.6356  0.0480
   12MOL   H156 3038   3.860   4.426   2.558  1.4347  0.3905 -2.7218
   12MOL   H157 3039   3.877   4.546   2.692 -1.8910 -2.7314  0.9143
   12MOL   C158 3040   3.949   4.598   2.483  0.2906 -0.1542 -0.2081
   12MOL   N159 3041   4.029   4.716   2.533  0.0186  0.8626 -0.0854
   12MOL   C160 3042   4.005   4.797   2.639 -0.5059  0.8722  0.0754
   12MOL   O161 3043   3.902   4.790   2.706  0.2943  0.0391  0.0565
   12MOL   C162 3044   4.117   4.888   2.667 -0.0660 -0.5894 -0.0938
   12MOL   C163 3045   3.814   4.647   2.421  0.0177  0.4056  0.0580
   12MOL   H164 3046   4.005   4.539   2.410 -0.1017 -0.6877 -0.0775
   12MOL   H165 3047   4.118   4.730   2.488  0.1929  0.9347  0.2778
   12MOL   H166 3048   4.217   4.851   2.648  0.8151  1.0861  1.1288
   12MOL   H167 3049   4.097   4.981   2.614  0.5109 -0.0358  0.6495
   12MOL   H168 3050   4.122   4.907   2.774  0.9934 -0.8505 -0.0881
   12MOL   H169 3051   3.747   4.563   2.406  1.6541 -1.2226  1.6177
   12MOL   H170 3052   3.769   4.702   2.504 -0.8482 -2.5427  1.6367
   12MOL   C171 3053   3.825   4.734   2.291  0.1775  0.8864 -0.5799
   12MOL   N172 3054   3.702   4.804   2.249  0.2238  0.6520  0.6984
   12MOL   C173 3055   3.689   4.928   2.199 -0.3636 -0.3045 -0.3193
   12MOL   O174 3056   3.788   5.004   2.187  0.6245  0.1717  0.0772
   12MOL   C175 3057   3.557   4.974   2.140  0.0980  0.4726  0.1541
   12MOL   C176 3058   3.875   4.652   2.178 -0.2106  0.5162  0.0460
   12MOL   H177 3059   3.898   4.810   2.317  0.7616 -0.3642  1.5535
   12MOL   H178 3060   3.622   4.743   2.259  2.5739 -2.7024 -0.0492
   12MOL   H179 3061   3.533   5.078   2.162 -1.8848  0.4348 -1.6841
   12MOL   H180 3062   3.549   4.966   2.032  0.0381  0.8582  0.1297
   12MOL   H181 3063   3.480   4.909   2.182  1.4129  0.1788  2.2280
   12MOL   H182 3064   3.951   4.580   2.206  0.2894  1.5221  1.3057
   12MOL   H183 3065   3.793   4.589   2.141  2.0819 -0.7166 -3.1874
   12MOL   C184 3066   3.930   4.736   2.059  0.4711  0.2052  0.4873
   12MOL   N185 3067   3.952   4.666   1.936  0.0746  0.0116 -0.2568
   12MOL   C186 3068   3.915   4.712   1.814 -0.1457 -0.6238 -0.0180
   12MOL   O187 3069   3.885   4.834   1.786 -0.9994  0.2318  0.0122
   12MOL   C188 3070   3.897   4.616   1.701  0.1412 -0.6608  0.1289
   12MOL   C189 3071   4.070   4.804   2.097  0.2459 -0.2139  0.4119
   12MOL   H190 3072   3.868   4.820   2.026 -0.2095 -0.5230 -0.1009
   12MOL   H191 3073   3.983   4.571   1.953  4.3153  1.3181 -0.1496
   12MOL   H192 3074   3.885   4.681   1.615  1.2068  1.6343  1.6741
   12MOL   H193 3075   3.982   4.551   1.682  1.0323  0.1030  1.4583
   12MOL   H194 3076   3.803   4.563   1.718 -1.1532  0.8829 -2.0232
   12MOL   H195 3077   4.082   4.889   2.031  0.4973  1.0695  2.0684
   12MOL   H196 3078   4.061   4.857   2.192  0.8535  0.5412  0.0538
   12MOL   C197 3079   4.195   4.716   2.102  0.0132  0.8971 -0.2800
   12MOL   N198 3080   4.297   4.772   2.190  0.0618 -0.1069 -0.6058
   12MOL   C199 3081   4.309   4.749   2.321  0.0813 -0.5270 -0.5687
   12MOL   O200 3082   4.246   4.675   2.383 -0.1789  0.2791 -0.5002
   12MOL   C201 3083   4.425   4.816   2.400 -0.1421  0.0724  0.0210
   12MOL   C202 3084   4.271   4.692   1.962  0.5654 -0.9990 -0.6890
   12MOL   H203 3085   4.170   4.615   2.134 -0.9576  0.4357 -2.4019
   12MOL   H204 3086   4.369   4.826   2.144  0.8884  0.3301  1.1471
   12MOL   H205 3087   4.508   4.861   2.346  0.4214  0.4603  1.1914
   12MOL   H206 3088   4.384   4.898   2.459 -1.1834  1.4740 -2.5497
   12MOL   H207 3089   4.466   4.747   2.474 -0.4698 -0.3436 -0.1801
   12MOL   H208 3090   4.348   4.618   1.984  0.8066 -1.3458 -2.5745
   12MOL   H209 3091   4.205   4.645   1.888 -1.2713 -1.8078  1.4120
   12MOL   C210 3092   4.342   4.812   1.900  0.4130 -0.5766 -0.0642
   12MOL   N211 3093   4.236   4.886   1.827 -0.6740 -0.0393 -0.8160
   12MOL   C212 3094   4.245   5.015   1.778  0.7746  1.4090  0.8265
   12MOL   O213 3095   4.343   5.086   1.809  0.4909  0.3089 -0.1708
   12MOL   C214 3096   4.125   5.071   1.707 -0.0990  0.3284 -0.2883
   12MOL   C215 3097   4.457   4.779   1.804 -0.1132 -0.0344  0.6123
   12MOL   H216 3098   4.394   4.868   1.978  0.7329 -0.7517 -0.1531
   12MOL   H217 3099   4.155   4.829   1.809  0.0570 -1.0874 -0.8769
   12MOL   H218 3100   4.034   5.061   1.768 -0.0821  2.2984  0.0925
   12MOL   H219 3101   4.139   5.178   1.693  1.8276  0.2186  0.6543
   12MOL   H220 3102   4.115   5.026   1.608 -0.3095  1.2692 -0.6959
   12MOL   H221 3103   4.423   4.746   1.706 -1.4062  0.2307  0.9610
   12MOL   H222 3104   4.506   4.871   1.770 -0.6570  0.3468  0.8347
   12MOL   C223 3105   4.573   4.682   1.855 -0.1937  0.3449  0.6234
   12MOL   N224 3106   4.703   4.734   1.815 -0.2249 -0.4009  0.5707
   12MOL   C225 3107   4.799   4.767   1.904 -0.0413  0.3967 -0.5543
   12MOL   O226 3108   4.794   4.763   2.031 -0.4078 -0.3772 -0.3780
   12MOL   C227 3109   4.932   4.809   1.833 -0.6009 -0.2637  0.4452
   12MOL   C228 3110   4.556   4.532   1.803 -0.2630 -0.3944  0.0582
   12MOL   H229 3111   4.558   4.673   1.963  0.7898 -0.3187  0.7133
   12MOL   H230 3112   4.724   4.759   1.719  0.1848 -0.4117  0.6557
   12MOL   H231 3113   4.967   4.712   1.796 -1.0615 -0.5508  0.7531
   12MOL   H232 3114   4.919   4.874   1.747 -1.2641 -0.0420  0.7074
   12MOL   H233 3115   5.003   4.855   1.902  0.3905 -3.2039  1.4633
   12MOL   H234 3116   4.465   4.485   1.842 -0.5798 -0.4482 -0.7285
   12MOL   H235 3117   4.536   4.540   1.696  1.7466  0.0864 -0.2852
   12MOL   C236 3118   4.672   4.438   1.841 -0.0308 -0.0992  0.0657
   12MOL   N237 3119   4.642   4.315   1.774 -0.0336  0.5529 -0.2045
   12MOL   C238 3120   4.712   4.255   1.679  0.3743 -0.0817 -0.0106
   12MOL   O239 3121   4.822   4.288   1.649  1.1616  0.3277  0.0815
   12MOL   C240 3122   4.631   4.147   1.611 -0.5845 -0.3364  0.0255
   12MOL   C241 3123   4.698   4.415   1.995  0.4626 -0.0587  0.9798
   12MOL   H242 3124   4.759   4.485   1.795 -0.8885  1.1756 -0.2748
   12MOL   H243 3125   4.550   4.275   1.787  1.4431 -2.8896  0.2004
   12MOL   H244 3126   4.679   4.124   1.516  0.7665 -3.7174  1.4502
   12MOL   H245 3127   4.629   4.053   1.666 -0.9489 -1.0664 -1.2173
   12MOL   H246 3128   4.531   4.179   1.581  0.0683  2.2284  0.4611
   12MOL   H247 3129   4.715   4.509   2.048  2.9398 -0.4243  0.9002
   12MOL   H248 3130   4.604   4.373   2.031  0.5187 -2.0186 -1.0736
   12MOL   C249 3131   4.814   4.317   2.016  0.0859  0.5475  0.3929
   12MOL   N250 3132   4.787   4.239   2.131 -0.4685 -0.5774  0.3237
   12MOL   C251 3133   4.832   4.108   2.156  0.7262 -0.5868  1.1618
   12MOL   O252 3134   4.900   4.045   2.067 -0.2183  0.0652  0.1627
   12MOL   C253 3135   4.783   4.041   2.284 -0.4493 -1.0890  0.0953
   12MOL   C254 3136   4.948   4.394   2.033 -1.0368 -1.0336 -0.0194
   12MOL   H255 3137   4.823   4.250   1.930 -3.8519  2.2458 -1.4789
   12MOL   H256 3138   4.721   4.284   2.193  0.0315 -1.4480  1.5108
   12MOL   H257 3139   4.680   4.068   2.304 -0.1757 -0.1220  0.2312
   12MOL   H258 3140   4.791   3.934   2.262  0.7939 -0.3425 -3.4448
   12MOL   H259 3141   4.862   4.050   2.359  0.8501 -0.3856 -1.3105
   12MOL   H260 3142   5.036   4.331   2.037  0.5721  1.1700  0.4310
   12MOL   H261 3143   4.971   4.465   1.953  0.1818 -1.1141  0.2583
   12MOL   H262 3144   4.961   4.459   2.120 -1.8344  0.2775 -0.8629
   13MOL     C1 3145   2.310   2.811   5.444 -0.0272  0.6120  0.1546
   13MOL     N2 3146   2.427   2.889   5.503 -0.4839  0.0730  0.5210
   13MOL     C3 3147   2.431   3.020   5.529 -0.4087  0.0607  0.4558
   13MOL     O4 3148   2.352   3.102   5.478  0.1601  0.0881  0.0341
   13MOL     C5 3149   2.538   3.076   5.620 -0.1564  0.2260 -0.5044
   13MOL     C6 3150   2.301   2.836   5.288  0.5630 -0.0929 -0.1784
   13MOL     H7 3151   2.317   2.706   5.470  0.2304  1.1629  2.4919
   13MOL     H8 3152   2.502   2.824   5.525  0.3590  1.2882  1.3494
   13MOL     H9 3153   2.575   3.003   5.692 -0.2438 -0.6530 -1.3363
   13MOL    H10 3154   2.633   3.083   5.567  0.3213 -1.7112  0.0674
   13MOL    H11 3155   2.500   3.168   5.665 -1.2284 -0.3890 -0.1377
   13MOL    H12 3156   2.306   2.944   5.275 -0.0366  0.1657  1.6054
   13MOL    H13 3157   2.381   2.778   5.241 -0.5418 -1.9929  0.2733
   13MOL    H14 3158   2.218   2.851   5.487  0.4247 -0.7642  2.4879
   13MOL    C15 3159   2.166   2.789   5.227  0.0179 -0.4119 -0.5922
   13MOL    N16 3160   2.198   2.739   5.089  0.3120  0.2016  0.5739
   13MOL    C17 3161   2.208   2.607   5.067 -0.3296 -0.2312 -0.0035
   13MOL    O18 3162   2.203   2.525   5.151  0.0093 -0.4403 -0.2502
   13MOL    C19 3163   2.236   2.577   4.915  0.1925 -0.1708 -0.1360
   13MOL    C20 3164   2.065   2.894   5.215  0.4450 -0.7963  0.4287
   13MOL    H21 3165   2.118   2.712   5.288 -0.4157  0.1782 -0.1770
   13MOL    H22 3166   2.219   2.810   5.020  0.5481  0.6686  1.1168
   13MOL    H23 3167   2.139   2.574   4.864  0.1171  1.5948 -0.1397
   13MOL    H24 3168   2.295   2.650   4.860 -2.1198  2.0982  0.2880
   13MOL    H25 3169   2.282   2.479   4.926  0.3453 -0.0864 -0.0217
   13MOL    H26 3170   2.102   2.987   5.171  0.1596  0.1280  2.1319
   13MOL    H27 3171   1.998   2.863   5.135 -1.2183  1.7291  0.7734
   13MOL    C28 3172   1.969   2.925   5.335  0.4100 -0.3294 -0.4280
   13MOL    N29 3173   1.843   2.857   5.324  0.1042  0.0018  0.6779
   13MOL    C30 3174   1.769   2.808   5.420 -0.3857  0.3444 -0.5712
   13MOL    O31 3175   1.816   2.779   5.529  0.3221  0.1784  0.2636
   13MOL    C32 3176   1.628   2.779   5.382  0.5273  0.5268  0.7975
   13MOL    C33 3177   1.948   3.080   5.359 -0.1116  0.3877  0.0350
   13MOL    H34 3178   2.011   2.888   5.429 -0.3135  0.0985  0.0755
   13MOL    H35 3179   1.794   2.885   5.240  1.5856  0.3238 -0.0929
   13MOL    H36 3180   1.562   2.764   5.468 -0.8433  0.9125 -0.1829
   13MOL    H37 3181   1.594   2.869   5.330 -1.4324  0.2243  1.5040
   13MOL    H38 3182   1.615   2.694   5.315 -0.1864  1.8921 -0.8369
   13MOL    H39 3183   1.929   3.093   5.465 -1.0634  3.2031 -0.4554
   13MOL    H40 3184   2.049   3.121   5.355  0.8318 -1.7706  0.6052
   13MOL    C41 3185   1.842   3.147   5.271  0.1460  0.2962 -0.4749
   13MOL    N42 3186   1.871   3.134   5.131  0.7777 -0.0802 -0.1387
   13MOL    C43 3187   1.823   3.047   5.046 -0.0757  0.2484 -0.4615
   13MOL    O44 3188   1.764   2.943   5.077 -0.2808  0.1222  0.6533
   13MOL    C45 3189   1.852   3.074   4.901  0.6288 -0.0112  0.2520
   13MOL    C46 3190   1.819   3.295   5.316 -0.6312  0.8570 -0.3962
   13MOL    H47 3191   1.747   3.100   5.296  0.9162 -0.0504  1.9601
   13MOL    H48 3192   1.928   3.212   5.101  1.5424 -0.0314  1.4185
   13MOL    H49 3193   1.768   3.047   4.838  0.4514  1.5974 -0.2365
   13MOL    H50 3194   1.881   3.178   4.883  0.1651  0.2243  0.8432
   13MOL    H51 3195   1.943   3.020   4.876 -0.3263 -1.2837 -0.5025
   13MOL    H52 3196   1.918   3.341   5.320 -1.2839  2.2362  0.0138
   13MOL    H53 3197   1.762   3.354   5.244 -0.5107  1.7040  0.1952
   13MOL    C54 3198   1.756   3.310   5.455  0.1757 -0.3957 -0.7252
   13MOL    N55 3199   1.615   3.304   5.439  0.2657 -0.3234 -0.2876
   13MOL    C56 3200   1.530   3.204   5.466 -0.6087 -0.2712  0.5026
   13MOL    O57 3201   1.557   3.114   5.540 -0.1943  0.0105 -0.6141
   13MOL    C58 3202   1.392   3.216   5.403  0.4017 -0.4577  0.2792
   13MOL    C59 3203   1.797   3.442   5.528 -0.2426 -0.1888 -0.1588
   13MOL    H60 3204   1.775   3.225   5.520  0.6392 -0.7023 -1.2625
   13MOL    H61 3205   1.579   3.387   5.395 -1.6754 -1.4800 -0.9421
   13MOL    H62 3206   1.365   3.142   5.329  0.5265 -0.1768 -0.0487
   13MOL    H63 3207   1.309   3.215   5.473 -0.4851  0.2710 -0.7463
   13MOL    H64 3208   1.367   3.312   5.358 -1.1222 -1.2583 -0.5806
   13MOL    H65 3209   1.728   3.515   5.485 -1.1034 -2.1719 -2.2200
   13MOL    H66 3210   1.746   3.423   5.623 -0.5762 -0.2044 -0.3391
   13MOL    C67 3211   1.948   3.478   5.547  0.3105  0.5996 -0.0706
   13MOL    N68 3212   1.975   3.524   5.689  0.3110 -0.3498  0.4936
   13MOL    C69 3213   1.919   3.627   5.743  0.6377 -0.3979  0.0363
   13MOL    O70 3214   1.856   3.713   5.679  0.3440 -0.0669 -0.6015
   13MOL    C71 3215   1.932   3.643   5.899 -0.8523 -0.9022 -0.5016
   13MOL    C72 3216   2.015   3.571   5.440 -0.3877 -0.1026  0.7933
   13MOL    H73 3217   1.993   3.380   5.531 -1.5949 -0.4634  0.7976
   13MOL    H74 3218   2.028   3.465   5.752  1.7924  2.0573  1.6197
   13MOL    H75 3219   1.906   3.745   5.928  4.3500  0.0623  1.2990
   13MOL    H76 3220   1.859   3.577   5.947 -0.7434 -0.9338 -0.3797
   13MOL    H77 3221   2.034   3.621   5.931 -0.8876  0.2228  0.4496
   13MOL    H78 3222   1.971   3.540   5.345  2.0813  0.5400 -0.5826
   13MOL    H79 3223   1.979   3.670   5.467  0.9977  0.9118 -0.9578
   13MOL    C80 3224   2.168   3.587   5.427  0.1227 -0.2155 -0.3871
   13MOL    N81 3225   2.200   3.685   5.331  0.0541 -0.5911 -0.2788
   13MOL    C82 3226   2.206   3.819   5.340 -0.0148 -0.0032  0.2423
   13MOL    O83 3227   2.172   3.867   5.446  0.0478 -0.3396 -0.2693
   13MOL    C84 3228   2.249   3.902   5.223 -0.0595 -0.6440  0.1102
   13MOL    C85 3229   2.238   3.459   5.380 -0.7455  0.1201  0.2889
   13MOL    H86 3230   2.198   3.624   5.525 -1.0096  0.5337 -0.3189
   13MOL    H87 3231   2.215   3.648   5.238  1.4833  0.0395 -0.3120
   13MOL    H88 3232   2.278   3.999   5.261 -0.1210 -1.3966  2.1711
   13MOL    H89 3233   2.333   3.871   5.161 -1.1186 -0.5637 -1.3922
   13MOL    H90 3234   2.167   3.929   5.157  0.4206  1.3094  0.2964
   13MOL    H91 3235   2.220   3.391   5.463 -0.2054 -1.4520 -0.8688
   13MOL    H92 3236   2.192   3.429   5.287  1.0921 -3.3135  0.4154
   13MOL    C93 3237   2.395   3.468   5.358  0.3941  0.2310  0.1553
   13MOL    N94 3238   2.439   3.330   5.327  0.0650 -0.0450  1.3380
   13MOL    C95 3239   2.544   3.305   5.250  0.5316 -0.3989  0.0360
   13MOL    O96 3240   2.614   3.383   5.192 -0.0298 -0.9794  0.3939
   13MOL    C97 3241   2.594   3.165   5.242 -0.4078  0.2472  0.6520
   13MOL    C98 3242   2.470   3.516   5.490  0.3254 -0.0770 -0.2153
   13MOL    H99 3243   2.406   3.534   5.272 -0.8356  1.9647  1.2786
   13MOL   H100 3244   2.392   3.253   5.373 -0.5698 -0.3092  0.2716
   13MOL   H101 3245   2.508   3.098   5.240 -0.6743  0.6257 -1.0722
   13MOL   H102 3246   2.659   3.144   5.158 -0.4299  1.6913  0.2698
   13MOL   H103 3247   2.647   3.141   5.334 -1.3554 -0.9270  0.9146
   13MOL   H104 3248   2.401   3.510   5.574  0.4728  0.4653 -0.0474
   13MOL   H105 3249   2.549   3.446   5.518  1.2119  0.9074 -0.2067
   13MOL   C106 3250   2.519   3.665   5.480 -0.1944  0.1937  0.6424
   13MOL   N107 3251   2.597   3.669   5.355  0.2781  0.2056 -0.2511
   13MOL   C108 3252   2.598   3.781   5.283  0.0899  0.1097  0.4580
   13MOL   O109 3253   2.580   3.893   5.326  0.5253 -0.0966  0.3508
   13MOL   C110 3254   2.623   3.773   5.134  0.3354  0.4981  0.4695
   13MOL   C111 3255   2.601   3.705   5.608  0.5218 -0.2045 -0.1464
   13MOL   H112 3256   2.436   3.733   5.459  0.5406  0.8434 -0.2137
   13MOL   H113 3257   2.621   3.580   5.316 -0.0984  0.6842 -1.6251
   13MOL   H114 3258   2.611   3.672   5.093  1.8194 -0.5758  2.5633
   13MOL   H115 3259   2.541   3.830   5.090  0.5840 -0.1838 -0.9201
   13MOL   H116 3260   2.720   3.808   5.099  0.1053 -0.1944 -0.9075
   13MOL   H117 3261   2.655   3.618   5.646  0.4297  0.0567  0.6085
   13MOL   H118 3262   2.682   3.768   5.572  1.5074 -1.4522 -0.1549
   13MOL   C119 3263   2.512   3.760   5.720 -0.2304 -0.5453  0.1032
   13MOL   N120 3264   2.398   3.690   5.772 -0.0221  0.0490 -0.0400
   13MOL   C121 3265   2.411   3.582   5.848 -0.1204 -0.3722 -0.5248
   13MOL   O122 3266   2.514   3.525   5.862  0.3548 -0.3153  0.3721
   13MOL   C123 3267   2.289   3.522   5.904 -0.1024  0.2506  0.2171
   13MOL   C124 3268   2.467   3.901   5.688  0.3128  0.1704 -0.0845
   13MOL   H125 3269   2.583   3.770   5.802  1.3128 -1.9658 -1.0329
   13MOL   H126 3270   2.303   3.722   5.767  0.7875  2.3591 -1.1502
   13MOL   H127 3271   2.325   3.427   5.944  1.1144  0.5297 -0.2092
   13MOL   H128 3272   2.256   3.588   5.985 -0.1164 -0.1447  0.5357
   13MOL   H129 3273   2.213   3.496   5.831  2.6105  0.1533 -2.6574
   13MOL   H130 3274   2.385   3.890   5.617  0.1759 -0.5231  0.1818
   13MOL   H131 3275   2.404   3.934   5.771  0.3054  0.3655 -0.1685
   13MOL   C132 3276   2.573   4.007   5.639 -0.0372 -0.3600 -0.5706
   13MOL   N133 3277   2.700   3.995   5.727  0.2771  0.1664  0.0094
   13MOL   C134 3278   2.817   4.062   5.704  0.4976  0.5875 -0.1568
   13MOL   O135 3279   2.836   4.134   5.605  0.1043 -0.1775 -0.8747
   13MOL   C136 3280   2.928   4.052   5.804 -0.4354  0.0717 -0.4460
   13MOL   C137 3281   2.514   4.148   5.633 -0.2777  0.5889  0.3735
   13MOL   H138 3282   2.609   3.977   5.541 -3.0675 -0.0600 -1.8320
   13MOL   H139 3283   2.689   3.948   5.816 -1.9257 -1.0215 -0.8358
   13MOL   H140 3284   2.979   3.956   5.806  0.0126  0.2801 -1.7308
   13MOL   H141 3285   2.998   4.136   5.799  0.1888 -0.1461  3.1122
   13MOL   H142 3286   2.898   4.064   5.909  1.9725 -1.7680  0.4944
   13MOL   H143 3287   2.487   4.181   5.733 -0.2029 -1.0591  0.9658
   13MOL   H144 3288   2.594   4.214   5.601 -0.5602  1.2063  0.9391
   13MOL   C145 3289   2.395   4.162   5.537 -0.2574  0.2961 -0.3408
   13MOL   N146 3290   2.449   4.149   5.399  0.2514 -0.0082  0.0601
   13MOL   C147 3291   2.433   4.220   5.288 -0.4709  0.1715 -0.4506
   13MOL   O148 3292   2.356   4.313   5.273 -0.0966 -0.0342 -0.1269
   13MOL   C149 3293   2.518   4.168   5.174  0.0225  0.0985 -0.6211
   13MOL   C150 3294   2.321   4.295   5.566  0.0153 -0.5531 -0.0172
   13MOL   H151 3295   2.333   4.072   5.534 -1.2105  0.9762 -1.6463
   13MOL   H152 3296   2.502   4.063   5.396  0.6242  0.2572 -1.0339
   13MOL   H153 3297   2.477   4.075   5.133 -0.8167  0.2077 -0.0364
   13MOL   H154 3298   2.514   4.241   5.093 -0.0074  1.0624  0.2421
   13MOL   H155 3299   2.622   4.152   5.204 -0.6317  0.3417  1.8764
   13MOL   H156 3300   2.403   4.362   5.593 -1.7655  1.3803  0.7596
   13MOL   H157 3301   2.262   4.336   5.484  1.3305  2.5314  0.5048
   13MOL   C158 3302   2.220   4.280   5.678  0.4166 -1.2117  0.1013
   13MOL   N159 3303   2.110   4.187   5.648 -0.0197  0.7335 -0.2466
   13MOL   C160 3304   2.095   4.074   5.708  0.2356  0.3842  0.4743
   13MOL   O161 3305   2.187   4.026   5.767 -0.2910 -0.0779 -0.7110
   13MOL   C162 3306   1.957   4.000   5.708  0.2077  0.6254  0.0736
   13MOL   C163 3307   2.151   4.413   5.709 -0.1207  0.5580 -0.2787
   13MOL   H164 3308   2.274   4.248   5.768 -1.0801  1.8175  2.1488
   13MOL   H165 3309   2.025   4.207   5.597 -0.0405  2.3833  0.4131
   13MOL   H166 3310   1.931   3.956   5.805 -0.1593  1.1567  0.2236
   13MOL   H167 3311   1.876   4.069   5.683  1.0029  1.3795 -0.4485
   13MOL   H168 3312   1.967   3.924   5.632 -0.5319  1.8848 -1.3126
   13MOL   H169 3313   2.215   4.497   5.737 -1.2604  0.7735  1.7385
   13MOL   H170 3314   2.101   4.453   5.621 -1.4913 -1.1743 -0.3284
   13MOL   C171 3315   2.043   4.404   5.822  0.3322 -0.8316  0.4453
   13MOL   N172 3316   1.968   4.532   5.816 -0.6678  0.2776 -0.3434
   13MOL   C173 3317   1.851   4.545   5.756  0.4290 -1.1212 -0.3812
   13MOL   O174 3318   1.785   4.450   5.709  0.3659  0.9962 -0.2263
   13MOL   C175 3319   1.805   4.689   5.733 -0.5454 -0.3976 -0.2012
   13MOL   C176 3320   2.094   4.365   5.971  0.2830  0.0125  0.2299
   13MOL   H177 3321   1.968   4.332   5.788 -0.4311 -0.2088  0.8008
   13MOL   H178 3322   2.017   4.615   5.845 -0.5337  0.2196 -0.4043
   13MOL   H179 3323   1.893   4.751   5.753  1.7073 -4.1344  2.1179
   13MOL   H180 3324   1.778   4.713   5.631  1.2168  1.4684 -0.2619
   13MOL   H181 3325   1.723   4.708   5.802 -0.6931 -0.1294 -0.4499
   13MOL   H182 3326   2.154   4.275   5.973 -1.8143 -1.4010  0.9889
   13MOL   H183 3327   2.151   4.452   6.003  1.1002 -0.3099 -0.3375
   13MOL   C184 3328   1.981   4.339   6.075 -0.7032  0.2429 -0.9989
   13MOL   N185 3329   2.055   4.306   6.198 -0.3212  0.0282  0.5160
   13MOL   C186 3330   2.101   4.400   6.280  0.6934  0.2928 -0.2510
   13MOL   O187 3331   2.120   4.516   6.247  0.2844 -0.8904 -0.0203
   13MOL   C188 3332   2.134   4.350   6.421 -0.0665  0.6589  0.2624
   13MOL   C189 3333   1.892   4.226   6.032  0.3516 -0.0261  0.1740
   13MOL   H190 3334   1.925   4.430   6.100 -2.6668 -0.8208 -1.4274
   13MOL   H191 3335   2.046   4.212   6.235 -1.8294 -0.6976 -1.5907
   13MOL   H192 3336   2.068   4.403   6.489  0.3125 -2.3536  3.0857
   13MOL   H193 3337   2.122   4.243   6.434  0.8721  0.6723  1.3188
   13MOL   H194 3338   2.233   4.387   6.448  0.8516 -2.2946  1.1064
   13MOL   H195 3339   1.856   4.249   5.931  1.0816 -0.3270 -0.1609
   13MOL   H196 3340   1.943   4.131   6.022  0.8168  0.4082 -1.8313
   13MOL   C197 3341   1.766   4.193   6.108  0.2121  0.0503  0.1360
   13MOL   N198 3342   1.687   4.089   6.039  0.1471  0.0567 -0.1783
   13MOL   C199 3343   1.714   3.964   6.056  0.4287  0.2822  0.4078
   13MOL   O200 3344   1.806   3.912   6.124  0.7811 -0.6689  0.0881
   13MOL   C201 3345   1.625   3.863   5.983  0.3094 -0.4814 -0.3283
   13MOL   C202 3346   1.672   4.319   6.129 -0.1072 -0.4482 -0.8162
   13MOL   H203 3347   1.790   4.150   6.205 -0.8229  0.0570  0.4050
   13MOL   H204 3348   1.599   4.117   5.998 -0.6051  0.5261  1.7114
   13MOL   H205 3349   1.611   3.778   6.050 -1.6131 -0.1385 -0.2656
   13MOL   H206 3350   1.530   3.911   5.961  0.3356  0.4529  1.4476
   13MOL   H207 3351   1.676   3.844   5.889  1.1109 -0.6601  0.1326
   13MOL   H208 3352   1.727   4.402   6.174  0.8835 -1.0978 -0.8269
   13MOL   H209 3353   1.644   4.355   6.029 -0.3343 -1.3883 -1.0921
   13MOL   C210 3354   1.539   4.282   6.202 -0.1519 -0.2979  0.5043
   13MOL   N211 3355   1.431   4.352   6.129  0.2359  0.5617 -0.3528
   13MOL   C212 3356   1.386   4.315   6.013 -0.4902 -0.0693  0.1689
   13MOL   O213 3357   1.453   4.234   5.940  0.1838  0.4516 -0.2391
   13MOL   C214 3358   1.249   4.365   5.969 -0.3228  0.3818  0.0438
   13MOL   C215 3359   1.542   4.331   6.342  0.7994  0.1847  0.1327
   13MOL   H216 3360   1.525   4.174   6.201  0.4935 -0.3857  0.7695
   13MOL   H217 3361   1.367   4.405   6.188  0.0166  1.2130 -1.1628
   13MOL   H218 3362   1.258   4.403   5.868  0.1071 -0.9804 -0.4440
   13MOL   H219 3363   1.176   4.285   5.976  0.3078 -0.2384 -0.4468
   13MOL   H220 3364   1.205   4.440   6.035 -1.4201 -0.3563  0.1605
   13MOL   H221 3365   1.640   4.308   6.384  0.3322 -0.2682  1.0105
   13MOL   H222 3366   1.536   4.439   6.353  1.8591  0.2133  0.4776
   13MOL   C223 3367   1.438   4.268   6.447 -0.5117  0.1950 -0.6047
   13MOL   N224 3368   1.307   4.279   6.386 -0.0547 -0.5328 -0.2291
   13MOL   C225 3369   1.224   4.184   6.353 -0.4060  0.5717 -0.1902
   13MOL   O226 3370   1.251   4.067   6.368 -0.8690 -0.4532  0.2205
   13MOL   C227 3371   1.082   4.219   6.311  0.6222 -0.2012  0.3015
   13MOL   C228 3372   1.438   4.340   6.578 -0.1519 -0.2864 -0.5104
   13MOL   H229 3373   1.460   4.164   6.467 -2.2001 -0.2295 -0.8407
   13MOL   H230 3374   1.272   4.373   6.393 -0.5482 -0.7457  0.1989
   13MOL   H231 3375   1.078   4.296   6.235 -2.2893  1.3838  1.9626
   13MOL   H232 3376   1.021   4.133   6.285  0.1619  0.6297 -1.4264
   13MOL   H233 3377   1.035   4.261   6.400 -0.4844 -0.9114  0.0579
   13MOL   H234 3378   1.453   4.447   6.569 -2.6897  0.2261  0.8774
   13MOL   H235 3379   1.337   4.339   6.620 -0.1452 -0.6758 -0.5017
   13MOL   C236 3380   1.541   4.289   6.688 -0.3869 -0.5430  0.5755
   13MOL   N237 3381   1.482   4.317   6.822  0.7212 -0.2014 -0.5680
   13MOL   C238 3382   1.471   4.211   6.906 -0.3190  0.1103 -0.4247
   13MOL   O239 3383   1.510   4.096   6.882  0.5112  0.1630 -0.0557
   13MOL   C240 3384   1.407   4.244   7.042 -0.3057  0.8994 -0.6581
   13MOL   C241 3385   1.669   4.369   6.680  0.2967  0.2306 -0.3884
   13MOL   H242 3386   1.567   4.187   6.659  1.4592  0.7427 -2.5819
   13MOL   H243 3387   1.481   4.407   6.868  1.0968 -0.8831  0.7950
   13MOL   H244 3388   1.393   4.350   7.060 -1.5673  0.8532 -1.2810
   13MOL   H245 3389   1.307   4.199   7.038 -0.3719  1.0067 -0.2370
   13MOL   H246 3390   1.460   4.210   7.131 -3.8229 -0.4782  1.0260
   13MOL   H247 3391   1.689   4.430   6.592 -0.0570  0.0652 -0.5875
   13MOL   H248 3392   1.666   4.446   6.757  1.7591  1.4264 -1.5173
   13MOL   C249 3393   1.786   4.282   6.709 -0.2015 -0.5966  0.9655
   13MOL   N250 3394   1.890   4.354   6.774 -0.2950 -0.5822 -0.1113
   13MOL   C251 3395   1.979   4.296   6.855  0.5340  0.1156  0.0858
   13MOL   O252 3396   1.983   4.175   6.871 -0.1117 -0.3379 -0.4062
   13MOL   C253 3397   2.084   4.387   6.918 -0.0711  0.3221 -0.3390
   13MOL   C254 3398   1.855   4.237   6.579  0.1213  0.3687  0.1713
   13MOL   H255 3399   1.751   4.200   6.773 -1.6125 -0.4247  0.4397
   13MOL   H256 3400   1.890   4.451   6.747  2.4768 -0.0613  1.5316
   13MOL   H257 3401   2.045   4.414   7.015 -2.3213  0.9221 -1.3956
   13MOL   H258 3402   2.176   4.328   6.928 -0.0841  0.2855 -0.4338
   13MOL   H259 3403   2.098   4.481   6.865  4.8876  0.2832  0.6309
   13MOL   H260 3404   1.789   4.165   6.532  0.4389  0.2610 -0.1117
   13MOL   H261 3405   1.863   4.318   6.506 -0.0106 -0.9915 -1.3796
   13MOL   H262 3406   1.954   4.192   6.590 -0.1221  0.1358  1.4923
   14MOL     C1 3407   3.695   5.939   2.789 -0.0245  0.3455  1.3798
   14MOL     N2 3408   3.607   5.848   2.706  0.2582 -0.6189  0.0158
   14MOL     C3 3409   3.521   5.755   2.749 -0.3504 -0.2788  0.2317
   14MOL     O4 3410   3.486   5.736   2.867  0.6223  0.0539  0.3903
   14MOL     C5 3411   3.480   5.668   2.633  0.0924  0.3514 -0.1450
   14MOL     C6 3412   3.834   5.969   2.732  0.0584  0.6685  0.2762
   14MOL     H7 3413   3.643   6.031   2.815  0.1226  0.3295  1.7221
   14MOL     H8 3414   3.614   5.858   2.606 -0.9178 -0.0409 -0.0238
   14MOL     H9 3415   3.467   5.565   2.666  1.4175 -0.1764 -1.2461
   14MOL    H10 3416   3.377   5.700   2.616  0.1049  0.2294 -0.4566
   14MOL    H11 3417   3.543   5.662   2.545 -0.1436 -0.1436 -0.2763
   14MOL    H12 3418   3.854   5.881   2.670 -0.4722  1.8288 -1.6042
   14MOL    H13 3419   3.837   6.049   2.658  0.2337  0.1562 -0.2771
   14MOL    H14 3420   3.711   5.888   2.884  1.9485  1.2014  1.5275
   14MOL    C15 3421   3.941   6.016   2.833  0.1477  0.2967  1.0813
   14MOL    N16 3422   3.896   6.142   2.889 -0.2227  0.1997 -0.1531
   14MOL    C17 3423   3.890   6.261   2.827  0.0111  0.4254  0.3476
   14MOL    O18 3424   3.921   6.273   2.707  0.0039 -0.5249 -0.1774
   14MOL    C19 3425   3.845   6.383   2.909  0.1300 -0.0700  0.2002
   14MOL    C20 3426   4.078   6.016   2.767 -0.5952  0.2667  0.5475
   14MOL    H21 3427   3.941   5.933   2.903 -0.0485 -1.2169 -0.6740
   14MOL    H22 3428   3.870   6.135   2.986 -0.5876 -1.1203 -0.3407
   14MOL    H23 3429   3.759   6.352   2.969  0.3809  0.6117  0.9377
   14MOL    H24 3430   3.919   6.421   2.980 -1.6923  2.5418  0.7975
   14MOL    H25 3431   3.808   6.462   2.844 -0.2786 -2.0343 -2.0073
   14MOL    H26 3432   4.095   5.927   2.705  2.9561  1.8480 -0.8971
   14MOL    H27 3433   4.062   6.094   2.693  0.7349 -1.6406 -1.8538
   14MOL    C28 3434   4.198   6.036   2.880  0.1583  0.0443 -0.0462
   14MOL    N29 3435   4.308   6.097   2.815  0.6165 -0.4244  0.0288
   14MOL    C30 3436   4.399   6.183   2.860 -0.3310  0.2628 -0.3068
   14MOL    O31 3437   4.406   6.226   2.973  0.5082 -0.1048 -0.3538
   14MOL    C32 3438   4.518   6.220   2.763  0.8374 -0.0581  0.5597
   14MOL    C33 3439   4.239   5.900   2.938  0.0675 -0.3416  0.2075
   14MOL    H34 3440   4.166   6.101   2.961  2.7184  0.5464  0.5899
   14MOL    H35 3441   4.330   6.066   2.722 -1.8147 -2.2634 -0.0038
   14MOL    H36 3442   4.569   6.308   2.803 -0.8528  0.7029  1.0500
   14MOL    H37 3443   4.588   6.136   2.765  3.0608  1.7307  1.3870
   14MOL    H38 3444   4.478   6.265   2.672 -1.4669  0.4923  1.8220
   14MOL    H39 3445   4.142   5.856   2.961 -1.1631  1.6966 -0.9191
   14MOL    H40 3446   4.288   5.844   2.858  0.0839 -1.1074  0.7493
   14MOL    C41 3447   4.331   5.899   3.062  0.4868 -0.0914 -0.2135
   14MOL    N42 3448   4.396   5.770   3.076  0.2217 -0.2807  0.4497
   14MOL    C43 3449   4.339   5.656   3.102  0.2735 -0.6079 -0.0312
   14MOL    O44 3450   4.218   5.634   3.099  0.5831  0.1937  0.1133
   14MOL    C45 3451   4.435   5.550   3.162 -0.2605  0.6433  0.1754
   14MOL    C46 3452   4.240   5.928   3.187 -0.4065 -0.3920  0.3558
   14MOL    H47 3453   4.412   5.971   3.072  0.6910 -0.7819  4.6237
   14MOL    H48 3454   4.497   5.769   3.080  0.1703 -0.6092  2.2926
   14MOL    H49 3455   4.381   5.462   3.195 -0.9361  0.0167 -2.5150
   14MOL    H50 3456   4.507   5.528   3.083 -0.2499  0.9217  0.1044
   14MOL    H51 3457   4.489   5.582   3.251 -0.5589  1.1236  0.1847
   14MOL    H52 3458   4.209   6.031   3.173  1.1043  0.1886  1.2253
   14MOL    H53 3459   4.156   5.859   3.195 -0.3974 -0.7184 -1.9466
   14MOL    C54 3460   4.313   5.918   3.329 -0.1115  0.2332 -0.8427
   14MOL    N55 3461   4.207   5.906   3.433  0.1393 -0.5338  0.8729
   14MOL    C56 3462   4.224   5.846   3.558  0.2950  0.1620  0.3383
   14MOL    O57 3463   4.125   5.834   3.629 -0.5578  0.3125  0.3951
   14MOL    C58 3464   4.354   5.790   3.609  0.3331 -0.0025 -1.4710
   14MOL    C59 3465   4.387   6.048   3.373  0.8029 -0.2505 -0.1516
   14MOL    H60 3466   4.374   5.828   3.337 -0.1898  0.3350  1.1791
   14MOL    H61 3467   4.115   5.946   3.419  0.5196  0.1215  0.1877
   14MOL    H62 3468   4.403   5.865   3.670 -1.0427 -0.6402  0.4786
   14MOL    H63 3469   4.333   5.700   3.668 -0.9686 -0.6708 -2.9159
   14MOL    H64 3470   4.427   5.765   3.532  2.5735  0.5330  0.4062
   14MOL    H65 3471   4.326   6.130   3.336 -0.2907 -1.1434 -0.3390
   14MOL    H66 3472   4.372   6.054   3.481 -1.0440 -1.2441 -0.3427
   14MOL    C67 3473   4.530   6.067   3.329 -0.0481  0.2549  0.1097
   14MOL    N68 3474   4.628   5.962   3.374  0.1829  0.2616  0.0549
   14MOL    C69 3475   4.690   5.870   3.300  0.1053 -0.3132  0.0753
   14MOL    O70 3476   4.667   5.857   3.180  0.1506 -0.0052 -0.1691
   14MOL    C71 3477   4.791   5.779   3.382 -0.3809 -1.0282 -0.1513
   14MOL    C72 3478   4.578   6.207   3.386  0.1196 -0.2124 -0.1456
   14MOL    H73 3479   4.535   6.077   3.220 -2.9067  1.3015  0.0089
   14MOL    H74 3480   4.655   5.957   3.471  1.5149  0.6381 -0.2847
   14MOL    H75 3481   4.880   5.836   3.410 -0.8246  0.1208 -1.0214
   14MOL    H76 3482   4.750   5.735   3.474 -0.5776 -0.4019  0.0664
   14MOL    H77 3483   4.813   5.694   3.319  0.8264  1.0480 -2.5985
   14MOL    H78 3484   4.530   6.223   3.482  1.1003  0.9559  0.1700
   14MOL    H79 3485   4.680   6.191   3.422 -1.1091 -2.7863  2.3496
   14MOL    C80 3486   4.576   6.325   3.287  0.0865  0.4423  0.4643
   14MOL    N81 3487   4.451   6.348   3.211 -0.1144 -0.1565  0.1832
   14MOL    C82 3488   4.339   6.403   3.256  0.2702  0.2365  0.3102
   14MOL    O83 3489   4.317   6.435   3.376 -0.1109 -0.6292  0.4505
   14MOL    C84 3490   4.235   6.430   3.153  0.2605 -0.0955  0.3799
   14MOL    C85 3491   4.690   6.320   3.182 -0.6710 -0.5030  0.6660
   14MOL    H86 3492   4.589   6.415   3.347  2.8424  0.2741  0.1687
   14MOL    H87 3493   4.449   6.318   3.114  2.3628 -1.1223  0.3875
   14MOL    H88 3494   4.184   6.339   3.120  2.3774 -1.1603 -0.0715
   14MOL    H89 3495   4.163   6.505   3.185 -2.1555 -1.6077 -1.3403
   14MOL    H90 3496   4.289   6.468   3.066  0.4510 -1.3502 -0.0681
   14MOL    H91 3497   4.785   6.294   3.229  0.4124 -0.5950 -1.5631
   14MOL    H92 3498   4.669   6.250   3.101  0.6005 -1.3885  1.0781
   14MOL    C93 3499   4.730   6.448   3.110  0.4092 -0.0300 -0.1360
   14MOL    N94 3500   4.788   6.415   2.980 -0.1881 -0.1673  0.7063
   14MOL    C95 3501   4.892   6.327   2.962 -0.4583  0.4625 -0.1433
   14MOL    O96 3502   4.948   6.261   3.049 -0.4095 -0.5478 -0.6195
   14MOL    C97 3503   4.955   6.335   2.827 -0.0654  0.2777 -0.0204
   14MOL    C98 3504   4.829   6.539   3.191  0.3132 -0.0935  0.3407
   14MOL    H99 3505   4.639   6.507   3.103  1.6229  1.8762 -0.0728
   14MOL   H100 3506   4.759   6.465   2.897  1.1651 -0.8228 -0.1652
   14MOL   H101 3507   4.889   6.314   2.743  0.1594 -0.6234  0.0225
   14MOL   H102 3508   4.998   6.434   2.816  1.8862 -0.6774 -1.2213
   14MOL   H103 3509   5.037   6.264   2.824 -0.3342 -0.0169 -0.5901
   14MOL   H104 3510   4.772   6.559   3.282 -1.3764  1.9951 -1.1324
   14MOL   H105 3511   4.918   6.485   3.223  0.2903 -0.6763 -0.5955
   14MOL   C106 3512   4.851   6.679   3.132 -0.0396 -0.0010 -0.5080
   14MOL   N107 3513   4.992   6.701   3.101 -0.4326 -0.1944 -0.5858
   14MOL   C108 3514   5.036   6.752   2.986 -0.2457  1.1209 -0.5503
   14MOL   O109 3515   4.964   6.790   2.897 -0.1800 -0.0544  0.6247
   14MOL   C110 3516   5.181   6.769   2.973 -0.6247 -0.8143 -0.2234
   14MOL   C111 3517   4.806   6.796   3.224 -0.2702  0.0121  0.4296
   14MOL   H112 3518   4.804   6.684   3.034 -1.9110  0.7025  0.3956
   14MOL   H113 3519   5.061   6.692   3.174 -1.0238  1.6075  0.2118
   14MOL   H114 3520   5.213   6.869   2.946  1.4729 -1.5534 -0.5829
   14MOL   H115 3521   5.218   6.750   3.074 -0.8227 -0.0938 -0.0131
   14MOL   H116 3522   5.212   6.702   2.893  0.1022  1.0853 -1.5423
   14MOL   H117 3523   4.865   6.778   3.313 -0.0474  0.2799  0.3377
   14MOL   H118 3524   4.845   6.889   3.182 -0.9707 -0.9919 -2.6096
   14MOL   C119 3525   4.655   6.811   3.261 -0.0253  0.5192 -0.6378
   14MOL   N120 3526   4.595   6.872   3.143 -0.2357 -0.2505 -0.1195
   14MOL   C121 3527   4.463   6.870   3.111  0.3510  0.8068 -0.1134
   14MOL   O122 3528   4.390   6.801   3.174  0.1495  0.1361 -0.2293
   14MOL   C123 3529   4.407   6.980   3.016  0.4905 -0.6998  0.2181
   14MOL   C124 3530   4.636   6.919   3.375 -0.0910 -0.2902 -0.1249
   14MOL   H125 3531   4.611   6.714   3.282  1.3050 -0.8693 -3.9791
   14MOL   H126 3532   4.657   6.920   3.079 -0.4081  1.0567  0.7042
   14MOL   H127 3533   4.482   7.035   2.959 -1.2797  1.1547 -0.3547
   14MOL   H128 3534   4.321   6.946   2.958  1.3177  1.4346 -2.3618
   14MOL   H129 3535   4.375   7.050   3.093 -0.5579 -2.1126  1.0952
   14MOL   H130 3536   4.700   7.005   3.358  0.1260 -0.5262 -0.4974
   14MOL   H131 3537   4.530   6.946   3.375  0.1110  0.6485  1.7850
   14MOL   C132 3538   4.672   6.874   3.514 -0.3093  0.0076  0.1713
   14MOL   N133 3539   4.586   6.763   3.558 -0.3733 -0.5117 -0.3722
   14MOL   C134 3540   4.631   6.645   3.592  0.9760 -0.1535 -0.7388
   14MOL   O135 3541   4.752   6.610   3.586 -0.8973  0.0005 -0.1547
   14MOL   C136 3542   4.530   6.541   3.644 -0.1633  0.0975  0.4042
   14MOL   C137 3543   4.682   6.989   3.612  0.0307 -0.0715  0.3850
   14MOL   H138 3544   4.773   6.833   3.507  0.1728  0.7587  2.1855
   14MOL   H139 3545   4.487   6.782   3.563 -0.1853  0.6035 -0.7781
   14MOL   H140 3546   4.490   6.499   3.551 -1.6830  2.6900 -0.1648
   14MOL   H141 3547   4.561   6.455   3.703  1.7058  1.2257  1.1309
   14MOL   H142 3548   4.439   6.581   3.688 -0.8704 -0.0391 -0.9070
   14MOL   H143 3549   4.656   7.085   3.569 -0.1106  0.6370  2.0063
   14MOL   H144 3550   4.597   6.973   3.679 -1.3401 -0.4376 -1.4208
   14MOL   C145 3551   4.807   6.998   3.700  0.6293 -0.3239  0.4973
   14MOL   N146 3552   4.778   7.036   3.837 -0.4516 -0.8103 -0.5191
   14MOL   C147 3553   4.745   7.155   3.892 -0.2159 -0.0775  0.2299
   14MOL   O148 3554   4.743   7.257   3.822  0.2782  0.3210 -0.0635
   14MOL   C149 3555   4.721   7.173   4.040 -0.4582 -0.1291 -0.3515
   14MOL   C150 3556   4.925   7.058   3.635  0.0410  0.2974 -0.3796
   14MOL   H151 3557   4.826   6.893   3.723 -0.7250 -0.3735  1.4250
   14MOL   H152 3558   4.784   6.968   3.911 -1.5006  0.3169  0.6267
   14MOL   H153 3559   4.633   7.118   4.074 -0.5458 -0.3501 -0.9249
   14MOL   H154 3560   4.808   7.129   4.088 -0.1164  1.2581  0.3130
   14MOL   H155 3561   4.725   7.279   4.067  1.4127 -0.3671  0.4049
   14MOL   H156 3562   4.970   6.979   3.575 -0.0209 -1.1809  1.5089
   14MOL   H157 3563   4.894   7.134   3.563 -2.3410 -0.4111 -0.1401
   14MOL   C158 3564   5.032   7.132   3.731  0.4826 -0.3699  1.5524
   14MOL   N159 3565   5.122   7.205   3.638 -0.0191  0.4009 -0.2534
   14MOL   C160 3566   5.121   7.333   3.600 -0.5260 -0.1751 -0.2522
   14MOL   O161 3567   5.028   7.411   3.621  0.1762  0.3201  0.2602
   14MOL   C162 3568   5.244   7.391   3.527  0.3338  0.0567  0.2380
   14MOL   C163 3569   5.111   7.025   3.803  0.1937 -0.3143 -0.1506
   14MOL   H164 3570   4.983   7.203   3.798  1.7985  3.0689 -0.9555
   14MOL   H165 3571   5.216   7.168   3.633 -0.1080  0.0686  0.4713
   14MOL   H166 3572   5.249   7.499   3.540  1.4237 -0.0248  0.5243
   14MOL   H167 3573   5.328   7.357   3.587  0.7246 -0.7726 -0.7398
   14MOL   H168 3574   5.247   7.368   3.420 -0.3203 -0.0992  0.2503
   14MOL   H169 3575   5.069   6.927   3.781 -0.4885  0.4112 -2.1786
   14MOL   H170 3576   5.203   7.004   3.747  0.4579 -0.5573  0.3652
   14MOL   C171 3577   5.129   7.043   3.954  0.5614  0.1864 -0.0486
   14MOL   N172 3578   5.188   7.169   3.996  0.8792 -0.4962  0.4135
   14MOL   C173 3579   5.298   7.224   3.939 -0.0366  0.1751 -0.2003
   14MOL   O174 3580   5.364   7.178   3.843 -0.2169  0.4428 -0.1312
   14MOL   C175 3581   5.341   7.366   3.992  0.5377  0.3347 -0.2669
   14MOL   C176 3582   5.199   6.918   4.011 -0.8316  0.6785  0.0338
   14MOL   H177 3583   5.030   7.054   3.996  1.2148  1.0586  1.2857
   14MOL   H178 3584   5.140   7.221   4.068  1.2030 -1.3816  1.2860
   14MOL   H179 3585   5.294   7.444   3.932 -1.2118 -1.0248 -0.7004
   14MOL   H180 3586   5.320   7.375   4.099  1.4577  1.8917 -0.1924
   14MOL   H181 3587   5.450   7.369   3.987  0.6655 -0.9895  1.1410
   14MOL   H182 3588   5.296   6.914   3.961 -2.2604 -1.0029 -2.7267
   14MOL   H183 3589   5.224   6.934   4.116  0.4919  0.3181 -0.2194
   14MOL   C184 3590   5.131   6.784   4.009 -0.2646 -0.7131  0.4974
   14MOL   N185 3591   5.033   6.782   4.114  1.0906  0.3256 -0.0196
   14MOL   C186 3592   4.896   6.808   4.114  0.2683 -0.8063 -0.2026
   14MOL   O187 3593   4.828   6.830   4.019 -0.0023  0.1266 -0.3541
   14MOL   C188 3594   4.845   6.781   4.251 -0.0764 -0.0413  0.1073
   14MOL   C189 3595   5.224   6.664   4.028  0.0608  0.2340  0.1148
   14MOL   H190 3596   5.078   6.759   3.917  0.3061  4.3156 -1.3399
   14MOL   H191 3597   5.075   6.768   4.205  0.4687  0.0519  0.2296
   14MOL   H192 3598   4.777   6.854   4.295  2.0413  2.0911 -0.0961
   14MOL   H193 3599   4.794   6.686   4.234 -1.4177  0.2847  2.0092
   14MOL   H194 3600   4.922   6.765   4.327  0.1531 -0.0908 -0.1357
   14MOL   H195 3601   5.279   6.669   4.122  1.0688 -2.3293 -0.2902
   14MOL   H196 3602   5.161   6.574   4.034 -0.0684  0.0464 -3.3091
   14MOL   C197 3603   5.323   6.648   3.916  0.3833 -0.3627  0.1375
   14MOL   N198 3604   5.264   6.654   3.779  0.3505  0.3679  0.7439
   14MOL   C199 3605   5.174   6.560   3.729 -1.2523 -0.5990 -0.4688
   14MOL   O200 3606   5.162   6.448   3.784  0.1003 -0.2780 -0.1186
   14MOL   C201 3607   5.096   6.596   3.606  0.6690  0.1778  0.0143
   14MOL   C202 3608   5.431   6.531   3.934 -0.3752 -0.4887  0.4649
   14MOL   H203 3609   5.384   6.738   3.929 -2.4702  1.5388  0.8091
   14MOL   H204 3610   5.291   6.731   3.720 -0.1839  0.0781  0.1247
   14MOL   H205 3611   5.163   6.609   3.521  0.7706  1.4815  0.2795
   14MOL   H206 3612   5.028   6.513   3.585  0.6696 -0.2844  1.7854
   14MOL   H207 3613   5.041   6.690   3.609  2.5807  1.3636 -1.5601
   14MOL   H208 3614   5.390   6.431   3.917  0.7677 -0.9002  0.0802
   14MOL   H209 3615   5.493   6.547   3.845 -0.1965 -1.5819  0.3857
   14MOL   C210 3616   5.522   6.536   4.054 -0.1306 -1.2660  0.8514
   14MOL   N211 3617   5.645   6.462   4.026 -0.5110  0.7437  0.0762
   14MOL   C212 3618   5.760   6.515   3.986  0.5793  0.3605 -0.7553
   14MOL   O213 3619   5.773   6.636   3.976  0.0913 -0.6307  0.1870
   14MOL   C214 3620   5.877   6.426   3.955  0.3414 -1.5857  0.5244
   14MOL   C215 3621   5.452   6.476   4.182  0.0271 -0.9707  0.7852
   14MOL   H216 3622   5.538   6.640   4.083 -1.1207 -0.5120 -1.1799
   14MOL   H217 3623   5.640   6.361   4.033 -1.0098  0.6801 -1.1247
   14MOL   H218 3624   5.966   6.484   3.978  0.5075 -1.4827 -0.3603
   14MOL   H219 3625   5.886   6.331   4.008 -0.1109 -2.7121 -1.3540
   14MOL   H220 3626   5.879   6.389   3.852 -0.9047 -2.6126  0.8452
   14MOL   H221 3627   5.343   6.472   4.170 -0.0028  2.3630 -0.4983
   14MOL   H222 3628   5.482   6.372   4.188  2.3833 -0.2976  1.0119
   14MOL   C223 3629   5.476   6.539   4.322  0.1450  0.1787  0.1880
   14MOL   N224 3630   5.432   6.683   4.330 -0.4422 -0.6561 -0.2094
   14MOL   C225 3631   5.344   6.742   4.413  0.3277  0.8735 -0.8359
   14MOL   O226 3632   5.272   6.665   4.487  0.0925 -0.3633  0.1819
   14MOL   C227 3633   5.313   6.896   4.404 -0.2319  0.4159 -0.1988
   14MOL   C228 3634   5.620   6.527   4.383 -0.1413 -0.3968 -0.2889
   14MOL   H229 3635   5.411   6.481   4.388 -0.7053  0.8765 -0.0329
   14MOL   H230 3636   5.492   6.744   4.277  1.7765 -1.2291  1.5639
   14MOL   H231 3637   5.377   6.936   4.326 -0.4340  0.7716 -0.1844
   14MOL   H232 3638   5.214   6.919   4.365  0.1509  0.4891 -1.1266
   14MOL   H233 3639   5.341   6.938   4.501 -2.6643  0.6585  0.4395
   14MOL   H234 3640   5.692   6.524   4.302 -0.5016  0.1423 -0.6338
   14MOL   H235 3641   5.643   6.624   4.429 -0.4245 -0.3868 -0.1641
   14MOL   C236 3642   5.651   6.423   4.490  0.2900 -0.1028  0.1164
   14MOL   N237 3643   5.569   6.453   4.610 -0.1109  0.1152  0.4606
   14MOL   C238 3644   5.469   6.385   4.659 -0.2220  0.4853 -0.3710
   14MOL   O239 3645   5.435   6.275   4.614  0.0186  0.2661 -0.0552
   14MOL   C240 3646   5.390   6.452   4.769  1.0079 -0.1751  0.3747
   14MOL   C241 3647   5.800   6.435   4.525 -0.3284  0.0599  0.4506
   14MOL   H242 3648   5.628   6.326   4.446  0.4757 -0.5656  1.0275
   14MOL   H243 3649   5.595   6.544   4.646 -1.6945  0.2605  1.2675
   14MOL   H244 3650   5.367   6.556   4.744 -3.0636 -0.0551  3.8729
   14MOL   H245 3651   5.288   6.417   4.790  0.1690  1.4689 -0.8199
   14MOL   H246 3652   5.437   6.451   4.867  0.6056 -1.1018  0.5654
   14MOL   H247 3653   5.862   6.413   4.437 -1.2953 -0.6284 -0.0640
   14MOL   H248 3654   5.821   6.535   4.565  2.3753 -1.1678  2.2627
   14MOL   C249 3655   5.839   6.336   4.641  0.4887  0.2882  0.0421
   14MOL   N250 3656   5.984   6.347   4.656  0.1761  0.0238  0.2834
   14MOL   C251 3657   6.042   6.419   4.757 -0.2313  0.6493  0.2915
   14MOL   O252 3658   5.988   6.458   4.861 -0.0323 -0.0731 -0.1811
   14MOL   C253 3659   6.193   6.435   4.738 -0.6822 -0.0212  0.6390
   14MOL   C254 3660   5.822   6.188   4.608  0.6481 -0.3767 -0.2102
   14MOL   H255 3661   5.775   6.372   4.721 -0.9733  0.2644 -1.0893
   14MOL   H256 3662   6.051   6.297   4.600  1.1877 -1.6001  2.8614
   14MOL   H257 3663   6.235   6.484   4.826 -1.2446  0.4053  0.6765
   14MOL   H258 3664   6.255   6.346   4.729  0.2138  0.7824 -1.2262
   14MOL   H259 3665   6.205   6.507   4.657 -0.1866 -0.1439  0.6027
   14MOL   H260 3666   5.715   6.168   4.618  1.0175 -2.8597 -0.9958
   14MOL   H261 3667   5.855   6.161   4.508  0.1271 -1.2621 -0.1493
   14MOL   H262 3668   5.875   6.127   4.682 -1.7934 -0.3108  1.6717
   15MOL     C1 3669   0.165   5.642   5.454  0.1944  0.5061 -0.7605
   15MOL     N2 3670   0.158   5.548   5.568 -0.3695  0.3509 -0.1330
   15MOL     C3 3671   0.176   5.583   5.696 -0.1920  0.4872  0.4915
   15MOL     O4 3672   0.205   5.698   5.721 -0.0887  0.1084  0.5590
   15MOL     C5 3673   0.157   5.486   5.812  0.3422  0.7486 -0.4690
   15MOL     C6 3674   0.030   5.709   5.424  0.2871 -0.2911 -0.1583
   15MOL     H7 3675   0.245   5.712   5.476 -1.1047  1.2335  1.9963
   15MOL     H8 3676   0.116   5.457   5.555 -1.1297  0.3884  1.8791
   15MOL     H9 3677   0.158   5.383   5.776 -2.3867  0.1275  1.0637
   15MOL    H10 3678   0.237   5.498   5.886 -0.1278  0.0573  0.1585
   15MOL    H11 3679   0.064   5.502   5.867 -0.5730 -0.4200 -1.6349
   15MOL    H12 3680   7.787   5.639   5.419  0.2340 -0.1759 -0.9459
   15MOL    H13 3681   7.838   5.765   5.512  0.0326 -0.8695  0.1228
   15MOL    H14 3682   0.188   5.584   5.365  1.7634 -1.4097  0.8374
   15MOL    C15 3683   0.027   5.797   5.297 -0.1973  0.0654 -0.5629
   15MOL    N16 3684   7.803   5.927   5.335 -0.1237 -0.1823  0.7120
   15MOL    C17 3685   0.035   6.035   5.379 -0.0596  0.2466  0.0493
   15MOL    O18 3686   0.160   6.035   5.395 -0.0056 -0.4451  0.3176
   15MOL    C19 3687   7.801   6.166   5.407 -0.0442 -0.1132 -0.0495
   15MOL    C20 3688   7.790   5.742   5.176 -0.0431 -0.3163  0.1504
   15MOL    H21 3689   0.131   5.821   5.273  0.0193  0.4213  0.6765
   15MOL    H22 3690   7.704   5.935   5.318 -0.2612  1.5966  2.1853
   15MOL    H23 3691   7.712   6.151   5.468 -0.0060 -0.4803 -0.0830
   15MOL    H24 3692   0.017   6.238   5.468  0.0899 -0.1611 -0.1161
   15MOL    H25 3693   7.786   6.221   5.314  1.9160  3.1675  1.4746
   15MOL    H26 3694   7.688   5.722   5.209  0.1398 -0.7322  0.4640
   15MOL    H27 3695   7.764   5.817   5.102  1.5423  0.4389  0.3405
   15MOL    C28 3696   0.016   5.623   5.090  0.3357  0.3152 -0.0956
   15MOL    N29 3697   0.127   5.677   5.015  0.5906  0.3969  0.0691
   15MOL    C30 3698   0.256   5.668   5.040  0.3245 -1.1237  0.3084
   15MOL    O31 3699   0.302   5.601   5.133 -0.1885 -0.4147 -0.3734
   15MOL    C32 3700   0.349   5.733   4.943 -0.0281 -1.0252  0.1517
   15MOL    C33 3701   7.755   5.559   4.994  0.6760  0.3615  0.1478
   15MOL    H34 3702   0.049   5.549   5.163 -0.1488 -1.2653 -1.4578
   15MOL    H35 3703   0.100   5.723   4.929 -1.3027 -0.1142  0.3791
   15MOL    H36 3704   0.318   5.728   4.839 -3.3994  0.0910  1.0300
   15MOL    H37 3705   0.362   5.840   4.960 -0.1344 -1.0241  0.2229
   15MOL    H38 3706   0.446   5.684   4.956  0.3659 -1.0569 -2.5740
   15MOL    H39 3707   7.678   5.516   5.058  2.6777 -2.7775  0.5321
   15MOL    H40 3708   7.704   5.637   4.938 -2.0078  0.1769  2.2427
   15MOL    C41 3709   7.814   5.448   4.909  0.1196  0.2820 -0.0694
   15MOL    N42 3710   7.729   5.392   4.807  0.4513  0.4143 -0.7023
   15MOL    C43 3711   7.746   5.411   4.674  0.2673  0.6222 -0.1346
   15MOL    O44 3712   7.818   5.499   4.634  0.3254 -0.4465 -0.4489
   15MOL    C45 3713   7.677   5.316   4.579  0.1330 -0.0809  0.0694
   15MOL    C46 3714   0.021   5.332   4.994 -0.1177 -0.0949 -0.1318
   15MOL    H47 3715   0.066   5.484   4.862  2.1827 -2.4144  1.7152
   15MOL    H48 3716   7.660   5.323   4.831  0.0549  0.6608 -1.1099
   15MOL    H49 3717   7.736   5.301   4.489  1.1450  2.7336  0.1939
   15MOL    H50 3718   7.668   5.225   4.638  1.3687  0.5644  1.2819
   15MOL    H51 3719   7.576   5.349   4.552  0.6793  1.3696 -0.2773
   15MOL    H52 3720   0.023   5.362   5.098 -2.7715  2.5692 -0.8045
   15MOL    H53 3721   7.782   5.259   5.010 -0.2419  0.1407  0.3320
   15MOL    C54 3722   0.158   5.274   4.958  0.3214  0.8525 -0.0976
   15MOL    N55 3723   0.165   5.237   4.818  0.1487  0.1347 -0.3470
   15MOL    C56 3724   0.103   5.134   4.756  0.3826  0.5387  0.3933
   15MOL    O57 3725   0.031   5.050   4.814  0.1748 -0.0754 -0.0171
   15MOL    C58 3726   0.144   5.114   4.606 -0.9985 -0.2380 -0.0884
   15MOL    C59 3727   0.193   5.152   5.050 -0.6745  0.0640  0.3315
   15MOL    H60 3728   0.224   5.359   4.972 -0.8748  1.5573  1.4103
   15MOL    H61 3729   0.211   5.301   4.754  0.2738  0.6587  0.2638
   15MOL    H62 3730   0.095   5.025   4.567 -0.5405 -1.1351  1.3581
   15MOL    H63 3731   0.115   5.202   4.548 -1.2714 -0.2505  0.0322
   15MOL    H64 3732   0.253   5.107   4.597 -0.8989  1.0585 -0.0045
   15MOL    H65 3733   0.134   5.154   5.141 -2.6985 -0.6431 -0.9249
   15MOL    H66 3734   0.153   5.059   5.010  1.0736 -0.9852  0.9629
   15MOL    C67 3735   0.344   5.133   5.088  0.0482 -0.1010  0.5187
   15MOL    N68 3736   0.387   5.236   5.181  0.0053 -0.8144  0.1355
   15MOL    C69 3737   0.426   5.222   5.307  0.6315 -0.0869 -0.2875
   15MOL    O70 3738   0.456   5.113   5.360 -0.1852  0.3244  0.0383
   15MOL    C71 3739   0.452   5.358   5.378 -0.4334 -0.5195  0.0745
   15MOL    C72 3740   0.430   5.110   4.959  0.2483 -0.2826 -0.3223
   15MOL    H73 3741   0.346   5.037   5.140 -0.4069  1.3694  3.3728
   15MOL    H74 3742   0.359   5.330   5.160  1.4828 -0.6790 -1.3580
   15MOL    H75 3743   0.513   5.417   5.310 -0.5532  1.2764  1.4735
   15MOL    H76 3744   0.362   5.417   5.394 -0.8192 -1.0666 -0.0763
   15MOL    H77 3745   0.493   5.342   5.478 -0.7760  1.7097  0.6084
   15MOL    H78 3746   0.372   5.040   4.898 -1.3685 -0.3704  1.2803
   15MOL    H79 3747   0.424   5.197   4.893  3.5643  0.4792  0.3029
   15MOL    C80 3748   0.575   5.060   4.975 -0.6303  0.0459  0.0688
   15MOL    N81 3749   0.669   5.160   5.025 -0.2773 -0.6845 -0.1716
   15MOL    C82 3750   0.759   5.147   5.127  0.4791  0.6047  0.1673
   15MOL    O83 3751   0.767   5.040   5.191 -0.3671  0.2313  0.0416
   15MOL    C84 3752   0.868   5.252   5.140 -0.8548 -0.3813 -0.4906
   15MOL    C85 3753   0.625   4.984   4.854  0.4506  0.1230  0.1231
   15MOL    H86 3754   0.570   4.980   5.050  1.6578  0.0102  0.2109
   15MOL    H87 3755   0.657   5.251   4.983 -4.0963 -0.6036  0.9107
   15MOL    H88 3756   0.939   5.206   5.210 -0.7428  1.8895  0.9326
   15MOL    H89 3757   0.929   5.254   5.050  0.5975 -2.4806  0.3808
   15MOL    H90 3758   0.826   5.348   5.171  2.1995  0.7049  0.5027
   15MOL    H91 3759   0.728   4.954   4.872  0.4042  0.2415  0.5803
   15MOL    H92 3760   0.562   4.895   4.849 -1.0389  1.1286  0.7708
   15MOL    C93 3761   0.622   5.065   4.723 -0.9520  0.3262  0.1622
   15MOL    N94 3762   0.640   4.967   4.615  0.2798 -0.4574  0.3059
   15MOL    C95 3763   0.618   4.994   4.483  0.1993  0.5541 -0.3185
   15MOL    O96 3764   0.584   5.105   4.442  0.0834 -0.1200 -0.5276
   15MOL    C97 3765   0.637   4.892   4.373  0.1092  0.2082  0.2176
   15MOL    C98 3766   0.726   5.183   4.728 -0.5033 -0.0577 -0.1297
   15MOL    H99 3767   0.525   5.108   4.696  0.1092  2.5195 -0.2914
   15MOL   H100 3768   0.659   4.871   4.639 -2.8356 -0.8819  1.3362
   15MOL   H101 3769   0.661   4.942   4.280  3.1846  1.1606  1.4590
   15MOL   H102 3770   0.728   4.835   4.392  0.1565  0.7270  1.6329
   15MOL   H103 3771   0.550   4.830   4.348  1.2871 -1.0797 -0.7722
   15MOL   H104 3772   0.806   5.168   4.801  0.7838  1.9524 -1.0662
   15MOL   H105 3773   0.789   5.189   4.639  0.7561  2.4677  0.8960
   15MOL   C106 3774   0.663   5.324   4.738  0.2599  0.1836 -0.3503
   15MOL   N107 3775   0.617   5.369   4.611 -0.7831  0.0007 -0.4811
   15MOL   C108 3776   0.492   5.422   4.594 -0.2321 -0.0353 -0.3362
   15MOL   O109 3777   0.423   5.460   4.687 -0.0348  0.2202  0.0084
   15MOL   C110 3778   0.454   5.476   4.455 -0.4139 -0.0910  0.8280
   15MOL   C111 3779   0.746   5.435   4.813  0.2943 -1.2195 -0.3874
   15MOL   H112 3780   0.575   5.308   4.801  0.4532  2.1233  0.4712
   15MOL   H113 3781   0.661   5.333   4.528  0.9339  1.1264 -0.0703
   15MOL   H114 3782   0.543   5.524   4.415 -0.5661 -0.0108  0.5852
   15MOL   H115 3783   0.437   5.388   4.394  1.3891  0.7676 -0.9806
   15MOL   H116 3784   0.364   5.538   4.461 -0.6007 -0.2936  0.0872
   15MOL   H117 3785   0.695   5.531   4.819  1.3424 -0.7735  1.9880
   15MOL   H118 3786   0.754   5.399   4.916 -1.0443 -0.5474 -0.0351
   15MOL   C119 3787   0.891   5.457   4.760  0.3139 -0.4311  0.2476
   15MOL   N120 3788   0.958   5.561   4.836 -0.5566 -0.2867  0.0004
   15MOL   C121 3789   1.085   5.541   4.884  0.0446  0.4510 -0.8395
   15MOL   O122 3790   1.150   5.447   4.853  0.1134  0.0006  0.4856
   15MOL   C123 3791   1.137   5.647   4.983 -0.0647  0.5227  0.3061
   15MOL   C124 3792   0.903   5.491   4.613 -0.4294 -0.0814  0.0882
   15MOL   H125 3793   0.931   5.356   4.769 -2.8762 -1.5360  3.2917
   15MOL   H126 3794   0.907   5.643   4.864 -1.8194 -0.4165 -1.8234
   15MOL   H127 3795   1.058   5.706   5.030  1.1358  1.5786  1.0186
   15MOL   H128 3796   1.189   5.586   5.056 -0.6077 -0.4628 -0.1239
   15MOL   H129 3797   1.214   5.711   4.939 -1.1271  1.1093 -0.7433
   15MOL   H130 3798   1.006   5.485   4.579 -0.3465 -1.0561  0.4932
   15MOL   H131 3799   0.865   5.406   4.556  1.6385 -1.4757  0.7100
   15MOL   C132 3800   0.850   5.620   4.558  0.1853 -0.1947 -0.7368
   15MOL   N133 3801   0.842   5.595   4.415  0.1841 -0.6580  0.1395
   15MOL   C134 3802   0.781   5.680   4.327  0.3125  0.5523 -0.0692
   15MOL   O135 3803   0.730   5.788   4.354  0.4754  0.0764  0.2736
   15MOL   C136 3804   0.779   5.634   4.182  0.5422 -0.0010 -0.3705
   15MOL   C137 3805   0.936   5.751   4.588  0.2980 -0.1126  0.4923
   15MOL   H138 3806   0.749   5.645   4.591  0.8365  0.5997  0.6991
   15MOL   H139 3807   0.892   5.511   4.390  1.2135 -0.8939  2.8401
   15MOL   H140 3808   0.798   5.720   4.118 -0.8725 -0.2402 -1.1236
   15MOL   H141 3809   0.848   5.553   4.157 -0.6586 -0.9145 -0.7778
   15MOL   H142 3810   0.678   5.596   4.171  1.0961 -1.4465 -0.5988
   15MOL   H143 3811   1.040   5.724   4.607  1.1221  1.2026 -2.0150
   15MOL   H144 3812   0.943   5.812   4.498 -1.2062  0.6857  0.8847
   15MOL   C145 3813   0.866   5.842   4.690 -0.3870 -0.6316 -0.1147
   15MOL   N146 3814   0.747   5.909   4.635  0.4178  0.8443  0.4247
   15MOL   C147 3815   0.635   5.918   4.711  0.7001 -1.0002  0.8428
   15MOL   O148 3816   0.628   5.878   4.829 -0.3070  0.0605  0.4720
   15MOL   C149 3817   0.510   5.984   4.647 -0.7504  0.5944 -0.2891
   15MOL   C150 3818   0.954   5.941   4.761  0.0999 -0.9493  0.2386
   15MOL   H151 3819   0.827   5.782   4.773 -0.0884 -1.8118 -0.8224
   15MOL   H152 3820   0.759   5.947   4.543  0.2990  0.2497  0.1629
   15MOL   H153 3821   0.474   6.072   4.700  0.1597 -0.2961  1.8697
   15MOL   H154 3822   0.537   6.018   4.547  0.6902  2.2440  0.6259
   15MOL   H155 3823   0.434   5.907   4.640  0.9171 -1.2212  0.9869
   15MOL   H156 3824   0.893   6.005   4.824  0.6632 -1.0826  0.9257
   15MOL   H157 3825   1.025   5.894   4.829  0.7800  0.1667  0.2943
   15MOL   C158 3826   1.025   6.040   4.672  0.2963  0.0214  0.0640
   15MOL   N159 3827   1.126   6.109   4.755  0.4595 -0.0340 -0.0679
   15MOL   C160 3828   1.253   6.074   4.751  0.4275 -0.3258 -0.0275
   15MOL   O161 3829   1.308   6.018   4.660  0.2243 -0.5177 -0.5615
   15MOL   C162 3830   1.335   6.089   4.875  0.0407  0.1702 -0.1066
   15MOL   C163 3831   0.936   6.138   4.585  0.3876 -0.5585  0.2901
   15MOL   H164 3832   1.069   5.974   4.597 -2.0428 -2.0383  0.4344
   15MOL   H165 3833   1.088   6.155   4.837  1.6954  0.0749  0.4579
   15MOL   H166 3834   1.288   6.163   4.940 -2.5745 -1.0073 -0.5946
   15MOL   H167 3835   1.345   5.992   4.924  0.5172  0.3693  0.1996
   15MOL   H168 3836   1.434   6.129   4.850 -0.4952 -0.0115 -2.6387
   15MOL   H169 3837   0.882   6.072   4.517 -1.4685  0.3130  0.8924
   15MOL   H170 3838   0.863   6.168   4.660 -0.8804 -0.5530 -0.9214
   15MOL   C171 3839   0.992   6.253   4.502 -0.5272  0.7940 -0.3450
   15MOL   N172 3840   0.884   6.338   4.446  0.3001 -0.2034  0.1592
   15MOL   C173 3841   0.774   6.304   4.378 -0.5241  0.1884  0.2057
   15MOL   O174 3842   0.727   6.190   4.373 -0.5009  0.2438 -0.9898
   15MOL   C175 3843   0.710   6.410   4.287  0.2614 -0.2872 -0.3059
   15MOL   C176 3844   1.089   6.199   4.396 -0.1382  0.6144  0.4461
   15MOL   H177 3845   1.032   6.317   4.580  0.3490  0.6825 -0.7027
   15MOL   H178 3846   0.913   6.434   4.431 -0.6236 -0.2020 -1.8680
   15MOL   H179 3847   0.643   6.480   4.337 -1.2844 -1.3726 -0.8416
   15MOL   H180 3848   0.787   6.481   4.257 -1.3927  2.0235  0.7819
   15MOL   H181 3849   0.665   6.372   4.196  0.4265 -0.4060 -0.3380
   15MOL   H182 3850   1.114   6.093   4.406  1.4913  0.9792  0.4918
   15MOL   H183 3851   1.053   6.202   4.293 -4.5728  0.3466  1.9158
   15MOL   C184 3852   1.222   6.270   4.391 -0.2977  0.1554 -0.2714
   15MOL   N185 3853   1.214   6.412   4.400  0.4881  0.3902 -0.2679
   15MOL   C186 3854   1.143   6.496   4.321  0.2575  0.3189  0.3819
   15MOL   O187 3855   1.061   6.469   4.235 -0.2423  0.0883 -0.0168
   15MOL   C188 3856   1.155   6.642   4.350  0.0330  0.1451 -0.1813
   15MOL   C189 3857   1.323   6.237   4.270 -0.0987  0.0234  0.1232
   15MOL   H190 3858   1.277   6.247   4.482 -0.6701  1.1467  0.2114
   15MOL   H191 3859   1.267   6.450   4.477 -0.8315 -0.6071  1.1803
   15MOL   H192 3860   1.260   6.672   4.350  0.4055 -1.0664  1.0089
   15MOL   H193 3861   1.103   6.701   4.276 -1.2637  1.1766  1.5137
   15MOL   H194 3862   1.120   6.666   4.451 -0.0333  0.0923 -0.1930
   15MOL   H195 3863   1.319   6.129   4.256  2.7039 -0.0840  0.0572
   15MOL   H196 3864   1.271   6.272   4.180 -0.2602  2.6549  1.2047
   15MOL   C197 3865   1.475   6.283   4.275  0.6730 -0.3960 -0.5198
   15MOL   N198 3866   1.543   6.239   4.153  0.4808  0.2320 -0.9255
   15MOL   C199 3867   1.651   6.293   4.103  0.4954  0.3100  0.9912
   15MOL   O200 3868   1.708   6.390   4.148 -0.3777 -0.0479  0.0807
   15MOL   C201 3869   1.706   6.212   3.985 -0.1557  0.4298  0.5160
   15MOL   C202 3870   1.559   6.232   4.395  0.4011 -0.4948  0.2213
   15MOL   H203 3871   1.486   6.391   4.271 -0.3311 -0.1869  1.7186
   15MOL   H204 3872   1.494   6.171   4.098 -1.6119  0.4468  0.5955
   15MOL   H205 3873   1.806   6.251   3.971 -0.4336  0.7957 -0.4986
   15MOL   H206 3874   1.723   6.105   3.999  0.1725  0.8309  3.3857
   15MOL   H207 3875   1.640   6.227   3.899 -1.0483  0.0681  1.1268
   15MOL   H208 3876   1.651   6.292   4.399  0.8264 -0.8626 -3.1919
   15MOL   H209 3877   1.498   6.246   4.484 -2.4445  1.1098 -1.9104
   15MOL   C210 3878   1.611   6.088   4.400 -0.0015  0.7228  0.4381
   15MOL   N211 3879   1.491   5.991   4.434 -0.5881 -0.6469 -0.1014
   15MOL   C212 3880   1.457   5.890   4.359 -0.2802 -0.2206 -0.6492
   15MOL   O213 3881   1.501   5.867   4.245  0.0064  0.0182 -0.0660
   15MOL   C214 3882   1.340   5.809   4.412 -0.1727 -0.3248 -0.2851
   15MOL   C215 3883   1.719   6.063   4.503  0.5247  0.3056 -0.2374
   15MOL   H216 3884   1.650   6.063   4.301 -0.7332 -0.3150  0.3990
   15MOL   H217 3885   1.444   6.001   4.522 -0.8819  0.6477 -0.4020
   15MOL   H218 3886   1.265   5.886   4.431 -0.3041 -0.9021  1.6483
   15MOL   H219 3887   1.317   5.732   4.339  0.7620 -1.0865  0.2072
   15MOL   H220 3888   1.364   5.757   4.505 -0.5714 -2.8472 -1.5541
   15MOL   H221 3889   1.688   6.104   4.599  3.1428  0.7965  0.4150
   15MOL   H222 3890   1.711   5.955   4.515 -0.5034  0.5589  1.5139
   15MOL   C223 3891   1.864   6.106   4.472  0.0492 -0.1254  1.2410
   15MOL   N224 3892   1.907   6.044   4.341  0.4348  0.1248  0.2715
   15MOL   C225 3893   2.004   6.086   4.260 -0.7852  0.7050  0.0847
   15MOL   O226 3894   2.063   6.191   4.255 -0.2422 -0.5631 -0.2572
   15MOL   C227 3895   2.042   5.991   4.141  0.2554 -0.7731 -0.4285
   15MOL   C228 3896   1.961   6.069   4.585  0.0070  0.7327 -0.5774
   15MOL   H229 3897   1.872   6.214   4.459  2.1171 -0.2874  0.8537
   15MOL   H230 3898   1.870   5.951   4.325 -0.1247  0.9969 -4.0698
   15MOL   H231 3899   2.061   6.039   4.045 -1.9233 -0.9363 -0.9596
   15MOL   H232 3900   2.132   5.933   4.161 -0.0422 -1.6642 -1.5859
   15MOL   H233 3901   1.955   5.929   4.118  1.1573 -2.1281 -0.2686
   15MOL   H234 3902   1.952   5.962   4.603  0.2184  0.5039 -1.7496
   15MOL   H235 3903   2.059   6.089   4.541 -1.1196 -0.2430 -3.6872
   15MOL   C236 3904   1.953   6.152   4.714  0.4135 -0.1032 -0.2155
   15MOL   N237 3905   2.020   6.281   4.702  0.1797  0.1169 -0.1909
   15MOL   C238 3906   1.968   6.401   4.682 -0.0055  0.1753 -0.0358
   15MOL   O239 3907   1.843   6.421   4.675 -0.3490 -0.1842 -0.3364
   15MOL   C240 3908   2.066   6.521   4.665 -0.2216  0.7994  0.1765
   15MOL   C241 3909   2.018   6.076   4.826  0.3533  0.8393 -0.0560
   15MOL   H242 3910   1.849   6.168   4.742  0.5201 -0.3176  0.3080
   15MOL   H243 3911   2.117   6.280   4.730 -0.0795 -2.8611  0.7810
   15MOL   H244 3912   2.155   6.501   4.725 -0.2294  0.8767  0.2149
   15MOL   H245 3913   2.087   6.516   4.558 -2.5738 -3.0334 -0.1970
   15MOL   H246 3914   2.016   6.614   4.694 -0.8639 -0.5096  3.4719
   15MOL   H247 3915   2.119   6.046   4.797  0.1622  1.2688 -1.2066
   15MOL   H248 3916   2.041   6.151   4.902 -0.0388 -0.5374  1.4394
   15MOL   C249 3917   1.938   5.966   4.886 -0.5629 -0.5491 -0.3583
   15MOL   N250 3918   1.829   6.020   4.971 -0.1261 -0.1336 -0.4888
   15MOL   C251 3919   1.696   6.029   4.948  0.0456 -0.0901  0.4900
   15MOL   O252 3920   1.654   6.009   4.833 -0.5124 -0.0732 -0.2783
   15MOL   C253 3921   1.613   6.103   5.049  0.4299  0.2684 -0.1491
   15MOL   C254 3922   2.039   5.873   4.962 -0.4994  0.1489  0.6489
   15MOL   H255 3923   1.892   5.904   4.809  1.1232 -2.4182  0.0620
   15MOL   H256 3924   1.860   6.044   5.064 -1.2148  0.1393 -0.1920
   15MOL   H257 3925   1.667   6.121   5.142 -0.6457 -1.1819  0.7825
   15MOL   H258 3926   1.577   6.200   5.013 -0.1215 -0.0497 -0.4693
   15MOL   H259 3927   1.529   6.040   5.077 -0.0007  1.3985  1.1743
   15MOL   H260 3928   2.085   5.933   5.040  0.4523  1.8690 -1.1975
   15MOL   H261 3929   1.989   5.791   5.013  0.0638 -1.5709 -1.4986
   15MOL   H262 3930   2.115   5.839   4.891  0.4161  0.6876  1.3501
   16MOL     C1 3931   2.527   2.491   5.278  0.2145 -0.8682  0.1796
   16MOL     N2 3932   2.539   2.508   5.141  0.0953  0.1613  0.2161
   16MOL     C3 3933   2.618   2.596   5.082 -0.1461  0.4762  0.5688
   16MOL     O4 3934   2.701   2.664   5.135  0.0472 -0.2542 -0.3244
   16MOL     C5 3935   2.597   2.613   4.932 -0.1018 -0.3914  0.7690
   16MOL     C6 3936   2.446   2.359   5.310 -0.1711 -0.0893  0.5925
   16MOL     H7 3937   2.620   2.495   5.334  0.2146  0.5908  0.0946
   16MOL     H8 3938   2.475   2.454   5.085 -0.0595  1.1359 -0.5634
   16MOL     H9 3939   2.575   2.719   4.917 -0.7464 -0.6738 -0.3745
   16MOL    H10 3940   2.688   2.580   4.881 -1.8787 -3.4820 -0.5373
   16MOL    H11 3941   2.513   2.559   4.888  0.5966 -0.0077 -1.0698
   16MOL    H12 3942   2.339   2.375   5.317 -0.3019  0.0993 -1.3930
   16MOL    H13 3943   2.456   2.297   5.220 -0.8712  0.1910  0.3219
   16MOL    H14 3944   2.463   2.573   5.313  0.6159  0.1423 -1.4162
   16MOL    C15 3945   2.512   2.289   5.431 -0.3016  0.4632  0.6260
   16MOL    N16 3946   2.454   2.160   5.445  0.1109  0.2445 -0.3360
   16MOL    C17 3947   2.521   2.048   5.426 -0.8677  0.6630  0.1085
   16MOL    O18 3948   2.639   2.037   5.391  0.0112 -0.2172  0.2095
   16MOL    C19 3949   2.452   1.913   5.456  0.7836 -0.5808 -0.4748
   16MOL    C20 3950   2.507   2.366   5.563  0.6168 -0.3581 -0.1449
   16MOL    H21 3951   2.620   2.278   5.417 -0.0890  3.5326 -0.4638
   16MOL    H22 3952   2.357   2.170   5.472 -0.6027 -1.7213 -2.0524
   16MOL    H23 3953   2.512   1.823   5.469  0.7948 -0.6505 -1.0006
   16MOL    H24 3954   2.397   1.911   5.550  1.4974  0.2316 -0.0334
   16MOL    H25 3955   2.380   1.898   5.375 -0.9521  0.5049  0.8184
   16MOL    H26 3956   2.554   2.463   5.554 -0.7364  0.3237  0.0279
   16MOL    H27 3957   2.401   2.383   5.582  0.0422 -1.9642 -1.7499
   16MOL    C28 3958   2.572   2.290   5.683  0.1489 -0.6999  0.0960
   16MOL    N29 3959   2.461   2.242   5.762  0.5959  0.4917 -0.3360
   16MOL    C30 3960   2.456   2.137   5.844 -0.9351 -0.1767  0.0954
   16MOL    O31 3961   2.556   2.068   5.864  0.2379 -0.0743  0.0382
   16MOL    C32 3962   2.333   2.121   5.931 -0.9773 -0.6738 -0.7948
   16MOL    C33 3963   2.669   2.374   5.766  0.5140 -0.5756  0.2757
   16MOL    H34 3964   2.627   2.211   5.632 -1.5153 -1.2264 -0.9187
   16MOL    H35 3965   2.377   2.298   5.768  0.2689 -0.1474  1.3052
   16MOL    H36 3966   2.255   2.193   5.908 -1.9003 -1.4304 -0.0578
   16MOL    H37 3967   2.294   2.020   5.925 -0.2905 -1.0393  0.7748
   16MOL    H38 3968   2.364   2.127   6.035 -0.4032 -1.3134 -0.9243
   16MOL    H39 3969   2.609   2.455   5.807  0.8635 -0.8211  1.2674
   16MOL    H40 3970   2.698   2.311   5.850 -1.2043  1.3150  2.3430
   16MOL    C41 3971   2.794   2.421   5.684 -0.3518  0.0097  0.0916
   16MOL    N42 3972   2.860   2.306   5.624 -0.4129  0.2210  0.3374
   16MOL    C43 3973   2.902   2.299   5.493  0.3077 -0.4561  0.0876
   16MOL    O44 3974   2.894   2.389   5.410  0.3505 -0.5046  0.0355
   16MOL    C45 3975   2.965   2.165   5.445  0.0190 -0.1399  0.2694
   16MOL    C46 3976   2.885   2.499   5.780  0.5000  0.5376 -0.2647
   16MOL    H47 3977   2.767   2.494   5.608 -0.0151  1.6943  1.5601
   16MOL    H48 3978   2.893   2.231   5.684 -0.3947 -0.2072 -0.2097
   16MOL    H49 3979   3.058   2.175   5.389  0.3108  0.2185  0.8200
   16MOL    H50 3980   2.991   2.110   5.535  0.3801 -0.4687 -0.0348
   16MOL    H51 3981   2.897   2.107   5.383  0.0835  0.6987 -0.6013
   16MOL    H52 3982   2.864   2.455   5.877  1.5040  1.7690  0.5275
   16MOL    H53 3983   2.987   2.495   5.742  0.2204 -0.6067 -0.9051
   16MOL    C54 3984   2.847   2.646   5.794 -0.1658  0.8558 -0.0489
   16MOL    N55 3985   2.859   2.714   5.663  0.2707 -0.1523  0.0877
   16MOL    C56 3986   2.751   2.758   5.587 -0.9417 -0.1904 -0.2766
   16MOL    O57 3987   2.636   2.742   5.624  0.2621 -0.0740 -0.0996
   16MOL    C58 3988   2.774   2.812   5.450  0.3693 -0.8628  0.0541
   16MOL    C59 3989   2.939   2.724   5.890  0.2895  0.1826  0.0141
   16MOL    H60 3990   2.745   2.654   5.829 -0.7057 -1.2304 -1.0844
   16MOL    H61 3991   2.947   2.715   5.614 -0.0694  0.0818 -0.5339
   16MOL    H62 3992   2.879   2.820   5.422  0.1372  0.3095 -0.5360
   16MOL    H63 3993   2.719   2.751   5.379 -0.5407 -1.2293  1.0759
   16MOL    H64 3994   2.730   2.912   5.450  0.2945 -0.8732 -1.9590
   16MOL    H65 3995   3.035   2.736   5.838  0.9703  0.1747  1.2477
   16MOL    H66 3996   2.892   2.822   5.899 -0.3228  0.0168 -1.3320
   16MOL    C67 3997   2.968   2.670   6.027  0.1049 -0.3385 -0.8182
   16MOL    N68 3998   2.842   2.638   6.099 -0.5851 -0.1869 -0.1108
   16MOL    C69 3999   2.745   2.722   6.141 -0.6473 -0.2981 -0.1732
   16MOL    O70 4000   2.737   2.841   6.105  0.6445  0.1250 -0.2574
   16MOL    C71 4001   2.670   2.664   6.258 -0.5436  0.2567 -0.1526
   16MOL    C72 4002   3.058   2.767   6.110 -0.5681  0.0168  0.5301
   16MOL    H73 4003   3.030   2.581   6.027  2.7138  1.4296  0.5609
   16MOL    H74 4004   2.848   2.544   6.135 -1.1626 -0.5349 -0.9229
   16MOL    H75 4005   2.571   2.710   6.253 -1.7631 -2.2449 -0.2748
   16MOL    H76 4006   2.664   2.555   6.254  2.1864  0.0736  0.2501
   16MOL    H77 4007   2.724   2.689   6.349  0.8779 -1.4651 -0.4886
   16MOL    H78 4008   3.034   2.874   6.104  0.4236  0.1937 -0.5971
   16MOL    H79 4009   3.044   2.739   6.214 -0.8583 -1.3149  0.1360
   16MOL    C80 4010   3.216   2.765   6.091 -0.8447 -0.0210 -0.2676
   16MOL    N81 4011   3.270   2.645   6.155  0.2119  0.1990  0.4835
   16MOL    C82 4012   3.301   2.531   6.089  0.3682 -0.1272  0.7629
   16MOL    O83 4013   3.305   2.531   5.968 -0.2110 -0.2887  0.2913
   16MOL    C84 4014   3.343   2.412   6.164 -0.3237 -0.1697 -0.2132
   16MOL    C85 4015   3.288   2.887   6.154  0.7129  0.6649  0.8432
   16MOL    H86 4016   3.241   2.774   5.985 -1.7600 -0.1748 -0.5046
   16MOL    H87 4017   3.281   2.657   6.255  0.3569 -0.1486  0.5111
   16MOL    H88 4018   3.442   2.372   6.141  0.3896  1.7714 -0.6632
   16MOL    H89 4019   3.359   2.438   6.269 -2.5338  0.9871 -0.1290
   16MOL    H90 4020   3.268   2.335   6.145  2.0377 -2.4778 -0.5090
   16MOL    H91 4021   3.256   2.890   6.258 -2.1413  0.7370 -0.0009
   16MOL    H92 4022   3.394   2.861   6.159 -0.2691 -3.6310  1.2860
   16MOL    C93 4023   3.282   3.020   6.083 -0.9689  0.4235  0.4770
   16MOL    N94 4024   3.410   3.081   6.091 -0.1710 -0.6044  0.5875
   16MOL    C95 4025   3.489   3.109   5.987  0.0612  0.1074  0.3075
   16MOL    O96 4026   3.464   3.072   5.873 -1.0263  0.7358  0.5885
   16MOL    C97 4027   3.611   3.198   6.018 -0.1303 -0.3484 -0.4994
   16MOL    C98 4028   3.162   3.109   6.137  0.0763 -0.0902 -0.3114
   16MOL    H99 4029   3.259   3.007   5.977  4.4865 -1.3719 -0.6634
   16MOL   H100 4030   3.450   3.096   6.182  1.3151 -0.7424 -0.0387
   16MOL   H101 4031   3.575   3.292   6.060  1.9777 -0.8178  2.5115
   16MOL   H102 4032   3.694   3.149   6.069 -0.1228  0.0252 -0.1552
   16MOL   H103 4033   3.650   3.233   5.923 -0.9258 -1.3049 -1.1918
   16MOL   H104 4034   3.094   3.127   6.054  0.1740 -0.7271 -0.5340
   16MOL   H105 4035   3.113   3.061   6.221  2.1643  0.5448  1.3259
   16MOL   C106 4036   3.181   3.250   6.193 -0.0866 -0.0841 -0.1893
   16MOL   N107 4037   3.065   3.289   6.263 -0.4030  0.1881 -0.5264
   16MOL   C108 4038   3.049   3.301   6.394  0.1121 -0.6028 -0.4887
   16MOL   O109 4039   3.125   3.248   6.474 -0.8482  0.7379 -0.5552
   16MOL   C110 4040   2.935   3.388   6.441  1.1790 -0.3454  0.3977
   16MOL   C111 4041   3.229   3.368   6.112 -0.0561 -0.6492  0.6888
   16MOL   H112 4042   3.258   3.240   6.270  0.6238 -2.6531 -1.1613
   16MOL   H113 4043   2.995   3.339   6.210  0.0251  1.7023  0.3155
   16MOL   H114 4044   2.845   3.336   6.411  1.2072 -0.7727  1.0507
   16MOL   H115 4045   2.948   3.400   6.549  2.2124 -2.6189  0.5551
   16MOL   H116 4046   2.940   3.482   6.385 -1.4066 -0.5295 -0.1943
   16MOL   H117 4047   3.309   3.341   6.043 -0.3931  0.6993 -0.2507
   16MOL   H118 4048   3.149   3.401   6.046 -0.2537  2.3651  2.3706
   16MOL   C119 4049   3.279   3.489   6.195 -0.3867 -0.2461  0.8232
   16MOL   N120 4050   3.242   3.613   6.122 -0.5559  0.2826 -0.5896
   16MOL   C121 4051   3.192   3.720   6.178 -0.2399  0.9836 -0.4227
   16MOL   O122 4052   3.168   3.728   6.295  0.4842 -0.0601 -0.1096
   16MOL   C123 4053   3.151   3.830   6.082  0.2784  0.6877  0.5892
   16MOL   C124 4054   3.436   3.475   6.228  0.2646  0.1478  0.5684
   16MOL   H125 4055   3.232   3.485   6.293 -3.1684  1.2353 -0.3922
   16MOL   H126 4056   3.230   3.612   6.022  2.0487  2.1974 -0.9539
   16MOL   H127 4057   3.189   3.927   6.113 -0.8718  1.9246 -1.7638
   16MOL   H128 4058   3.195   3.805   5.985  1.6899  0.4656  1.2705
   16MOL   H129 4059   3.042   3.831   6.074  0.3788 -0.9484 -1.4603
   16MOL   H130 4060   3.450   3.370   6.253 -0.8165 -0.3265 -0.7443
   16MOL   H131 4061   3.481   3.478   6.129  0.9110 -1.6074  0.7993
   16MOL   C132 4062   3.490   3.565   6.336 -0.0981  0.1228 -0.0729
   16MOL   N133 4063   3.603   3.641   6.270  0.1759  1.2292 -0.6377
   16MOL   C134 4064   3.623   3.769   6.268  0.5243 -0.7943  0.0422
   16MOL   O135 4065   3.537   3.848   6.311 -0.1800  0.4400  0.0135
   16MOL   C136 4066   3.757   3.822   6.212 -0.1873  1.1299 -0.4654
   16MOL   C137 4067   3.554   3.493   6.461 -0.4398  0.8543  0.6362
   16MOL   H138 4068   3.414   3.631   6.377 -0.0212 -1.1168  2.1657
   16MOL   H139 4069   3.676   3.581   6.234 -0.4275 -0.2969  0.5984
   16MOL   H140 4070   3.805   3.896   6.276 -1.0678  0.8674  0.5037
   16MOL   H141 4071   3.829   3.740   6.207 -0.6575  0.7518 -1.2403
   16MOL   H142 4072   3.729   3.853   6.111  1.9653 -1.2597 -1.8659
   16MOL   H143 4073   3.644   3.446   6.423 -1.4914 -0.8968  0.2464
   16MOL   H144 4074   3.588   3.573   6.528  1.9927  1.4025 -1.2025
   16MOL   C145 4075   3.461   3.392   6.540  0.3956 -0.5473  0.0167
   16MOL   N146 4076   3.329   3.450   6.566  0.1253 -0.3261 -0.0285
   16MOL   C147 4077   3.292   3.549   6.645 -0.3569  0.6679  0.0707
   16MOL   O148 4078   3.376   3.614   6.700 -0.6624  0.2781 -0.4166
   16MOL   C149 4079   3.145   3.577   6.659 -0.3859 -0.5347  0.3723
   16MOL   C150 4080   3.538   3.353   6.667 -0.3940 -0.7164  0.5818
   16MOL   H151 4081   3.441   3.307   6.475  1.3872  0.9909 -2.3831
   16MOL   H152 4082   3.256   3.402   6.516 -0.4606  1.9339 -1.3722
   16MOL   H153 4083   3.086   3.502   6.712 -1.1294 -0.0028  0.3108
   16MOL   H154 4084   3.137   3.665   6.724 -1.6057 -1.6744  1.7973
   16MOL   H155 4085   3.095   3.586   6.563  2.2411 -0.5112 -1.0374
   16MOL   H156 4086   3.569   3.451   6.703 -0.5448  0.1729 -1.6044
   16MOL   H157 4087   3.471   3.314   6.743  3.0589 -0.5151  3.8353
   16MOL   C158 4088   3.644   3.246   6.632  0.1253  0.2729  0.0868
   16MOL   N159 4089   3.583   3.118   6.619 -0.3488  0.0491  0.1585
   16MOL   C160 4090   3.559   3.050   6.502  0.4428  0.3054 -0.4296
   16MOL   O161 4091   3.559   3.105   6.394  0.7373  0.3434  0.3515
   16MOL   C162 4092   3.510   2.911   6.513  0.0528 -0.2196 -0.0352
   16MOL   C163 4093   3.757   3.232   6.743  0.1347  0.2605 -0.3643
   16MOL   H164 4094   3.692   3.271   6.538  0.8191  0.7915  0.5666
   16MOL   H165 4095   3.573   3.065   6.705 -0.6825  2.5148  1.6829
   16MOL   H166 4096   3.466   2.882   6.417  0.7476 -0.0482 -0.4055
   16MOL   H167 4097   3.588   2.844   6.548 -2.2669 -2.5942  0.7094
   16MOL   H168 4098   3.427   2.908   6.584  0.8367 -1.4118  0.8499
   16MOL   H169 4099   3.716   3.219   6.843  2.7850  1.1818  0.8868
   16MOL   H170 4100   3.825   3.149   6.727 -0.4784 -0.1239 -1.0039
   16MOL   C171 4101   3.854   3.352   6.756  0.1810 -0.4569 -0.8974
   16MOL   N172 4102   3.864   3.414   6.623 -0.2268 -0.6462 -0.1854
   16MOL   C173 4103   3.875   3.546   6.601 -0.3170  0.6076  0.6875
   16MOL   O174 4104   3.885   3.630   6.687  0.8172 -0.2427  0.2692
   16MOL   C175 4105   3.912   3.586   6.458 -0.4551 -0.5262  0.0356
   16MOL   C176 4106   3.998   3.331   6.800 -0.8323  0.3289  0.1127
   16MOL   H177 4107   3.811   3.429   6.820 -0.9292 -0.4795 -1.5835
   16MOL   H178 4108   3.871   3.348   6.547 -0.7098 -0.1156 -0.6978
   16MOL   H179 4109   3.950   3.498   6.405 -0.2530 -0.3692 -0.0822
   16MOL   H180 4110   3.816   3.611   6.414 -0.1086  0.6168 -0.0913
   16MOL   H181 4111   3.987   3.663   6.441 -2.1178  1.2264  0.4973
   16MOL   H182 4112   4.057   3.307   6.711 -1.5314  3.7492 -1.3442
   16MOL   H183 4113   4.036   3.428   6.830 -0.3464 -0.3764  1.8184
   16MOL   C184 4114   4.025   3.230   6.911 -0.4275  0.1255 -0.0106
   16MOL   N185 4115   3.962   3.265   7.034  1.1087 -0.8655  0.0651
   16MOL   C186 4116   3.870   3.191   7.099 -0.0001 -0.2255 -0.7153
   16MOL   O187 4117   3.841   3.076   7.070  0.4195 -0.0182 -0.2187
   16MOL   C188 4118   3.793   3.248   7.221  0.7641  0.2454 -0.7285
   16MOL   C189 4119   4.179   3.225   6.934 -0.1323  0.5063  0.4333
   16MOL   H190 4120   3.988   3.132   6.882  1.3650 -0.1447 -1.5022
   16MOL   H191 4121   3.990   3.352   7.076  2.9745  0.3275 -3.4922
   16MOL   H192 4122   3.768   3.353   7.208  0.4811  0.1486 -0.9724
   16MOL   H193 4123   3.698   3.194   7.228  1.8701 -1.5970  0.6838
   16MOL   H194 4124   3.839   3.228   7.318  1.1836  1.6982 -0.6225
   16MOL   H195 4125   4.218   3.245   6.834  2.8708 -0.0545  1.4148
   16MOL   H196 4126   4.217   3.300   7.004  4.2756  0.1190 -1.3637
   16MOL   C197 4127   4.237   3.094   6.975 -0.2375 -0.1100  0.5752
   16MOL   N198 4128   4.174   3.057   7.098  0.0822 -0.2527 -0.0886
   16MOL   C199 4129   4.142   2.931   7.135 -0.3308 -0.2067 -0.4753
   16MOL   O200 4130   4.151   2.834   7.060 -0.4052  0.2032  0.7814
   16MOL   C201 4131   4.092   2.911   7.277 -0.0076 -0.2750  0.0604
   16MOL   C202 4132   4.394   3.089   7.012  0.2762 -0.2844 -0.3614
   16MOL   H203 4133   4.210   3.016   6.903 -0.1102 -0.1712  0.5937
   16MOL   H204 4134   4.164   3.125   7.171  3.4116 -1.2122  1.3303
   16MOL   H205 4135   4.010   2.980   7.293 -0.0923 -0.2097 -0.6293
   16MOL   H206 4136   4.080   2.805   7.302  3.6448 -1.0044 -0.8805
   16MOL   H207 4137   4.165   2.959   7.341  0.4215 -0.0451 -0.5946
   16MOL   H208 4138   4.412   3.182   7.066 -0.3972 -1.3477  1.7285
   16MOL   H209 4139   4.425   3.012   7.083 -0.4971 -0.7833 -0.5562
   16MOL   C210 4140   4.480   3.081   6.894 -0.5574  0.2786 -0.3337
   16MOL   N211 4141   4.451   2.954   6.840 -0.2432 -0.0138  0.0141
   16MOL   C212 4142   4.436   2.934   6.706  0.8975  0.1974  0.1472
   16MOL   O213 4143   4.456   3.020   6.618  0.5567 -0.0935  0.2868
   16MOL   C214 4144   4.368   2.803   6.676 -0.7102  0.1969 -0.1797
   16MOL   C215 4145   4.633   3.103   6.928 -0.5474 -0.4500 -0.2466
   16MOL   H216 4146   4.450   3.156   6.821 -1.0707 -0.2751 -0.6918
   16MOL   H217 4147   4.424   2.877   6.900  0.8447 -2.1105 -2.1004
   16MOL   H218 4148   4.289   2.813   6.602 -1.1113 -0.6175  0.1344
   16MOL   H219 4149   4.451   2.744   6.638 -1.5145 -0.5830 -0.7504
   16MOL   H220 4150   4.334   2.749   6.765 -1.0354  0.7726  0.0484
   16MOL   H221 4151   4.672   3.049   7.014 -0.3188 -1.9322 -1.2725
   16MOL   H222 4152   4.694   3.074   6.843 -0.9929  0.9351 -1.0494
   16MOL   C223 4153   4.668   3.253   6.962  0.4438 -0.0446  0.1245
   16MOL   N224 4154   4.773   3.303   6.870 -0.8904  0.2748  0.6539
   16MOL   C225 4155   4.746   3.385   6.771  0.1524 -0.2593 -0.3180
   16MOL   O226 4156   4.635   3.425   6.741  0.0170  0.0652 -0.1074
   16MOL   C227 4157   4.865   3.434   6.689 -0.3674 -0.0540 -0.0075
   16MOL   C228 4158   4.715   3.268   7.106 -0.2405  0.5914 -0.3272
   16MOL   H229 4159   4.577   3.311   6.947  2.6308  4.0930  2.1932
   16MOL   H230 4160   4.868   3.270   6.885 -0.7819  0.5953  0.6648
   16MOL   H231 4161   4.941   3.468   6.758 -0.7953 -2.0418  1.4642
   16MOL   H232 4162   4.905   3.357   6.622  0.5892  1.8560 -1.6920
   16MOL   H233 4163   4.832   3.518   6.627 -1.9017 -0.6314  0.0122
   16MOL   H234 4164   4.639   3.234   7.176 -0.8188  1.0416 -0.7263
   16MOL   H235 4165   4.798   3.200   7.126  0.4124  1.4390 -0.1213
   16MOL   C236 4166   4.757   3.410   7.154 -0.0719 -0.2191  0.0592
   16MOL   N237 4167   4.651   3.502   7.115  0.5350 -0.1847 -0.5264
   16MOL   C238 4168   4.532   3.508   7.175  1.1324 -0.5808  0.4960
   16MOL   O239 4169   4.503   3.451   7.277 -0.3256 -0.3118 -0.6532
   16MOL   C240 4170   4.440   3.592   7.093 -0.3131 -0.2984  0.2778
   16MOL   C241 4171   4.902   3.456   7.115  0.8593  0.5875  0.1028
   16MOL   H242 4172   4.753   3.402   7.263  0.7776 -0.5389  0.0706
   16MOL   H243 4173   4.670   3.550   7.029  0.8347 -0.1638 -0.4509
   16MOL   H244 4174   4.355   3.527   7.072  0.7045 -0.6074 -3.2108
   16MOL   H245 4175   4.419   3.690   7.137 -1.8807 -0.4234 -0.1334
   16MOL   H246 4176   4.483   3.608   6.994  0.5018 -0.7321  0.5633
   16MOL   H247 4177   4.964   3.367   7.125 -1.1096 -0.9118 -0.8952
   16MOL   H248 4178   4.906   3.489   7.011  2.0606 -1.7855 -0.6369
   16MOL   C249 4179   4.933   3.573   7.217  0.2791 -0.2434 -0.2627
   16MOL   N250 4180   4.979   3.686   7.139 -0.0960  0.4527 -0.7230
   16MOL   C251 4181   4.891   3.761   7.072 -0.2662 -0.1970  0.0268
   16MOL   O252 4182   4.770   3.748   7.074  0.1465  0.1505  0.4672
   16MOL   C253 4183   4.940   3.880   6.995 -0.8213  0.1944  0.1811
   16MOL   C254 4184   5.046   3.534   7.309 -0.3428 -0.1274 -0.0252
   16MOL   H255 4185   4.848   3.612   7.273  0.5469 -1.5486  1.1038
   16MOL   H256 4186   5.076   3.713   7.129  0.0112  0.4351  0.2059
   16MOL   H257 4187   5.016   3.930   7.055  1.0641 -1.6228 -0.6223
   16MOL   H258 4188   4.990   3.840   6.907 -0.4943  0.9681  0.0125
   16MOL   H259 4189   4.869   3.955   6.961 -0.4807 -0.4218 -1.9948
   16MOL   H260 4190   5.135   3.492   7.263 -0.6052 -0.2444 -0.4297
   16MOL   H261 4191   5.084   3.616   7.371  1.2120 -1.5486  0.9405
   16MOL   H262 4192   5.010   3.457   7.377  0.2302 -0.8648 -0.5562
   17MOL     C1 4193   6.265   3.489   4.783 -0.3308  0.2825 -0.4144
   17MOL     N2 4194   6.203   3.580   4.682  0.1072  0.3569  0.2532
   17MOL     C3 4195   6.077   3.622   4.677  0.5848  0.5704 -0.0961
   17MOL     O4 4196   5.996   3.581   4.760  0.5586  0.0405 -0.3690
   17MOL     C5 4197   6.032   3.712   4.559  0.0074 -0.3582 -0.3678
   17MOL     C6 4198   6.258   3.534   4.932  0.0753  0.2720 -0.0118
   17MOL     H7 4199   6.211   3.393   4.784 -1.4492  0.9002  1.7468
   17MOL     H8 4200   6.267   3.610   4.610  0.4699  1.5994  1.0833
   17MOL     H9 4201   5.926   3.708   4.534 -0.2076  4.4726 -0.8350
   17MOL    H10 4202   6.040   3.816   4.592  1.1100 -0.2095 -1.0952
   17MOL    H11 4203   6.102   3.678   4.483  0.4455 -0.9331  0.2824
   17MOL    H12 4204   6.310   3.627   4.953  1.4066 -0.9159  2.2107
   17MOL    H13 4205   6.155   3.564   4.945  0.0289 -0.3238  1.0370
   17MOL    H14 4206   6.366   3.475   4.745  0.2204  3.9991 -0.4586
   17MOL    C15 4207   6.296   3.418   5.033  0.5549 -0.3833  0.2725
   17MOL    N16 4208   6.196   3.405   5.148  0.0433  0.8795 -0.4157
   17MOL    C17 4209   6.136   3.293   5.190  0.3313  1.1687 -0.3865
   17MOL    O18 4210   6.138   3.184   5.128 -0.0442 -0.3142 -0.3310
   17MOL    C19 4211   6.068   3.297   5.334 -0.2157 -0.2123  0.3403
   17MOL    C20 4212   6.431   3.430   5.076  0.3589 -0.4760  0.2109
   17MOL    H21 4213   6.286   3.327   4.974  1.9266  0.7162 -1.7213
   17MOL    H22 4214   6.199   3.474   5.221 -0.8407  1.2906 -0.7586
   17MOL    H23 4215   6.042   3.194   5.359 -0.1707 -0.0038  1.2496
   17MOL    H24 4216   6.136   3.340   5.407 -1.0517  0.2622  0.8431
   17MOL    H25 4217   5.966   3.336   5.337  0.2122  1.0288 -0.9719
   17MOL    H26 4218   6.468   3.532   5.084 -2.0048  0.3325  1.1022
   17MOL    H27 4219   6.446   3.379   5.171  1.4642 -0.7343 -0.0964
   17MOL    C28 4220   6.531   3.356   4.982  0.9752  0.0441  0.8846
   17MOL    N29 4221   6.503   3.212   4.982 -0.5835 -0.4903 -0.0139
   17MOL    C30 4222   6.448   3.146   4.884  0.4517 -0.1018  0.1531
   17MOL    O31 4223   6.392   3.206   4.790  0.1706  0.3350  0.1638
   17MOL    C32 4224   6.434   2.996   4.893  0.4276  0.6148 -0.7217
   17MOL    C33 4225   6.671   3.373   5.038  0.4184 -0.3284 -0.4642
   17MOL    H34 4226   6.514   3.416   4.892  0.4518  1.1977  1.7486
   17MOL    H35 4227   6.543   3.152   5.052  0.2573 -2.6890 -2.2925
   17MOL    H36 4228   6.479   2.944   4.809  1.0056  1.2140 -0.7878
   17MOL    H37 4229   6.496   2.963   4.976 -0.4172 -0.2879 -0.4346
   17MOL    H38 4230   6.333   2.960   4.912  1.3737 -0.3310  2.8760
   17MOL    H39 4231   6.682   3.478   5.065 -1.6741 -0.1916 -0.0690
   17MOL    H40 4232   6.664   3.316   5.131 -0.5650 -1.2715 -1.1036
   17MOL    C41 4233   6.785   3.310   4.955  0.2900 -0.6158  0.7307
   17MOL    N42 4234   6.882   3.270   5.049 -0.0559 -0.1768  1.0680
   17MOL    C43 4235   6.898   3.152   5.112  0.3382  0.4023  0.5088
   17MOL    O44 4236   6.843   3.047   5.075 -0.4897 -0.3367  0.1452
   17MOL    C45 4237   6.988   3.157   5.234  0.1268 -0.2077  0.4628
   17MOL    C46 4238   6.838   3.400   4.844 -0.0400  0.1406  0.2105
   17MOL    H47 4239   6.744   3.225   4.901  1.9993 -0.9837 -0.0204
   17MOL    H48 4240   6.941   3.343   5.087  3.0180 -2.3294  0.6418
   17MOL    H49 4241   7.081   3.192   5.191  0.5674  0.2712  1.7929
   17MOL    H50 4242   6.955   3.218   5.318 -2.8674  1.7294 -1.9978
   17MOL    H51 4243   6.990   3.057   5.278 -1.3279 -0.3579  0.2243
   17MOL    H52 4244   6.765   3.416   4.764  0.3789 -2.2106 -0.6714
   17MOL    H53 4245   6.855   3.502   4.878  0.2923 -0.2123  1.1174
   17MOL    C54 4246   6.973   3.349   4.774 -0.4116 -0.0605 -0.2768
   17MOL    N55 4247   7.088   3.353   4.859  0.1464 -0.0188 -0.8652
   17MOL    C56 4248   7.147   3.459   4.914  0.5913 -0.8685 -0.0199
   17MOL    O57 4249   7.095   3.567   4.881  0.1678 -0.2467 -0.0173
   17MOL    C58 4250   7.269   3.445   5.003  0.2112 -0.2869 -0.2652
   17MOL    C59 4251   6.993   3.399   4.626 -0.0645  0.4173 -0.6200
   17MOL    H60 4252   6.942   3.248   4.747  1.1906 -0.8812  0.9298
   17MOL    H61 4253   7.137   3.265   4.866  0.7219  0.4344  1.3508
   17MOL    H62 4254   7.327   3.358   4.973 -0.0254 -0.1201 -1.2116
   17MOL    H63 4255   7.334   3.531   4.983  0.2928 -0.0611  0.9081
   17MOL    H64 4256   7.230   3.439   5.105  2.4865 -1.9192  0.5541
   17MOL    H65 4257   6.902   3.401   4.567  0.5693 -0.6804 -1.6514
   17MOL    H66 4258   7.016   3.505   4.638  3.6091 -0.5280  1.6474
   17MOL    C67 4259   7.106   3.335   4.555 -0.3998  0.2703  0.0135
   17MOL    N68 4260   7.111   3.392   4.423  0.5365  0.8333  0.2176
   17MOL    C69 4261   7.216   3.457   4.374 -0.6112 -0.5239  0.0058
   17MOL    O70 4262   7.317   3.489   4.436  0.3850 -0.2163  0.0535
   17MOL    C71 4263   7.213   3.485   4.224 -0.1566  0.1307 -0.6077
   17MOL    C72 4264   7.105   3.177   4.553 -0.1109  0.5058  0.4413
   17MOL    H73 4265   7.191   3.364   4.617 -1.6245  0.0144  1.8161
   17MOL    H74 4266   7.028   3.372   4.368 -0.0272  0.4060  1.2064
   17MOL    H75 4267   7.116   3.516   4.184  1.5836  3.0234 -2.7627
   17MOL    H76 4268   7.274   3.573   4.201  0.1830 -0.0672 -0.4643
   17MOL    H77 4269   7.260   3.404   4.168 -1.0510 -0.2369 -0.8275
   17MOL    H78 4270   7.127   3.135   4.651  3.6247 -1.0747 -0.9596
   17MOL    H79 4271   7.005   3.144   4.523 -0.0811 -0.0813  0.9811
   17MOL    C80 4272   7.211   3.112   4.459 -0.8437  0.3308  0.3991
   17MOL    N81 4273   7.164   3.111   4.316  0.0334 -0.9258  0.6272
   17MOL    C82 4274   7.247   3.096   4.210 -0.2940  0.1144 -0.5828
   17MOL    O83 4275   7.368   3.104   4.227 -0.1158  0.6850 -0.0238
   17MOL    C84 4276   7.185   3.084   4.071  0.1420  1.0811 -0.0274
   17MOL    C85 4277   7.251   2.975   4.515 -0.5347  0.6636 -0.6569
   17MOL    H86 4278   7.297   3.178   4.472 -1.0862  0.7242  0.0243
   17MOL    H87 4279   7.066   3.093   4.304 -0.0269  1.4583 -3.1736
   17MOL    H88 4280   7.267   3.103   4.001 -0.0197 -0.8433 -0.7703
   17MOL    H89 4281   7.142   2.986   4.048  1.3055  0.6378 -0.3610
   17MOL    H90 4282   7.102   3.155   4.072 -2.6547 -1.9767 -2.0011
   17MOL    H91 4283   7.168   2.914   4.552 -0.9121 -0.0284 -2.5775
   17MOL    H92 4284   7.270   2.902   4.436  3.2138  0.0474  0.7210
   17MOL    C93 4285   7.362   2.986   4.631 -0.4151 -0.6640 -1.0034
   17MOL    N94 4286   7.490   3.012   4.560 -0.1841  0.0972 -0.4692
   17MOL    C95 4287   7.595   3.083   4.603 -0.5125  0.4365 -0.3447
   17MOL    O96 4288   7.595   3.132   4.716 -0.2709 -0.0828  0.8569
   17MOL    C97 4289   7.708   3.125   4.499 -0.4731 -0.4913  0.2884
   17MOL    C98 4290   7.363   2.856   4.703  0.5392  0.7012 -0.1410
   17MOL    H99 4291   7.340   3.062   4.706 -2.8520 -0.2667 -2.0717
   17MOL   H100 4292   7.493   2.977   4.465  0.2164  0.3334 -0.5448
   17MOL   H101 4293   7.770   3.038   4.475 -0.3354  0.0431 -1.3322
   17MOL   H102 4294   7.660   3.168   4.411 -0.1001  0.2305  0.4351
   17MOL   H103 4295   7.768   3.208   4.536  0.4676 -1.0848  0.1097
   17MOL   H104 4296   7.335   2.775   4.635  1.0719  1.1750 -0.9367
   17MOL   H105 4297   7.461   2.828   4.743  0.1977 -0.1531  0.0960
   17MOL   C106 4298   7.255   2.848   4.816  0.1787 -1.1230 -0.1191
   17MOL   N107 4299   7.310   2.899   4.940 -0.0777  0.9946 -0.4801
   17MOL   C108 4300   7.293   3.020   4.996  0.5977 -0.6273  0.0513
   17MOL   O109 4301   7.217   3.103   4.944  0.0075 -0.0464 -0.1656
   17MOL   C110 4302   7.359   3.059   5.127 -0.1236 -0.4420 -0.3172
   17MOL   C111 4303   7.203   2.706   4.827  0.4722  0.7061 -0.5948
   17MOL   H112 4304   7.172   2.914   4.793  0.6297  0.0783  1.6068
   17MOL   H113 4305   7.364   2.829   4.989 -2.5478 -0.4355  0.2403
   17MOL   H114 4306   7.424   2.986   5.175 -2.6408 -1.3581  1.8142
   17MOL   H115 4307   7.436   3.134   5.106  0.9028 -1.3870  0.0207
   17MOL   H116 4308   7.283   3.097   5.195 -1.3580 -2.4076 -0.5437
   17MOL   H117 4309   7.284   2.636   4.803 -0.6016 -0.1310 -1.8363
   17MOL   H118 4310   7.174   2.677   4.928 -0.2383 -0.1419 -1.0279
   17MOL   C119 4311   7.085   2.666   4.734  0.1654  0.2380  0.0854
   17MOL   N120 4312   6.967   2.737   4.777 -0.1014 -0.0595  0.0875
   17MOL   C121 4313   6.883   2.807   4.698  0.1981 -0.1158  0.7356
   17MOL   O122 4314   6.870   2.788   4.575 -0.2804 -0.7735  0.7305
   17MOL   C123 4315   6.801   2.909   4.768  0.1250  0.5252 -0.6729
   17MOL   C124 4316   7.056   2.513   4.727 -0.0748 -0.6300 -0.0159
   17MOL   H125 4317   7.113   2.706   4.637 -0.5369  1.4058  0.3537
   17MOL   H126 4318   6.958   2.753   4.876  1.1396  1.6274 -0.0559
   17MOL   H127 4319   6.804   2.889   4.875  0.2230  1.1474 -0.5537
   17MOL   H128 4320   6.833   3.013   4.759  0.4863  0.6640  1.8328
   17MOL   H129 4321   6.696   2.900   4.741 -0.0640 -3.0826  1.0473
   17MOL   H130 4322   6.956   2.508   4.683  0.7385 -4.5296 -1.6318
   17MOL   H131 4323   7.110   2.473   4.642 -0.2118  1.4843 -1.1198
   17MOL   C132 4324   7.080   2.423   4.856 -0.2845  1.0171  0.0970
   17MOL   N133 4325   7.222   2.390   4.863  0.1731  0.3533 -0.3051
   17MOL   C134 4326   7.299   2.414   4.972  0.1997  0.0804 -0.5355
   17MOL   O135 4327   7.251   2.436   5.085 -0.4251  0.1092  0.0790
   17MOL   C136 4328   7.452   2.412   4.942 -0.5899 -0.1864 -0.9834
   17MOL   C137 4329   7.008   2.290   4.851  0.2565 -0.0498 -0.5498
   17MOL   H138 4330   7.047   2.473   4.947 -1.0563 -1.6603  1.3370
   17MOL   H139 4331   7.268   2.365   4.777  0.3665  0.9491 -0.3808
   17MOL   H140 4332   7.507   2.500   4.908  2.5004 -2.0269 -0.9131
   17MOL   H141 4333   7.495   2.390   5.040 -1.3564  0.7394 -0.4224
   17MOL   H142 4334   7.457   2.332   4.868  0.5834 -0.5214 -0.5566
   17MOL   H143 4335   7.015   2.257   4.748 -1.0447  0.6793 -0.8744
   17MOL   H144 4336   7.060   2.209   4.901  0.6627  0.2244 -0.5206
   17MOL   C145 4337   6.868   2.266   4.914  0.0758 -0.1878 -0.1699
   17MOL   N146 4338   6.780   2.361   4.849 -0.1003 -0.0562  0.0678
   17MOL   C147 4339   6.708   2.346   4.742 -0.7977  0.6603 -0.9403
   17MOL   O148 4340   6.707   2.237   4.676 -0.6560 -0.1880  0.0712
   17MOL   C149 4341   6.629   2.465   4.692  0.1715  0.0138  0.3847
   17MOL   C150 4342   6.867   2.279   5.072 -0.1445  0.5782 -0.8722
   17MOL   H151 4343   6.838   2.168   4.878  0.7905 -0.7871  0.8723
   17MOL   H152 4344   6.784   2.453   4.889 -1.7894 -0.6175  1.6181
   17MOL   H153 4345   6.601   2.524   4.780 -0.7472  0.7194 -0.3867
   17MOL   H154 4346   6.708   2.517   4.638  0.0451 -0.8451 -0.6421
   17MOL   H155 4347   6.540   2.435   4.638  0.9803 -2.2554  0.2408
   17MOL   H156 4348   6.910   2.369   5.116 -2.5811  0.1637  2.6223
   17MOL   H157 4349   6.764   2.264   5.107  0.4615 -1.7403  0.0683
   17MOL   C158 4350   6.949   2.165   5.139 -0.1830 -0.2209 -0.1612
   17MOL   N159 4351   6.895   2.033   5.107  0.3043 -0.3481 -0.5326
   17MOL   C160 4352   6.773   1.990   5.138  0.2858  0.2211  0.3862
   17MOL   O161 4353   6.685   2.052   5.196 -0.2720 -0.5835  0.3871
   17MOL   C162 4354   6.740   1.844   5.108  0.7210  0.2275 -0.4513
   17MOL   C163 4355   6.960   2.188   5.292 -0.6067 -0.5418 -0.0723
   17MOL   H164 4356   7.053   2.170   5.107 -0.1786  0.3181 -0.0644
   17MOL   H165 4357   6.962   1.972   5.063  2.0040  0.6144  0.6145
   17MOL   H166 4358   6.706   1.840   5.004  2.2693  2.0441 -1.0427
   17MOL   H167 4359   6.823   1.775   5.126  0.4918  0.1343  0.2649
   17MOL   H168 4360   6.661   1.799   5.169  1.0556  0.5139  0.1934
   17MOL   H169 4361   6.858   2.217   5.319 -0.8716 -2.2222  0.8119
   17MOL   H170 4362   6.985   2.090   5.333 -0.5302  0.3248  2.0267
   17MOL   C171 4363   7.064   2.291   5.347 -0.2011  0.2801 -0.3419
   17MOL   N172 4364   7.199   2.272   5.293 -0.3566  0.9108  0.4050
   17MOL   C173 4365   7.278   2.174   5.314  0.5737  0.7740 -0.2956
   17MOL   O174 4366   7.254   2.102   5.412 -0.6625 -0.4222 -0.1397
   17MOL   C175 4367   7.403   2.160   5.225 -0.7902  0.4858 -0.6439
   17MOL   C176 4368   7.059   2.296   5.503  0.8595  0.6843 -0.6297
   17MOL   H177 4369   7.034   2.392   5.320  0.8069  0.4727 -0.7699
   17MOL   H178 4370   7.228   2.335   5.220 -0.6597  1.7248  0.9852
   17MOL   H179 4371   7.463   2.069   5.234 -0.6809  0.7284  1.4223
   17MOL   H180 4372   7.373   2.172   5.121  1.1593  0.6324 -1.2055
   17MOL   H181 4373   7.462   2.248   5.248  0.0951 -0.6808  1.7595
   17MOL   H182 4374   7.064   2.195   5.543  0.3012  1.7535  2.1959
   17MOL   H183 4375   7.153   2.339   5.537  0.6820 -0.3271  1.1722
   17MOL   C184 4376   6.930   2.362   5.565 -0.5095  0.0827  0.0075
   17MOL   N185 4377   6.931   2.510   5.547 -0.4285  0.5857  0.2859
   17MOL   C186 4378   7.015   2.594   5.612 -0.3223  0.2636  0.9523
   17MOL   O187 4379   7.114   2.566   5.681  0.7061  0.0520 -0.3161
   17MOL   C188 4380   6.960   2.740   5.616  0.1279  0.5086  0.6421
   17MOL   C189 4381   6.901   2.320   5.714 -0.4993 -0.5784  0.0556
   17MOL   H190 4382   6.843   2.330   5.508 -2.4613 -0.1186  3.0020
   17MOL   H191 4383   6.841   2.550   5.524 -0.1186  0.2080 -1.7097
   17MOL   H192 4384   6.854   2.730   5.591  0.4536 -0.8911 -0.2567
   17MOL   H193 4385   6.988   2.788   5.709  2.4675 -0.7681  0.6321
   17MOL   H194 4386   7.002   2.796   5.533  2.0019  0.3642  1.4882
   17MOL   H195 4387   6.911   2.212   5.724  0.8199 -0.3366  1.6215
   17MOL   H196 4388   6.977   2.353   5.785 -0.8203  1.0799 -0.3666
   17MOL   C197 4389   6.757   2.373   5.769 -0.0608  0.4060 -0.6688
   17MOL   N198 4390   6.777   2.387   5.911  0.1776 -0.1366  1.7690
   17MOL   C199 4391   6.812   2.502   5.968 -0.2856  0.2814  0.3068
   17MOL   O200 4392   6.798   2.609   5.915  0.1574 -0.7169 -0.1309
   17MOL   C201 4393   6.865   2.491   6.112  0.1428  0.4365  0.3282
   17MOL   C202 4394   6.634   2.288   5.720  0.0150  0.5338 -0.8953
   17MOL   H203 4395   6.753   2.471   5.723  0.3550 -0.8794 -3.5535
   17MOL   H204 4396   6.769   2.303   5.966 -1.5752 -0.0195  1.7164
   17MOL   H205 4397   6.796   2.547   6.176 -2.5741 -2.5473  0.1882
   17MOL   H206 4398   6.860   2.388   6.149  0.5604  0.4302  0.3587
   17MOL   H207 4399   6.962   2.540   6.116 -0.5009  1.8683 -1.2245
   17MOL   H208 4400   6.631   2.294   5.611 -0.8071 -1.3415 -0.9905
   17MOL   H209 4401   6.651   2.183   5.742 -1.1957  0.9135  2.1334
   17MOL   C210 4402   6.492   2.331   5.770  0.0460 -0.1605 -0.2432
   17MOL   N211 4403   6.484   2.291   5.914 -0.2741 -0.1506 -0.2105
   17MOL   C212 4404   6.421   2.361   6.005 -0.5056 -0.2345 -0.1348
   17MOL   O213 4405   6.329   2.439   5.974 -0.0647  0.0541 -0.0988
   17MOL   C214 4406   6.463   2.349   6.152 -0.0531  0.9432 -0.3993
   17MOL   C215 4407   6.366   2.298   5.681  0.3812  0.4286  0.4106
   17MOL   H216 4408   6.497   2.440   5.770  1.9936 -0.2174  0.8315
   17MOL   H217 4409   6.541   2.220   5.958  0.8302  0.6257 -0.3514
   17MOL   H218 4410   6.520   2.437   6.182  0.7198 -0.2574  1.8092
   17MOL   H219 4411   6.371   2.352   6.211  1.0369  4.6474  1.2786
   17MOL   H220 4412   6.526   2.263   6.175 -0.5111  0.8132  0.4083
   17MOL   H221 4413   6.347   2.191   5.688  3.7142 -0.3821 -1.7224
   17MOL   H222 4414   6.282   2.353   5.725 -0.2002 -0.3267  0.2356
   17MOL   C223 4415   6.373   2.348   5.541 -0.6658  0.1431 -0.6531
   17MOL   N224 4416   6.232   2.366   5.505  0.4173 -0.0408  0.0448
   17MOL   C225 4417   6.189   2.482   5.453 -0.3661  0.2416  0.3099
   17MOL   O226 4418   6.262   2.579   5.443  0.2925 -0.1960 -0.0480
   17MOL   C227 4419   6.043   2.499   5.411 -0.0227 -0.0602 -0.5261
   17MOL   C228 4420   6.437   2.258   5.431 -0.0477 -0.1912 -0.4635
   17MOL   H229 4421   6.430   2.441   5.533  0.9907 -0.8425 -0.4759
   17MOL   H230 4422   6.176   2.283   5.488  0.4881  0.3464 -2.3007
   17MOL   H231 4423   5.994   2.529   5.504 -1.7734  0.2301 -1.5233
   17MOL   H232 4424   6.027   2.582   5.341  2.6107  0.1571 -0.9044
   17MOL   H233 4425   5.990   2.410   5.378 -1.8822  1.1926 -1.0526
   17MOL   H234 4426   6.519   2.197   5.466 -0.4727 -0.9876 -0.8347
   17MOL   H235 4427   6.369   2.174   5.415 -2.9336  1.9290  0.2143
   17MOL   C236 4428   6.463   2.338   5.294 -0.2243  0.1404 -0.0947
   17MOL   N237 4429   6.474   2.240   5.184 -0.6803 -0.0104  0.0148
   17MOL   C238 4430   6.451   2.256   5.051 -0.4469  0.2383  0.7226
   17MOL   O239 4431   6.391   2.351   5.000  0.7878 -0.1106  0.2522
   17MOL   C240 4432   6.484   2.143   4.960 -0.4317 -0.0521  0.5070
   17MOL   C241 4433   6.584   2.439   5.295  0.2899  0.0919 -1.0078
   17MOL   H242 4434   6.373   2.396   5.273 -1.0694 -1.6222 -1.4924
   17MOL   H243 4435   6.542   2.166   5.195 -0.6692 -0.0266 -0.1552
   17MOL   H244 4436   6.397   2.123   4.897 -0.9738  1.7243  0.6480
   17MOL   H245 4437   6.571   2.152   4.895 -0.2165  2.5002  1.0603
   17MOL   H246 4438   6.491   2.052   5.018  0.1507 -1.4201 -1.6618
   17MOL   H247 4439   6.588   2.494   5.389 -1.6734 -0.5053 -0.5642
   17MOL   H248 4440   6.678   2.383   5.290 -0.0258 -0.7311  1.6950
   17MOL   C249 4441   6.580   2.553   5.189  0.0609  0.2214  0.2358
   17MOL   N250 4442   6.707   2.630   5.199 -0.2706  0.0978 -0.1508
   17MOL   C251 4443   6.789   2.643   5.095  0.0940 -0.0223 -0.5748
   17MOL   O252 4444   6.769   2.613   4.982  0.3846 -0.3053  0.6981
   17MOL   C253 4445   6.922   2.717   5.118  1.0397 -0.2241 -0.5391
   17MOL   C254 4446   6.463   2.651   5.202  0.6841  0.4107  0.7184
   17MOL   H255 4447   6.567   2.507   5.091 -0.7881 -0.3615  0.6249
   17MOL   H256 4448   6.712   2.685   5.284 -0.0971  4.3857 -2.8224
   17MOL   H257 4449   6.937   2.788   5.037 -0.8323  0.6542 -0.1377
   17MOL   H258 4450   6.930   2.776   5.209 -0.6593  0.4405 -0.8078
   17MOL   H259 4451   6.995   2.635   5.123 -0.7147 -1.7891  0.1616
   17MOL   H260 4452   6.365   2.604   5.198  1.0883 -0.4089  0.3113
   17MOL   H261 4453   6.479   2.707   5.294  0.6380  3.0521 -0.8100
   17MOL   H262 4454   6.472   2.714   5.113  0.6883  0.2977  0.6384
   18MOL     C1 4455   2.797   5.167   0.861  0.0086  0.0913  0.3245
   18MOL     N2 4456   2.693   5.232   0.788 -0.6319  0.4488  0.5881
   18MOL     C3 4457   2.563   5.201   0.810  0.3794  0.0073 -1.0643
   18MOL     O4 4458   2.516   5.111   0.881  0.2617  0.2856 -0.2694
   18MOL     C5 4459   2.472   5.283   0.722  0.0923  0.1067 -0.4595
   18MOL     C6 4460   2.848   5.034   0.792 -0.0561 -0.3998  0.1331
   18MOL     H7 4461   2.874   5.241   0.885 -0.1670 -0.2748  2.0782
   18MOL     H8 4462   2.723   5.306   0.726 -0.2498  1.0408  1.4578
   18MOL     H9 4463   2.432   5.370   0.774  0.7996  0.9597 -1.3263
   18MOL    H10 4464   2.510   5.310   0.623 -1.0435 -0.1926 -0.9860
   18MOL    H11 4465   2.386   5.221   0.697 -2.1112  2.9864 -0.3181
   18MOL    H12 4466   2.771   4.974   0.743 -0.0159  0.7078 -1.3212
   18MOL    H13 4467   2.912   5.078   0.716 -1.2326  0.7539 -0.2141
   18MOL    H14 4468   2.753   5.158   0.961  1.3763 -1.3426  0.8251
   18MOL    C15 4469   2.927   4.941   0.882  0.1931  0.6732  0.4906
   18MOL    N16 4470   3.037   4.894   0.801  0.2194  0.5596  0.1874
   18MOL    C17 4471   3.158   4.874   0.846 -0.3528  0.4581 -0.3595
   18MOL    O18 4472   3.187   4.873   0.965 -0.6603  0.2117 -0.1675
   18MOL    C19 4473   3.259   4.834   0.750 -0.5508  0.0806  0.6227
   18MOL    C20 4474   2.848   4.839   0.970 -0.2899  0.0439 -0.2893
   18MOL    H21 4475   2.981   5.008   0.948  1.4200 -0.5634  0.7481
   18MOL    H22 4476   3.022   4.863   0.707 -0.7308 -0.9890  0.8484
   18MOL    H23 4477   3.340   4.900   0.777  0.7131 -0.6858 -1.1946
   18MOL    H24 4478   3.292   4.732   0.772  0.2747 -0.2061 -1.7783
   18MOL    H25 4479   3.235   4.837   0.644 -0.6811  0.1177  0.6522
   18MOL    H26 4480   2.758   4.816   0.914 -0.6266 -0.0876  0.3026
   18MOL    H27 4481   2.907   4.748   0.971 -0.8881 -0.3372  1.1340
   18MOL    C28 4482   2.832   4.869   1.122 -0.7755 -0.0955 -0.3865
   18MOL    N29 4483   2.959   4.898   1.187 -0.0497 -0.7804 -0.8353
   18MOL    C30 4484   2.964   4.968   1.306  0.9096  0.2567  0.1046
   18MOL    O31 4485   2.857   4.987   1.364 -0.2628 -0.1774 -0.0091
   18MOL    C32 4486   3.093   5.033   1.350 -0.0599  0.3075 -0.2155
   18MOL    C33 4487   2.759   4.746   1.192  0.4287  0.0363  0.2801
   18MOL    H34 4488   2.772   4.960   1.117 -1.2912 -0.2904  1.7639
   18MOL    H35 4489   3.047   4.884   1.140  0.1509  1.9400 -1.3236
   18MOL    H36 4490   3.102   5.097   1.262 -3.4220  2.6463  1.0467
   18MOL    H37 4491   3.094   5.096   1.439 -0.5867  2.1926 -1.5172
   18MOL    H38 4492   3.174   4.960   1.348  0.5714  1.0252 -1.9144
   18MOL    H39 4493   2.759   4.662   1.123 -1.2972  0.1275  0.1414
   18MOL    H40 4494   2.811   4.715   1.283 -1.4008  1.2484  1.7774
   18MOL    C41 4495   2.610   4.768   1.236  0.6020 -0.3807 -0.8081
   18MOL    N42 4496   2.530   4.810   1.120  0.3008 -0.1052  0.4510
   18MOL    C43 4497   2.493   4.734   1.014  0.7984  0.1667 -0.1114
   18MOL    O44 4498   2.517   4.614   0.999  0.0441 -0.1546 -0.1098
   18MOL    C45 4499   2.401   4.803   0.918  0.4547 -0.3656  0.6095
   18MOL    C46 4500   2.589   4.867   1.352  0.7162  0.3737 -0.1261
   18MOL    H47 4501   2.573   4.674   1.277  0.0213  0.2261  0.0805
   18MOL    H48 4502   2.507   4.905   1.093 -1.6619 -0.7919 -0.3674
   18MOL    H49 4503   2.471   4.852   0.851  0.3907  1.9831  2.2159
   18MOL    H50 4504   2.339   4.740   0.854  0.8881  1.9601 -2.1969
   18MOL    H51 4505   2.335   4.881   0.955 -0.4392 -0.8973  0.1451
   18MOL    H52 4506   2.666   4.845   1.426 -2.3307 -0.4438  2.9404
   18MOL    H53 4507   2.601   4.971   1.320 -1.4469  0.7691  0.2600
   18MOL    C54 4508   2.455   4.836   1.423  0.1701 -0.1534  0.2283
   18MOL    N55 4509   2.331   4.863   1.342  0.0860 -0.1228  0.1782
   18MOL    C56 4510   2.244   4.772   1.301  0.0435  0.4913  0.1082
   18MOL    O57 4511   2.238   4.655   1.342 -0.0164 -0.3210 -0.0634
   18MOL    C58 4512   2.136   4.820   1.209  0.4955  0.4126 -0.1203
   18MOL    C59 4513   2.441   4.898   1.560  0.1890 -0.3500  0.6603
   18MOL    H60 4514   2.463   4.729   1.439 -2.5444 -0.8434 -2.6515
   18MOL    H61 4515   2.322   4.959   1.313  0.9384  0.5234  1.9697
   18MOL    H62 4516   2.090   4.900   1.267  1.7711  0.1169  1.3089
   18MOL    H63 4517   2.163   4.861   1.111 -0.3927  1.0910 -0.0994
   18MOL    H64 4518   2.085   4.724   1.195  0.7075  0.4104 -0.9020
   18MOL    H65 4519   2.534   4.886   1.616  1.1326 -0.5376 -0.8858
   18MOL    H66 4520   2.423   5.003   1.539  2.1791 -0.6735 -3.1786
   18MOL    C67 4521   2.333   4.838   1.641 -0.5269 -1.3727 -0.2730
   18MOL    N68 4522   2.329   4.926   1.761  0.2346 -0.2171  0.2702
   18MOL    C69 4523   2.224   4.966   1.838  0.6604 -0.5262  0.5656
   18MOL    O70 4524   2.111   4.929   1.818 -0.6633  0.0754  0.6126
   18MOL    C71 4525   2.252   5.043   1.967 -0.5146  0.4485  0.2156
   18MOL    C72 4526   2.361   4.694   1.688  0.1828 -0.3020 -0.1623
   18MOL    H73 4527   2.233   4.833   1.597 -0.0496  0.2950 -1.6206
   18MOL    H74 4528   2.417   4.957   1.798  0.9594 -0.2484 -1.4001
   18MOL    H75 4529   2.189   5.131   1.973 -2.2296 -0.6974 -0.3716
   18MOL    H76 4530   2.222   4.981   2.051  2.3489 -2.0829 -0.5193
   18MOL    H77 4531   2.354   5.080   1.976 -0.9123  1.8179 -0.7575
   18MOL    H78 4532   2.410   4.638   1.609  2.5483 -0.7727  1.5601
   18MOL    H79 4533   2.435   4.700   1.768 -0.4857  1.8476  0.3339
   18MOL    C80 4534   2.245   4.612   1.746  0.3739 -0.1164 -0.1084
   18MOL    N81 4535   2.293   4.505   1.831  0.7739  0.0106 -0.1668
   18MOL    C82 4536   2.246   4.470   1.953  0.2425 -0.7227  0.3500
   18MOL    O83 4537   2.144   4.529   2.001 -0.4188  0.3882  0.2855
   18MOL    C84 4538   2.307   4.343   2.020 -0.3424 -0.0430 -0.0714
   18MOL    C85 4539   2.145   4.562   1.634 -0.9832  0.0641  0.2099
   18MOL    H86 4540   2.180   4.672   1.809 -0.6557 -0.3915 -0.8846
   18MOL    H87 4541   2.380   4.465   1.799  0.7281  1.3160 -1.9980
   18MOL    H88 4542   2.415   4.356   2.013 -0.1382 -0.7863  1.4494
   18MOL    H89 4543   2.283   4.335   2.126  1.3210 -0.3995  0.2872
   18MOL    H90 4544   2.277   4.250   1.972  3.3379 -2.0421  1.3093
   18MOL    H91 4545   2.109   4.650   1.581 -0.2893 -1.2544 -2.5357
   18MOL    H92 4546   2.203   4.503   1.562 -1.0353  0.6710 -0.3339
   18MOL    C93 4547   2.031   4.469   1.674  0.4174 -0.2489 -0.3786
   18MOL    N94 4548   1.958   4.423   1.550 -0.0420 -0.0791 -0.0323
   18MOL    C95 4549   1.934   4.294   1.523 -0.4454  0.2113  0.2019
   18MOL    O96 4550   1.984   4.202   1.591 -0.7320 -0.3361 -1.0063
   18MOL    C97 4551   1.850   4.265   1.407  0.6134  0.1255  0.5909
   18MOL    C98 4552   1.934   4.533   1.776  0.5373  0.2748 -0.0382
   18MOL    H99 4553   2.072   4.381   1.722 -1.4125 -1.3937 -0.8534
   18MOL   H100 4554   1.920   4.494   1.489 -1.2649  1.1311  2.0770
   18MOL   H101 4555   1.753   4.312   1.422 -0.5700 -2.7160  2.1352
   18MOL   H102 4556   1.898   4.294   1.313 -1.0336  1.6211  0.1796
   18MOL   H103 4557   1.833   4.157   1.401  0.1631  0.2729 -1.2240
   18MOL   H104 4558   1.900   4.447   1.834  0.9178  0.6976  0.8199
   18MOL   H105 4559   1.976   4.602   1.850  0.6843 -0.0275  0.1615
   18MOL   C106 4560   1.798   4.586   1.720  0.2067 -0.1245 -0.3909
   18MOL   N107 4561   1.807   4.708   1.632  0.1330 -0.3504  0.1579
   18MOL   C108 4562   1.804   4.718   1.493  0.5413 -0.0372 -0.0455
   18MOL   O109 4563   1.791   4.618   1.426 -0.8585  0.5657  0.1402
   18MOL   C110 4564   1.842   4.851   1.433 -0.1477 -0.0556  0.7389
   18MOL   C111 4565   1.677   4.608   1.818  0.2324  0.2972 -0.3075
   18MOL   H112 4566   1.762   4.517   1.644  0.7444  0.0047 -0.7670
   18MOL   H113 4567   1.817   4.794   1.683 -0.0708 -0.7570  0.8986
   18MOL   H114 4568   1.755   4.913   1.411 -1.1967 -1.5600  0.6107
   18MOL   H115 4569   1.896   4.908   1.509  0.2631  0.6992 -0.1154
   18MOL   H116 4570   1.910   4.834   1.350 -0.9268 -1.6190  0.4080
   18MOL   H117 4571   1.604   4.675   1.774  2.5608  1.5640 -2.2882
   18MOL   H118 4572   1.615   4.518   1.819  1.0100 -0.2410 -0.9145
   18MOL   C119 4573   1.712   4.674   1.954 -0.7591  0.0551 -0.1190
   18MOL   N120 4574   1.595   4.682   2.037 -0.3696 -0.4645 -0.0905
   18MOL   C121 4575   1.561   4.589   2.124 -0.2313 -0.5850 -0.0895
   18MOL   O122 4576   1.653   4.521   2.173  0.5636 -0.3074  0.4388
   18MOL   C123 4577   1.415   4.579   2.181 -0.6799  0.0327  0.4330
   18MOL   C124 4578   1.796   4.801   1.938  0.8255  0.3255 -0.0519
   18MOL   H125 4579   1.778   4.598   1.996  0.1678  0.1096 -1.4511
   18MOL   H126 4580   1.518   4.743   2.011  0.0358 -0.5352 -1.4832
   18MOL   H127 4581   1.385   4.653   2.255 -3.4742  0.7323 -1.3218
   18MOL   H128 4582   1.339   4.585   2.103  0.4333 -0.1464 -0.6808
   18MOL   H129 4583   1.402   4.478   2.221 -0.0752 -0.7307 -1.2257
   18MOL   H130 4584   1.866   4.780   1.857 -0.9570 -0.1942 -1.4829
   18MOL   H131 4585   1.730   4.871   1.887  0.2830 -0.7463 -0.8256
   18MOL   C132 4586   1.851   4.880   2.055  0.1882 -0.2494 -0.4534
   18MOL   N133 4587   1.892   5.012   1.995  0.4690 -0.1198  0.2370
   18MOL   C134 4588   1.808   5.117   1.997 -0.7158 -0.9138  0.2690
   18MOL   O135 4589   1.692   5.109   2.047 -0.1483 -0.0624  0.2715
   18MOL   C136 4590   1.853   5.255   1.947 -0.3610  0.6231 -0.1369
   18MOL   C137 4591   1.967   4.795   2.111  0.3632  0.4209  0.6601
   18MOL   H138 4592   1.773   4.895   2.129 -2.2296 -1.5173 -2.6856
   18MOL   H139 4593   1.981   5.017   1.948 -0.4483 -2.3276 -1.8203
   18MOL   H140 4594   1.788   5.304   1.874  0.3028  0.3620 -0.9158
   18MOL   H141 4595   1.855   5.319   2.035  2.0822 -0.4304  0.6044
   18MOL   H142 4596   1.959   5.251   1.922 -0.1746 -2.0653  0.8551
   18MOL   H143 4597   1.929   4.694   2.121  0.5156  0.2758 -0.2254
   18MOL   H144 4598   2.054   4.775   2.048 -0.4544 -2.5660  0.4023
   18MOL   C145 4599   2.023   4.837   2.249 -0.1385 -0.2342  0.0810
   18MOL   N146 4600   2.077   4.970   2.263  0.2739  0.7359 -0.1421
   18MOL   C147 4601   2.002   5.079   2.293 -1.1115  0.2987 -0.2156
   18MOL   O148 4602   1.884   5.073   2.324  0.3479 -0.1900 -0.1356
   18MOL   C149 4603   2.062   5.218   2.298  1.0864 -0.2297  0.3259
   18MOL   C150 4604   2.124   4.731   2.301 -0.0295  0.3318 -0.1799
   18MOL   H151 4605   1.948   4.839   2.327 -0.5110 -0.1871 -0.2804
   18MOL   H152 4606   2.176   4.991   2.253  0.8777 -1.7857  0.1255
   18MOL   H153 4607   2.083   5.249   2.401 -1.3036 -0.2740  0.8737
   18MOL   H154 4608   2.154   5.226   2.241  1.5758 -1.3685  0.9471
   18MOL   H155 4609   1.985   5.292   2.274 -0.4935 -0.5904  3.8636
   18MOL   H156 4610   2.057   4.655   2.342  1.4539  0.0819  1.8676
   18MOL   H157 4611   2.188   4.685   2.225  1.2333  1.4165  0.2000
   18MOL   C158 4612   2.218   4.760   2.417 -0.0398  0.9390  0.0479
   18MOL   N159 4613   2.285   4.639   2.457 -0.1151 -0.5944 -0.2120
   18MOL   C160 4614   2.372   4.564   2.388 -0.0216  0.5982 -0.3003
   18MOL   O161 4615   2.424   4.596   2.281  0.1318 -0.4715 -0.0707
   18MOL   C162 4616   2.418   4.441   2.462  0.3163  0.0568  0.2742
   18MOL   C163 4617   2.143   4.809   2.540  0.2368  0.2677 -0.1010
   18MOL   H164 4618   2.289   4.839   2.392  1.8348 -0.6235  0.3158
   18MOL   H165 4619   2.245   4.609   2.545 -0.6885  1.8318  0.3957
   18MOL   H166 4620   2.473   4.447   2.556 -0.5850 -0.3922  0.8471
   18MOL   H167 4621   2.331   4.377   2.476 -1.3063  1.8259 -1.4061
   18MOL   H168 4622   2.481   4.381   2.397  0.9585  0.9625  0.0600
   18MOL   H169 4623   2.061   4.878   2.520  0.6722  0.1266 -2.5072
   18MOL   H170 4624   2.095   4.726   2.591  0.4574 -0.6736 -1.3884
   18MOL   C171 4625   2.227   4.891   2.641  0.3284  0.4621  0.5794
   18MOL   N172 4626   2.160   4.881   2.773 -0.5170 -0.0493  0.4115
   18MOL   C173 4627   2.185   4.774   2.853  0.2380 -0.4488 -0.5393
   18MOL   O174 4628   2.250   4.679   2.814  0.0664  0.1453  0.6321
   18MOL   C175 4629   2.103   4.765   2.979 -0.2040  0.1508 -0.6842
   18MOL   C176 4630   2.242   5.044   2.606 -0.5205 -0.7273  0.4436
   18MOL   H177 4631   2.326   4.845   2.644 -0.1503 -0.5258  1.5901
   18MOL   H178 4632   2.106   4.957   2.811 -0.9331  0.0704 -0.4232
   18MOL   H179 4633   2.153   4.785   3.074 -0.7982  3.4978 -1.0135
   18MOL   H180 4634   2.024   4.840   2.973 -0.8569 -0.4273  0.3591
   18MOL   H181 4635   2.061   4.665   2.973 -2.1148  0.9615 -1.2937
   18MOL   H182 4636   2.213   5.043   2.500 -2.7301 -0.1142  1.0117
   18MOL   H183 4637   2.168   5.113   2.648  0.9611  0.5215  1.0522
   18MOL   C184 4638   2.379   5.108   2.605  0.4034 -0.0910 -0.0230
   18MOL   N185 4639   2.481   5.047   2.517 -0.1173 -1.2050 -0.3069
   18MOL   C186 4640   2.502   5.086   2.390  0.1232  0.4042 -0.5810
   18MOL   O187 4641   2.432   5.165   2.323 -0.1019  0.2210 -0.4970
   18MOL   C188 4642   2.618   5.027   2.315 -0.3437  0.4833 -0.1306
   18MOL   C189 4643   2.428   5.136   2.748 -0.0281 -0.2983  0.1664
   18MOL   H190 4644   2.354   5.205   2.563  1.9913 -0.3869 -1.7081
   18MOL   H191 4645   2.545   4.980   2.556 -0.8509 -1.3732  0.6293
   18MOL   H192 4646   2.596   5.028   2.208  4.2552  1.8567 -1.1803
   18MOL   H193 4647   2.708   5.087   2.327  1.3018 -2.0062  0.3689
   18MOL   H194 4648   2.632   4.921   2.336  1.0528  0.9437  1.3811
   18MOL   H195 4649   2.354   5.200   2.796  0.8239  0.5635  0.3411
   18MOL   H196 4650   2.431   5.048   2.813 -2.7778  0.4250  1.3381
   18MOL   C197 4651   2.560   5.204   2.771  0.1726 -0.0264 -0.2180
   18MOL   N198 4652   2.581   5.314   2.679 -0.5224 -0.2393 -0.1107
   18MOL   C199 4653   2.507   5.419   2.654 -0.7367  0.3083 -0.1577
   18MOL   O200 4654   2.396   5.429   2.703  0.2414 -0.3663 -0.3758
   18MOL   C201 4655   2.571   5.538   2.567 -0.2506  0.4205  0.1020
   18MOL   C202 4656   2.678   5.108   2.774 -0.3040 -0.0688  0.4673
   18MOL   H203 4657   2.540   5.238   2.872  3.4896  4.7901 -0.9940
   18MOL   H204 4658   2.666   5.312   2.625  0.1786 -0.3674  0.9633
   18MOL   H205 4659   2.557   5.636   2.613  1.9964  1.3794 -1.1984
   18MOL   H206 4660   2.678   5.518   2.559 -0.6411 -1.0775 -1.6350
   18MOL   H207 4661   2.523   5.551   2.470  1.8266  1.2538 -0.8398
   18MOL   H208 4662   2.649   5.016   2.826 -4.3435  0.6526 -0.3301
   18MOL   H209 4663   2.699   5.081   2.670  1.0682 -1.1226  1.0008
   18MOL   C210 4664   2.801   5.150   2.858 -0.1983  0.3566  0.1807
   18MOL   N211 4665   2.900   5.040   2.860  0.2939  0.2174 -0.1994
   18MOL   C212 4666   3.001   5.029   2.779 -0.5379 -0.0850  0.2540
   18MOL   O213 4667   3.027   5.121   2.693 -0.0518 -0.0740 -0.2000
   18MOL   C214 4668   3.084   4.907   2.800 -0.7282 -0.4205  0.1287
   18MOL   C215 4669   2.762   5.198   3.000  1.2800 -0.0418  0.1683
   18MOL   H216 4670   2.843   5.243   2.820  0.6470  0.2503  0.8450
   18MOL   H217 4671   2.887   4.971   2.932  1.4942  0.1592 -0.0404
   18MOL   H218 4672   3.163   4.930   2.871 -1.4503  1.5548  0.3188
   18MOL   H219 4673   3.028   4.822   2.841  0.5955 -0.7261  1.3470
   18MOL   H220 4674   3.110   4.855   2.708  2.0664  1.2439 -0.0558
   18MOL   H221 4675   2.722   5.299   3.002  1.4595  0.0247  0.4310
   18MOL   H222 4676   2.680   5.138   3.040 -0.3660  2.0788  0.0613
   18MOL   C223 4677   2.874   5.192   3.103  0.3749 -0.6395  0.0638
   18MOL   N224 4678   2.815   5.233   3.235 -0.1865  0.7301 -0.4474
   18MOL   C225 4679   2.738   5.155   3.316  0.0094  0.1293  0.5680
   18MOL   O226 4680   2.685   5.048   3.281 -0.7273  0.0099 -0.2968
   18MOL   C227 4681   2.702   5.197   3.458  0.0966 -0.1635 -0.4071
   18MOL   C228 4682   3.007   5.266   3.076  0.1724 -0.3203 -0.4640
   18MOL   H229 4683   2.906   5.089   3.118 -2.4370 -1.8042 -1.5522
   18MOL   H230 4684   2.845   5.324   3.266  1.6911  0.5233 -1.5955
   18MOL   H231 4685   2.640   5.129   3.516  0.9332  0.4152  1.1662
   18MOL   H232 4686   2.796   5.226   3.503 -0.3227 -0.4569  0.6628
   18MOL   H233 4687   2.651   5.293   3.457 -0.8166 -0.6355  0.1605
   18MOL   H234 4688   3.067   5.260   3.167  2.0839 -0.2061 -1.6788
   18MOL   H235 4689   3.068   5.211   3.004  3.2462  2.6885 -0.2989
   18MOL   C236 4690   3.018   5.406   3.007 -0.7604  0.2451 -0.9629
   18MOL   N237 4691   3.158   5.453   3.005 -0.0732 -0.3405 -0.0404
   18MOL   C238 4692   3.258   5.406   2.926 -0.1297  0.1921  0.6990
   18MOL   O239 4693   3.243   5.343   2.822 -0.0954 -0.5547  0.2400
   18MOL   C240 4694   3.412   5.430   2.958  0.0563 -0.0230 -0.0191
   18MOL   C241 4695   2.927   5.510   3.065 -0.0023 -0.7422  0.0008
   18MOL   H242 4696   2.994   5.381   2.903 -3.9187  0.2269 -0.2792
   18MOL   H243 4697   3.199   5.499   3.085  0.6446 -3.3520  1.3908
   18MOL   H244 4698   3.453   5.332   2.982 -0.2295  0.4106  2.3749
   18MOL   H245 4699   3.469   5.478   2.879  0.1878  2.4168  1.5008
   18MOL   H246 4700   3.414   5.490   3.049  0.7556 -0.6955  0.4113
   18MOL   H247 4701   2.829   5.467   3.083 -1.2371  1.5456 -1.0942
   18MOL   H248 4702   2.962   5.543   3.163 -0.4212  0.2283 -0.1663
   18MOL   C249 4703   2.895   5.634   2.983 -0.3662 -0.2730 -0.0926
   18MOL   N250 4704   2.800   5.708   3.060  0.3500  0.0539 -0.2028
   18MOL   C251 4705   2.821   5.830   3.111  0.8904  0.3612 -0.5916
   18MOL   O252 4706   2.920   5.900   3.103  0.2796  0.0650  0.0414
   18MOL   C253 4707   2.712   5.889   3.200  0.0540 -0.1049  0.8008
   18MOL   C254 4708   2.825   5.588   2.853 -0.2745  0.4627  0.3906
   18MOL   H255 4709   2.986   5.690   2.963  0.4574 -1.6106 -0.1597
   18MOL   H256 4710   2.712   5.659   3.068 -0.7033  2.1523  1.4362
   18MOL   H257 4711   2.620   5.895   3.142  0.8519  2.1237 -0.3003
   18MOL   H258 4712   2.700   5.830   3.290 -0.7185  1.4232  1.7033
   18MOL   H259 4713   2.748   5.986   3.234  1.7019 -0.2405 -0.4611
   18MOL   H260 4714   2.775   5.672   2.805 -0.9847  0.1186  0.5210
   18MOL   H261 4715   2.888   5.540   2.779  0.5861  1.1649  0.6594
   18MOL   H262 4716   2.749   5.514   2.877 -0.2405  0.0925 -0.6130
   19MOL     C1 4717   4.982   1.506   0.338  0.2341  0.1484  0.4018
   19MOL     N2 4718   5.102   1.555   0.403  0.0778 -0.0898 -0.2698
   19MOL     C3 4719   5.180   1.652   0.356 -0.6073 -0.4613  0.1729
   19MOL     O4 4720   5.192   1.687   0.240  0.5128  0.7534  0.1113
   19MOL     C5 4721   5.261   1.723   0.464  0.8607  0.0235  0.2794
   19MOL     C6 4722   5.006   1.368   0.261 -0.5052 -0.1978  0.3186
   19MOL     H7 4723   4.910   1.488   0.418  3.6734 -0.0964  3.5456
   19MOL     H8 4724   5.109   1.532   0.501 -0.3350 -1.1324 -0.4796
   19MOL     H9 4725   5.323   1.642   0.503 -0.6119 -1.6598 -0.8245
   19MOL    H10 4726   5.316   1.801   0.412 -0.2104 -0.8403 -2.2102
   19MOL    H11 4727   5.213   1.759   0.555 -0.2221  0.8209 -0.5963
   19MOL    H12 4728   5.093   1.377   0.196 -0.4707 -0.7062  0.2949
   19MOL    H13 4729   5.039   1.294   0.334 -0.0238 -0.2695  0.0303
   19MOL    H14 4730   4.932   1.587   0.284  0.0667 -0.6944 -0.7342
   19MOL    C15 4731   4.890   1.305   0.185 -0.3610 -0.6460 -0.0813
   19MOL    N16 4732   4.770   1.280   0.269 -0.7022  0.1710 -0.6946
   19MOL    C17 4733   4.646   1.285   0.225 -0.0461 -0.2727 -0.1163
   19MOL    O18 4734   4.615   1.317   0.111  0.5091 -0.4281  0.0254
   19MOL    C19 4735   4.537   1.261   0.327 -0.3041  0.3364  0.5074
   19MOL    C20 4736   4.921   1.177   0.105 -0.3966  0.3279 -0.0353
   19MOL    H21 4737   4.856   1.381   0.114 -0.0558 -1.0235 -0.6384
   19MOL    H22 4738   4.782   1.263   0.367 -0.2413  1.4057 -0.5195
   19MOL    H23 4739   4.583   1.186   0.391 -1.8662 -0.6280  0.5413
   19MOL    H24 4740   4.512   1.357   0.373  0.6562  1.6880 -1.6990
   19MOL    H25 4741   4.449   1.218   0.278  2.0002 -1.8166 -1.8647
   19MOL    H26 4742   5.025   1.150   0.121 -0.1992  0.5272 -0.9907
   19MOL    H27 4743   4.867   1.098   0.158  0.6089  0.6964  1.5930
   19MOL    C28 4744   4.899   1.179   7.795  0.0360 -0.3195 -0.4566
   19MOL    N29 4745   4.868   1.044   7.740  0.1598  0.4131  0.0236
   19MOL    C30 4746   4.950   0.941   7.715 -0.6740 -0.3800  0.4033
   19MOL    O31 4747   5.065   0.938   7.758  0.1999 -0.3952 -0.3990
   19MOL    C32 4748   4.888   0.829   7.628 -0.1634 -0.1023  0.1271
   19MOL    C33 4749   5.016   1.246   7.716 -0.2281 -0.4684  0.7445
   19MOL    H34 4750   4.807   1.232   7.770 -0.4221 -1.0676 -0.3793
   19MOL    H35 4751   4.773   1.033   7.710 -0.5041  3.9010  0.6401
   19MOL    H36 4752   4.804   0.795   7.689 -1.5712 -1.2033 -2.3436
   19MOL    H37 4753   4.864   0.868   7.529 -0.1136  0.1255  0.2053
   19MOL    H38 4754   4.964   0.752   7.618 -0.0809 -0.0043  0.0030
   19MOL    H39 4755   5.106   1.188   7.733 -0.1680 -0.1851  1.4214
   19MOL    H40 4756   4.978   1.243   7.614  1.3410  2.1738  0.0290
   19MOL    C41 4757   5.024   1.401   7.718  0.1523 -0.3527  0.0387
   19MOL    N42 4758   4.898   1.460   7.677 -0.2105 -0.1057 -0.0893
   19MOL    C43 4759   4.860   1.586   7.686  0.3589 -0.4734  0.7097
   19MOL    O44 4760   4.936   1.676   7.719 -0.9861  0.2997 -0.1748
   19MOL    C45 4761   4.723   1.613   7.637 -0.7793  0.2081  0.7904
   19MOL    C46 4762   5.138   1.456   7.632  0.5947 -0.4065  0.2874
   19MOL    H47 4763   5.036   1.433   7.821 -0.4717 -0.7620  0.2393
   19MOL    H48 4764   4.830   1.387   7.663 -1.7160  1.0978  0.7092
   19MOL    H49 4765   4.654   1.658   7.708 -2.5306  2.0309 -1.9507
   19MOL    H50 4766   4.718   1.676   7.548 -0.1782  0.2094  0.7525
   19MOL    H51 4767   4.677   1.520   7.605 -0.2205  0.4831 -0.9029
   19MOL    H52 4768   5.139   1.398   7.540 -0.3680  0.7718 -0.4806
   19MOL    H53 4769   5.116   1.560   7.605  1.0469  0.2590  2.3171
   19MOL    C54 4770   5.287   1.448   7.683 -0.1581  0.7396 -0.1583
   19MOL    N55 4771   5.330   1.310   7.706 -0.3262 -0.2063  0.6689
   19MOL    C56 4772   5.386   1.217   7.623 -0.3866  0.3645 -0.4338
   19MOL    O57 4773   5.424   1.244   7.512  0.1856  0.0841 -1.2081
   19MOL    C58 4774   5.403   1.077   7.676 -0.1051  0.4128 -0.4939
   19MOL    C59 4775   5.330   1.543   7.802 -0.7100 -0.0811  0.1349
   19MOL    H60 4776   5.335   1.484   7.592 -2.3933  0.0146 -1.6682
   19MOL    H61 4777   5.321   1.286   7.804 -0.0833  0.6533  0.9034
   19MOL    H62 4778   5.491   1.031   7.632  0.5557 -1.5228  2.7220
   19MOL    H63 4779   5.417   1.085   7.783 -1.3857  0.4245 -0.3227
   19MOL    H64 4780   5.319   1.017   7.642 -1.4719  0.9303  1.9050
   19MOL    H65 4781   5.260   1.530   0.045 -2.0022  1.5993 -0.6791
   19MOL    H66 4782   5.415   1.495   0.012 -0.2031  0.8711  0.1888
   19MOL    C67 4783   5.381   1.687   7.790  0.4434  0.2146  0.7686
   19MOL    N68 4784   5.269   1.779   7.774 -0.3915  0.0465 -0.1718
   19MOL    C69 4785   5.276   1.900   7.824  0.1697 -0.3705  0.1022
   19MOL    O70 4786   5.376   1.970   7.834  0.1822 -0.8449 -0.2388
   19MOL    C71 4787   5.132   1.952   0.027  0.0502 -0.4184 -0.9697
   19MOL    C72 4788   5.474   1.711   7.672 -0.0921 -0.0117 -0.4704
   19MOL    H73 4789   5.433   1.699   0.045  0.0287  1.2531  0.8617
   19MOL    H74 4790   5.179   1.733   7.778  1.1392 -3.0413  0.1234
   19MOL    H75 4791   5.092   1.867   0.082  1.4954 -1.2064 -1.1166
   19MOL    H76 4792   5.139   2.043   0.087 -0.0007 -0.7003 -0.5345
   19MOL    H77 4793   5.078   1.986   7.778  0.7505  2.2644 -0.4292
   19MOL    H78 4794   5.426   1.688   7.577  0.4111 -0.1318 -0.6997
   19MOL    H79 4795   5.503   1.816   7.665  1.0844 -0.4187 -1.9803
   19MOL    C80 4796   5.611   1.629   7.670  0.5312 -0.7737 -0.0427
   19MOL    N81 4797   5.690   1.658   7.793  0.1347  0.8069 -0.4696
   19MOL    C82 4798   5.731   1.562   0.035 -0.3854 -0.7349 -0.0102
   19MOL    O83 4799   5.739   1.447   7.839  0.1964 -0.2572  0.3551
   19MOL    C84 4800   5.778   1.595   0.179  0.6951  0.0771  0.0175
   19MOL    C85 4801   5.693   1.648   7.541  0.0800  0.1327 -0.5792
   19MOL    H86 4802   5.579   1.525   7.668  0.8099 -0.8953  1.5835
   19MOL    H87 4803   5.676   1.748   7.835 -0.2153 -0.5234  2.3638
   19MOL    H88 4804   5.723   1.681   0.217  2.8228  0.4276  2.4940
   19MOL    H89 4805   5.757   1.516   0.251  0.6925  0.4507  0.4355
   19MOL    H90 4806   5.883   1.624   0.181  1.0319 -1.1596  1.0542
   19MOL    H91 4807   5.688   1.748   7.497 -1.4317 -0.2919 -1.4082
   19MOL    H92 4808   5.795   1.647   7.580 -1.1282 -0.5475  2.7336
   19MOL    C93 4809   5.682   1.542   7.432  0.0378  0.1428 -0.0602
   19MOL    N94 4810   5.544   1.515   7.390  0.6284 -0.6065  0.3612
   19MOL    C95 4811   5.468   1.600   7.318 -0.1388  0.1655 -0.2444
   19MOL    O96 4812   5.502   1.712   7.272 -0.5888 -0.1934 -0.1634
   19MOL    C97 4813   5.331   1.548   7.303  1.0180  0.6191  0.1970
   19MOL    C98 4814   5.735   1.399   7.466  0.8353  0.1650  0.3701
   19MOL    H99 4815   5.740   1.583   7.348  0.7155 -4.0299 -1.7717
   19MOL   H100 4816   5.510   1.421   7.406  0.6862 -0.7227 -0.1767
   19MOL   H101 4817   5.286   1.591   7.213  0.7533  0.7274  0.3803
   19MOL   H102 4818   5.323   1.440   7.291 -0.2838  0.6926  0.2328
   19MOL   H103 4819   5.255   1.563   7.380 -0.5564  0.7205 -1.3169
   19MOL   H104 4820   5.687   1.344   7.547  2.4652  1.4759  2.2952
   19MOL   H105 4821   5.717   1.338   7.377  2.6222 -0.4256  0.3894
   19MOL   C106 4822   5.882   1.400   7.509 -0.6632  0.3148  0.4484
   19MOL   N107 4823   5.964   1.464   7.400  0.1204  0.2242  0.0275
   19MOL   C108 4824   6.054   1.564   7.428 -0.1458  0.0399 -0.2534
   19MOL   O109 4825   6.082   1.598   7.541  0.8063  0.1155 -0.1030
   19MOL   C110 4826   6.114   1.646   7.315 -0.1596  0.4665 -0.7056
   19MOL   C111 4827   5.939   1.269   7.563  0.3787  0.0186  0.0960
   19MOL   H112 4828   5.888   1.461   7.599  1.8012  0.5789  0.1427
   19MOL   H113 4829   5.941   1.446   7.303 -1.0528  1.8374 -0.0199
   19MOL   H114 4830   6.047   1.638   7.229 -0.5232 -1.4283 -0.2637
   19MOL   H115 4831   6.131   1.751   7.338 -2.2013  1.2330 -2.5004
   19MOL   H116 4832   6.201   1.600   7.269 -0.1443 -0.2725  0.0562
   19MOL   H117 4833   5.870   1.219   7.631  0.6211  1.9722  1.8027
   19MOL   H118 4834   5.956   1.203   7.477 -0.0326  0.0245  0.0083
   19MOL   C119 4835   6.070   1.275   7.638 -0.0477 -0.4396 -0.0621
   19MOL   N120 4836   6.135   1.142   7.644 -0.0765 -0.2210  0.5847
   19MOL   C121 4837   6.219   1.091   7.555  1.3103 -0.6204 -0.1304
   19MOL   O122 4838   6.244   1.137   7.440  0.2853 -0.6698  0.3008
   19MOL   C123 4839   6.284   0.963   7.588 -0.8599  0.0943 -0.1237
   19MOL   C124 4840   6.064   1.341   7.779  0.2542 -0.0014  0.4054
   19MOL   H125 4841   6.122   1.342   7.570 -0.7932  0.5515  0.3413
   19MOL   H126 4842   6.110   1.083   7.722  1.2157 -1.8994 -0.2701
   19MOL   H127 4843   6.280   0.937   7.694 -0.6924  0.9921  0.1135
   19MOL   H128 4844   6.253   0.884   7.521 -0.3507  1.6065 -2.1873
   19MOL   H129 4845   6.390   0.976   7.564  0.0333  0.8576  3.8968
   19MOL   H130 4846   6.165   1.383   7.785  0.6269 -0.4675 -2.2591
   19MOL   H131 4847   5.999   1.428   7.773  0.7804  0.2983 -0.9659
   19MOL   C132 4848   6.035   1.254   0.062  0.0566  0.8886 -0.0692
   19MOL   N133 4849   5.890   1.212   0.067 -0.4011  0.0421 -0.5849
   19MOL   C134 4850   5.852   1.082   0.030 -0.1771 -0.5397 -0.3244
   19MOL   O135 4851   5.933   0.990   0.009 -0.3040  0.0153  0.6446
   19MOL   C136 4852   5.703   1.063   0.013 -0.5290 -0.2521  0.3701
   19MOL   C137 4853   6.084   1.319   0.194 -0.4037 -0.0710  0.8614
   19MOL   H138 4854   6.095   1.164   0.053  0.4852  1.1496  0.1607
   19MOL   H139 4855   5.824   1.287   0.051 -0.5315 -0.1300 -0.8678
   19MOL   H140 4856   5.681   0.963   7.816 -2.3599  0.7181 -1.2844
   19MOL   H141 4857   5.649   1.078   0.107 -0.7106 -0.0948  0.2422
   19MOL   H142 4858   5.649   1.124   7.780  1.4134  0.5609 -0.4093
   19MOL   H143 4859   6.024   1.406   0.221 -0.5573 -0.1179  0.6678
   19MOL   H144 4860   6.070   1.249   0.277 -1.8464 -0.1472  0.5727
   19MOL   C145 4861   6.245   1.349   0.197 -0.0321 -1.0053 -0.4403
   19MOL   N146 4862   6.317   1.226   0.159  0.1708 -0.0572  0.1149
   19MOL   C147 4863   6.386   1.199   0.047 -0.2499  0.1639 -0.5544
   19MOL   O148 4864   6.402   1.278   7.797 -0.5410  0.1340  0.0491
   19MOL   C149 4865   6.459   1.064   0.028 -0.1587 -0.1793 -0.3279
   19MOL   C150 4866   6.300   1.408   0.329  0.0980  0.3717 -0.5520
   19MOL   H151 4867   6.262   1.429   0.126  1.3712 -0.4887  0.4523
   19MOL   H152 4868   6.316   1.151   0.226 -0.6695 -0.8160 -0.7439
   19MOL   H153 4869   6.400   0.981   0.067 -1.6026  1.4432  1.0405
   19MOL   H154 4870   6.483   1.036   7.765  1.3958  1.3049 -0.3904
   19MOL   H155 4871   6.552   1.064   0.085 -1.1370 -1.7859  1.3285
   19MOL   H156 4872   6.272   1.344   0.413  0.9604 -1.2277 -1.4696
   19MOL   H157 4873   6.408   1.416   0.328  0.0917  0.5877 -0.0561
   19MOL   C158 4874   6.237   1.544   0.362  1.0065 -0.0988  0.9984
   19MOL   N159 4875   6.258   1.641   0.258  0.1432 -0.8375  0.7003
   19MOL   C160 4876   6.171   1.740   0.231  0.9962  0.3554 -0.9660
   19MOL   O161 4877   6.099   1.791   0.317  0.5037 -0.2412 -0.7880
   19MOL   C162 4878   6.169   1.804   0.091 -0.5358 -0.0155 -0.2875
   19MOL   C163 4879   6.293   1.598   0.499 -0.0726  0.0325 -0.0468
   19MOL   H164 4880   6.129   1.534   0.364  0.9313 -0.7670 -2.3771
   19MOL   H165 4881   6.333   1.623   0.194  0.6252  1.6895  0.5138
   19MOL   H166 4882   6.260   1.776   0.037  0.2051  0.5396  0.6570
   19MOL   H167 4883   6.081   1.775   0.034  0.5427  0.0616 -2.0424
   19MOL   H168 4884   6.167   1.913   0.099 -0.4898 -0.1552  1.9616
   19MOL   H169 4885   6.388   1.649   0.479 -0.1867 -0.4096 -1.7789
   19MOL   H170 4886   6.228   1.675   0.539 -0.1681  0.5207 -1.1158
   19MOL   C171 4887   6.293   1.504   0.623  0.1947  0.3820  0.7426
   19MOL   N172 4888   6.161   1.459   0.653 -0.0357  0.4403  0.9207
   19MOL   C173 4889   6.134   1.334   0.693  0.2876  0.0610  0.1662
   19MOL   O174 4890   6.215   1.239   0.682 -0.6935 -0.2467  0.1815
   19MOL   C175 4891   5.990   1.300   0.743  0.1803 -0.2423 -0.4977
   19MOL   C176 4892   6.334   1.580   0.749  0.2416  0.5191 -0.9936
   19MOL   H177 4893   6.364   1.424   0.602  2.3122  2.0291  1.5150
   19MOL   H178 4894   6.100   1.536   0.673 -0.6655  0.2511 -0.2226
   19MOL   H179 4895   5.985   1.326   0.848 -0.5243 -0.9899 -0.3454
   19MOL   H180 4896   5.917   1.363   0.691  1.5085 -0.2797 -2.4884
   19MOL   H181 4897   5.976   1.193   0.728  0.4701 -0.6008  1.7483
   19MOL   H182 4898   6.402   1.655   0.711  0.5236  0.9936  0.4237
   19MOL   H183 4899   6.246   1.636   0.780  0.4192 -0.3897  1.2383
   19MOL   C184 4900   6.408   1.511   0.860 -0.3548 -0.4162  0.3399
   19MOL   N185 4901   6.378   1.585   0.983  0.3823 -0.1755  0.2920
   19MOL   C186 4902   6.366   1.531   1.104 -0.3510  0.3961 -0.6485
   19MOL   O187 4903   6.357   1.413   1.129 -0.1750 -0.1395 -0.9471
   19MOL   C188 4904   6.359   1.616   1.225 -0.2044  0.7385 -0.5485
   19MOL   C189 4905   6.560   1.509   0.835  0.4136  0.4068  0.3411
   19MOL   H190 4906   6.366   1.410   0.859 -1.4912  0.0314 -2.6168
   19MOL   H191 4907   6.373   1.686   0.989  2.9778  0.0582 -0.8042
   19MOL   H192 4908   6.259   1.658   1.235 -0.6703 -0.4242 -0.2144
   19MOL   H193 4909   6.384   1.563   1.317 -0.6461  4.0381  1.5520
   19MOL   H194 4910   6.428   1.700   1.213 -0.2899  1.3336  2.6850
   19MOL   H195 4911   6.576   1.500   0.728  1.1373 -1.8154  0.6120
   19MOL   H196 4912   6.595   1.610   0.853  0.4480  0.2790  1.0072
   19MOL   C197 4913   6.651   1.407   0.909  0.2080 -0.0325  0.1471
   19MOL   N198 4914   6.576   1.311   0.990  0.1228  0.0299  0.3563
   19MOL   C199 4915   6.586   1.175   0.991  0.3991 -0.1915 -0.4564
   19MOL   O200 4916   6.672   1.126   0.925 -0.2462  0.2195 -0.3908
   19MOL   C201 4917   6.491   1.106   1.082  0.0664  0.2604  0.4812
   19MOL   C202 4918   6.762   1.491   0.987 -0.0574 -0.0996  0.0452
   19MOL   H203 4919   6.702   1.351   0.831  1.1423  0.3473  0.4761
   19MOL   H204 4920   6.503   1.348   1.050  0.2871 -0.2186  0.7099
   19MOL   H205 4921   6.484   1.149   1.181  0.1419  0.3650  0.4407
   19MOL   H206 4922   6.396   1.119   1.030  1.0953  1.5224 -1.1355
   19MOL   H207 4923   6.523   1.002   1.089 -0.6906  0.0384  0.6494
   19MOL   H208 4924   6.802   1.554   0.908 -3.0997  0.1753 -1.3291
   19MOL   H209 4925   6.723   1.568   1.054  1.0990  2.2267 -1.8685
   19MOL   C210 4926   6.867   1.399   1.050  0.3027 -0.2808 -0.0235
   19MOL   N211 4927   6.953   1.478   1.143  0.5595 -0.1298 -0.2855
   19MOL   C212 4928   7.028   1.589   1.113  0.1365  1.1660 -0.1702
   19MOL   O213 4929   7.030   1.630   0.998 -0.9687  0.4541  0.2979
   19MOL   C214 4930   7.099   1.660   1.230  0.1450 -0.4751 -0.4590
   19MOL   C215 4931   6.942   1.317   0.946  0.4585 -0.0532  0.0759
   19MOL   H216 4932   6.822   1.331   1.121  0.4338 -0.7393 -0.3777
   19MOL   H217 4933   6.970   1.431   1.230  0.0323 -1.5508 -0.9362
   19MOL   H218 4934   7.051   1.628   1.322  0.9969 -2.5474 -0.6969
   19MOL   H219 4935   7.207   1.648   1.231  0.3265  1.0566 -0.5380
   19MOL   H220 4936   7.076   1.765   1.213  2.1847  0.1920  0.7885
   19MOL   H221 4937   6.878   1.257   0.882 -1.3860  1.2710  0.6525
   19MOL   H222 4938   6.987   1.396   0.885  0.7811 -0.5185 -0.2983
   19MOL   C223 4939   7.057   1.225   1.009  0.2737  0.4269  0.1658
   19MOL   N224 4940   7.131   1.156   0.898 -0.6445  0.3989 -0.0567
   19MOL   C225 4941   7.244   1.190   0.847 -0.1121  0.6217 -0.2721
   19MOL   O226 4942   7.288   1.119   0.760 -0.6274 -0.1707  0.5039
   19MOL   C227 4943   7.308   1.330   0.876 -0.4325  0.2572 -0.4389
   19MOL   C228 4944   6.992   1.113   1.107 -0.6687  0.4260 -0.5550
   19MOL   H229 4945   7.126   1.288   1.065  1.5633  0.5329 -1.4996
   19MOL   H230 4946   7.094   1.065   0.876 -0.0285  1.1580 -4.7054
   19MOL   H231 4947   7.401   1.339   0.820 -0.4690 -1.0041 -0.7359
   19MOL   H232 4948   7.246   1.408   0.833 -1.1214  1.5200  2.6889
   19MOL   H233 4949   7.321   1.349   0.983 -3.2710  1.6119 -0.2732
   19MOL   H234 4950   6.931   1.156   1.186  2.8966  3.0465  0.8816
   19MOL   H235 4951   6.926   1.047   1.051  2.2104 -1.4098 -1.9041
   19MOL   C236 4952   7.095   1.024   1.183 -0.0732  0.0228  0.3242
   19MOL   N237 4953   7.032   0.906   1.240 -0.2690 -0.4993  0.1411
   19MOL   C238 4954   7.087   0.787   1.255  0.2194 -0.0211 -0.4715
   19MOL   O239 4955   7.199   0.757   1.218  0.0448 -0.1148  1.0158
   19MOL   C240 4956   7.003   0.681   1.330  0.0027  0.4409 -0.6292
   19MOL   C241 4957   7.183   1.099   1.285  0.0994 -0.2717  0.0403
   19MOL   H242 4958   7.157   0.985   1.103  0.6213 -1.2149  1.4414
   19MOL   H243 4959   6.939   0.922   1.274  0.1193  0.7015  0.6693
   19MOL   H244 4960   7.054   0.586   1.349  0.1933  0.2501 -1.9985
   19MOL   H245 4961   6.963   0.720   1.423  1.8828  1.0023 -0.0281
   19MOL   H246 4962   6.913   0.668   1.270 -1.1500  1.9125  0.7501
   19MOL   H247 4963   7.272   1.038   1.300  0.3296  0.4306  1.6289
   19MOL   H248 4964   7.217   1.193   1.241  3.1017 -2.8085 -3.3262
   19MOL   C249 4965   7.110   1.118   1.422 -0.9314  0.6138  0.3258
   19MOL   N250 4966   7.164   1.229   1.491  0.1148  0.1475 -0.2421
   19MOL   C251 4967   7.100   1.346   1.494  0.8822 -0.1596  0.1146
   19MOL   O252 4968   6.988   1.371   1.446  0.5640  0.6366  0.1993
   19MOL   C253 4969   7.166   1.463   1.566 -0.0894  0.5025  0.8226
   19MOL   C254 4970   7.112   0.997   1.519 -0.2652  0.3512  0.6307
   19MOL   H255 4971   7.004   1.140   1.407 -0.3909  2.5338 -0.8327
   19MOL   H256 4972   7.248   1.213   1.544 -1.9009 -1.2891  2.6649
   19MOL   H257 4973   7.231   1.430   1.648  0.0257  0.1877  0.6030
   19MOL   H258 4974   7.233   1.520   1.503 -0.3103 -1.2815 -1.0742
   19MOL   H259 4975   7.091   1.538   1.591 -3.1643 -2.6485  1.5946
   19MOL   H260 4976   7.189   0.927   1.489 -3.3088 -3.0341  0.5116
   19MOL   H261 4977   7.147   1.030   1.617  0.4893  0.4595  0.3308
   19MOL   H262 4978   7.015   0.949   1.528 -0.1970 -0.1897 -1.4871
   20MOL     C1 4979   6.645   0.534   7.570 -0.1299 -0.1890  0.2682
   20MOL     N2 4980   6.701   0.667   7.535 -0.1063 -0.4787  0.0852
   20MOL     C3 4981   6.662   0.754   7.437  0.6760  0.2887 -0.3465
   20MOL     O4 4982   6.589   0.715   7.348 -0.0753  0.2359  0.2394
   20MOL     C5 4983   6.719   0.894   7.443 -0.3630  0.3095  0.6345
   20MOL     C6 4984   6.753   0.432   7.597  0.3426  0.0381 -0.1218
   20MOL     H7 4985   6.574   0.539   7.653 -1.5721  0.1003 -0.9579
   20MOL     H8 4986   6.773   0.698   7.600 -0.1411 -0.3355  0.0553
   20MOL     H9 4987   6.827   0.902   7.430 -0.5462 -0.8400 -1.8002
   20MOL    H10 4988   6.662   0.951   7.369  3.5954  1.2688 -1.8386
   20MOL    H11 4989   6.696   0.925   7.545 -2.3289  0.1097  0.2583
   20MOL    H12 4990   6.786   0.442   7.700 -0.6952 -1.2502  0.3598
   20MOL    H13 4991   6.700   0.336   7.605  2.0181 -0.9373 -0.4418
   20MOL    H14 4992   6.595   0.509   7.476  2.2451 -2.7305 -0.3616
   20MOL    C15 4993   6.877   0.396   7.503  0.2308  0.1360  0.2324
   20MOL    N16 4994   6.999   0.471   7.533  0.3297 -0.3968  0.2155
   20MOL    C17 4995   7.082   0.451   7.637  0.1717 -0.4464 -1.1090
   20MOL    O18 4996   7.060   0.368   7.725  0.2663 -0.3496 -0.5577
   20MOL    C19 4997   7.204   0.542   7.648  0.6364  0.3191 -0.5807
   20MOL    C20 4998   6.839   0.390   7.349 -0.1357 -0.4423 -0.3739
   20MOL    H21 4999   6.918   0.297   7.526 -0.4548 -0.6931 -1.9377
   20MOL    H22 5000   7.018   0.544   7.466  1.7141 -0.6889  0.2701
   20MOL    H23 5001   7.274   0.492   7.716  0.6151  1.8210  0.5869
   20MOL    H24 5002   7.250   0.564   7.552 -1.2578 -0.2551 -1.6377
   20MOL    H25 5003   7.174   0.643   7.674  0.2716  0.1340 -0.2696
   20MOL    H26 5004   6.796   0.482   7.311 -0.9743 -0.4025  0.6304
   20MOL    H27 5005   6.923   0.374   7.281  1.4790 -1.2450  1.7603
   20MOL    C28 5006   6.740   0.269   7.326  0.5543  0.0622 -0.1580
   20MOL    N29 5007   6.818   0.147   7.318 -0.4574  0.9256 -0.7350
   20MOL    C30 5008   6.788   0.034   7.377 -0.4009 -0.3587  0.6333
   20MOL    O31 5009   6.704   0.034   7.466 -0.6183 -0.4800  0.2443
   20MOL    C32 5010   6.844   7.746   7.319 -0.2470 -0.6006  0.3769
   20MOL    C33 5011   6.676   0.296   7.192 -0.6324  0.4938 -0.3659
   20MOL    H34 5012   6.663   0.271   7.403  1.5464 -0.1776  0.8552
   20MOL    H35 5013   6.892   0.144   7.249  1.5262  1.1397  1.3232
   20MOL    H36 5014   6.804   7.722   7.220 -0.8147  0.7870  0.2678
   20MOL    H37 5015   6.953   7.740   7.316 -0.1566  1.4214 -1.3349
   20MOL    H38 5016   6.821   7.669   7.393  0.1510 -0.1083  1.0115
   20MOL    H39 5017   6.630   0.394   7.190 -0.6384  0.4828 -1.2448
   20MOL    H40 5018   6.751   0.300   7.113 -0.8103 -0.8109 -0.6239
   20MOL    C41 5019   6.559   0.200   7.147 -0.0200  0.3346 -0.2525
   20MOL    N42 5020   6.544   0.212   7.004  0.7473  0.3102  0.2435
   20MOL    C43 5021   6.630   0.162   6.911  0.7703 -0.6111 -0.3677
   20MOL    O44 5022   6.720   0.094   6.949 -0.7052 -0.0500  0.0400
   20MOL    C45 5023   6.596   0.188   6.772  0.4024  0.3401 -0.3295
   20MOL    C46 5024   6.425   0.225   7.232  0.6245 -0.1498 -0.1929
   20MOL    H47 5025   6.584   0.097   7.173  0.6148  0.6785  0.5433
   20MOL    H48 5026   6.455   0.250   6.977 -0.0670 -0.2053  2.1430
   20MOL    H49 5027   6.507   0.142   6.729  0.6375 -0.1240 -0.3268
   20MOL    H50 5028   6.572   0.292   6.746  1.8863  0.2357 -2.3019
   20MOL    H51 5029   6.680   0.172   6.704 -0.1824 -1.4356 -0.6458
   20MOL    H52 5030   6.458   0.213   7.335  1.1361 -1.2172 -0.4733
   20MOL    H53 5031   6.393   0.329   7.224 -2.0410 -0.8710  0.7853
   20MOL    C54 5032   6.310   0.118   7.200  0.0517 -0.3691 -0.5636
   20MOL    N55 5033   6.188   0.176   7.249  0.0336  0.0343 -0.1798
   20MOL    C56 5034   6.158   0.230   7.370 -0.0563 -0.0071  0.7675
   20MOL    O57 5035   6.229   0.224   7.471  0.4115  0.6190  0.3835
   20MOL    C58 5036   6.019   0.287   7.384 -0.0486  0.1132  0.8786
   20MOL    C59 5037   6.339   7.821   7.272  0.6047 -0.0450  0.7162
   20MOL    H60 5038   6.306   0.119   7.091  2.0424  1.6769 -0.6483
   20MOL    H61 5039   6.118   0.177   7.176 -0.1264  2.1843 -0.0194
   20MOL    H62 5040   5.975   0.322   7.291  3.7669 -2.7159 -2.1288
   20MOL    H63 5041   5.952   0.206   7.413 -0.1063  0.0909  0.6783
   20MOL    H64 5042   6.009   0.364   7.461  1.7329 -0.3972  1.6472
   20MOL    H65 5043   6.437   7.788   7.239 -0.0961  0.0306 -1.5521
   20MOL    H66 5044   6.353   7.840   7.379 -1.1742 -1.4909  1.2377
   20MOL    C67 5045   6.225   7.712   7.255 -0.1321 -0.4410 -0.0505
   20MOL    N68 5046   6.102   7.739   7.334 -0.0219 -0.2719  0.3588
   20MOL    C69 5047   5.975   7.716   7.295  0.7032  0.0124  0.4005
   20MOL    O70 5048   5.935   7.691   7.180 -0.0588 -0.5839  0.3360
   20MOL    C71 5049   5.870   7.735   7.402 -0.0756  0.6831 -0.3597
   20MOL    C72 5050   6.275   7.567   7.308  0.3682  0.3988  0.3549
   20MOL    H73 5051   6.190   7.706   7.152 -1.2439 -1.4371  0.3639
   20MOL    H74 5052   6.117   7.769   7.429 -0.6594  0.3351  0.2647
   20MOL    H75 5053   5.912   7.787   7.487  0.8795  0.9378 -0.9859
   20MOL    H76 5054   5.772   7.772   7.370  0.3795  2.9781  0.8001
   20MOL    H77 5055   5.857   7.636   7.447 -0.3119  1.6436  1.7305
   20MOL    H78 5056   6.271   7.555   7.417  0.2343  1.3159  0.4502
   20MOL    H79 5057   6.222   7.478   7.274  0.8587 -0.4838  1.8234
   20MOL    C80 5058   6.420   7.526   7.250 -0.3396  0.0783 -1.4627
   20MOL    N81 5059   6.427   7.549   7.105  0.3956  0.3876  0.2095
   20MOL    C82 5060   6.336   7.527   7.009 -0.4949  0.5263 -0.0565
   20MOL    O83 5061   6.226   7.477   7.027 -0.0159  0.1807 -0.2762
   20MOL    C84 5062   6.367   7.573   6.868 -0.2413 -0.4459  0.7386
   20MOL    C85 5063   6.465   7.376   7.274  0.3542 -0.3527 -0.5478
   20MOL    H86 5064   6.484   7.599   7.300 -0.8946 -0.2092 -0.3258
   20MOL    H87 5065   6.517   7.580   7.073  0.5033 -0.6259 -0.5047
   20MOL    H88 5066   6.448   7.510   6.830 -0.2005 -1.0160  1.7493
   20MOL    H89 5067   6.284   7.572   6.798  0.6538  0.8955 -0.3705
   20MOL    H90 5068   6.392   7.679   6.873  1.1340 -0.5960 -2.1806
   20MOL    H91 5069   6.458   7.359   7.381  0.6888 -1.0319 -0.6348
   20MOL    H92 5070   6.383   7.309   7.247  1.5938 -1.1879 -2.3366
   20MOL    C93 5071   6.594   7.325   7.205 -0.0870 -0.0770  0.7255
   20MOL    N94 5072   6.616   7.184   7.235  0.4886 -0.2093  0.1259
   20MOL    C95 5073   6.632   7.089   7.146  0.1416  0.0174  0.2151
   20MOL    O96 5074   6.607   7.095   7.026  0.2131  0.3304  0.5500
   20MOL    C97 5075   6.687   6.961   7.206 -0.3703 -0.6408 -0.3453
   20MOL    C98 5076   6.715   7.416   7.252 -0.5221 -0.6362  0.0743
   20MOL    H99 5077   6.577   7.338   7.098 -2.5014  1.2515  1.2349
   20MOL   H100 5078   6.630   7.161   7.332  3.5249  2.2113  0.3243
   20MOL   H101 5079   6.795   6.971   7.212 -0.3764 -0.3547 -0.7003
   20MOL   H102 5080   6.656   6.959   7.310  0.3719 -0.5582 -0.1170
   20MOL   H103 5081   6.665   6.869   7.152 -1.2430 -0.4762 -0.2788
   20MOL   H104 5082   6.682   7.519   7.256 -3.2786 -1.4456 -0.4356
   20MOL   H105 5083   6.723   7.404   7.360 -0.0292 -0.8642  0.0132
   20MOL   C106 5084   6.851   7.418   7.178 -0.4249  0.6772  0.3953
   20MOL   N107 5085   6.824   7.407   7.041 -0.2605  0.2733 -0.3022
   20MOL   C108 5086   6.747   7.487   6.961 -0.5193 -0.1709  0.0088
   20MOL   O109 5087   6.690   7.593   6.996 -0.1321  0.4098  0.0527
   20MOL   C110 5088   6.734   7.441   6.817  0.2466 -0.3855  0.6281
   20MOL   C111 5089   6.957   7.308   7.221 -0.3381  0.0427 -1.9080
   20MOL   H112 5090   6.895   7.516   7.195 -1.3818  1.5387 -1.9994
   20MOL   H113 5091   6.856   7.320   6.999 -1.0419 -0.1645 -0.0005
   20MOL   H114 5092   6.818   7.375   6.793 -1.5248 -1.4354 -2.9949
   20MOL   H115 5093   6.645   7.379   6.807  1.0483 -1.7435  1.6181
   20MOL   H116 5094   6.743   7.512   6.735  0.6402 -2.1502 -0.8772
   20MOL   H117 5095   6.919   7.207   7.210 -0.2420 -0.3275  0.8407
   20MOL   H118 5096   7.028   7.305   7.138  1.7795  1.9204 -0.2332
   20MOL   C119 5097   7.027   7.340   7.362  0.8302 -0.0972 -0.5733
   20MOL   N120 5098   7.120   7.452   7.343 -0.3980 -0.1012 -0.0674
   20MOL   C121 5099   7.190   7.534   7.429  0.1040  0.6468 -0.1097
   20MOL   O122 5100   7.189   7.522   7.555  0.2588  0.1683  0.3127
   20MOL   C123 5101   7.294   7.636   7.373  0.1683  0.2276  0.0649
   20MOL   C124 5102   7.102   7.222   7.424 -0.7713 -0.1942  0.1985
   20MOL   H125 5103   6.948   7.375   7.430 -2.0379 -3.1555 -2.1739
   20MOL   H126 5104   7.150   7.467   7.248  2.5111  0.8921  0.9349
   20MOL   H127 5105   7.246   7.727   7.337  0.0728  0.6030  1.1035
   20MOL   H128 5106   7.364   7.668   7.451 -0.5187  2.0304 -0.0481
   20MOL   H129 5107   7.359   7.598   7.295 -0.4233 -0.4222 -0.1084
   20MOL   H130 5108   7.162   7.179   7.344  1.7097  1.8376  0.8964
   20MOL   H131 5109   7.183   7.253   7.491 -0.8268 -0.0939  0.2180
   20MOL   C132 5110   7.017   7.110   7.499 -0.2244 -0.0738 -0.2845
   20MOL   N133 5111   6.931   7.171   7.605 -0.1592 -0.1575  0.3484
   20MOL   C134 5112   6.800   7.178   7.582  0.7447 -0.7600 -0.4978
   20MOL   O135 5113   6.741   7.161   7.478 -0.5797  0.1299 -0.0083
   20MOL   C136 5114   6.726   7.222   7.704 -0.2186  0.2385 -0.5559
   20MOL   C137 5115   7.112   6.997   7.558 -0.4906  0.1889 -0.5726
   20MOL   H138 5116   6.966   7.055   7.420 -1.0381 -0.4237  0.4874
   20MOL   H139 5117   6.960   7.186   7.700 -1.1382  3.2781  0.1593
   20MOL   H140 5118   6.785   7.278   7.777  1.3259 -2.2691  0.2059
   20MOL   H141 5119   6.634   7.275   7.682 -1.8826 -3.1135 -2.1559
   20MOL   H142 5120   6.695   7.126   7.745  1.3527 -1.2489 -2.7308
   20MOL   H143 5121   7.144   7.032   7.656 -2.7950 -0.4133  0.4303
   20MOL   H144 5122   7.050   6.911   7.584  0.1986  0.0692  0.7487
   20MOL   C145 5123   7.230   6.940   7.478  0.4618 -0.2568 -0.3422
   20MOL   N146 5124   7.180   6.870   7.353 -0.7595  0.0104  0.0132
   20MOL   C147 5125   7.208   6.903   7.235  0.6343  0.1716 -0.5953
   20MOL   O148 5126   7.308   6.975   7.212 -0.5159 -0.1455 -0.5522
   20MOL   C149 5127   7.136   6.841   7.114  0.1038  0.4170  0.8089
   20MOL   C150 5128   7.314   6.847   7.571  0.9753  0.3205 -0.1599
   20MOL   H151 5129   7.293   7.024   7.450  1.0143 -0.4512  0.2986
   20MOL   H152 5130   7.116   6.792   7.362 -0.0231 -0.8943 -2.1879
   20MOL   H153 5131   7.028   6.852   7.116  0.0219 -0.1579 -0.4236
   20MOL   H154 5132   7.179   6.889   7.026 -0.7712  0.2063  0.2653
   20MOL   H155 5133   7.164   6.736   7.103 -0.0288  0.3230  1.3428
   20MOL   H156 5134   7.241   6.801   7.639  0.3091  1.2700 -0.2186
   20MOL   H157 5135   7.332   6.757   7.512 -1.2785 -0.5763  0.4569
   20MOL   C158 5136   7.446   6.898   7.633  0.3223 -0.4827  0.1549
   20MOL   N159 5137   7.505   6.792   7.710  0.1409  0.2084 -0.1855
   20MOL   C160 5138   7.638   6.759   7.707 -0.3024  0.1495 -0.7622
   20MOL   O161 5139   7.721   6.795   7.624  0.1900  0.5697  0.1670
   20MOL   C162 5140   7.685   6.668   7.819  0.2253 -0.1311 -0.3639
   20MOL   C163 5141   7.418   7.027   7.719 -0.0788  0.1276 -0.5503
   20MOL   H164 5142   7.509   6.935   7.553  2.4994 -1.1376  1.5354
   20MOL   H165 5143   7.449   6.752   7.784 -0.8979 -1.6402 -1.8934
   20MOL   H166 5144   7.742   6.744   0.034  2.3287  0.1900 -2.8920
   20MOL   H167 5145   7.603   6.617   0.029  0.2656 -1.4526 -1.6469
   20MOL   H168 5146   7.757   6.593   7.787 -1.9221 -2.2654 -0.3065
   20MOL   H169 5147   7.375   7.102   7.654 -2.1874  2.4137  3.2657
   20MOL   H170 5148   7.338   7.018   7.793  2.5861  0.7420  2.5106
   20MOL   C171 5149   7.540   7.091   7.790 -0.1936 -0.1573  0.0539
   20MOL   N172 5150   7.494   7.197   0.033 -0.2047 -0.1734  0.1867
   20MOL   C173 5151   7.490   7.198   0.167 -0.4233 -0.1170  0.2903
   20MOL   O174 5152   7.548   7.119   0.236 -0.2391 -0.4460 -0.4003
   20MOL   C175 5153   7.394   7.299   0.237 -0.7387  0.1929  0.0087
   20MOL   C176 5154   7.648   7.133   7.691  0.4186  0.2550  0.5632
   20MOL   H177 5155   7.575   7.013   0.018 -0.7157  0.0874  0.6133
   20MOL   H178 5156   7.462   7.274   7.815  0.6159  0.4110  0.4910
   20MOL   H179 5157   7.433   7.397   0.211 -0.8873  0.0188 -0.8777
   20MOL   H180 5158   7.292   7.287   0.199  0.3625 -1.7439 -2.4259
   20MOL   H181 5159   7.397   7.287   0.345 -2.2857  1.3940  0.2136
   20MOL   H182 5160   7.685   7.067   7.613  0.2143  1.2754 -0.4133
   20MOL   H183 5161   7.603   7.211   7.629  2.2051 -0.8131 -2.1984
   20MOL   C184 5162   7.774   7.189   7.766  0.5255 -0.5418 -0.3374
   20MOL   N185 5163   0.013   7.255   7.665  0.2633  0.1804 -0.1179
   20MOL   C186 5164   0.000   7.385   7.629  0.4324 -0.0836  0.1977
   20MOL   O187 5165   7.743   7.455   7.662  0.1339  0.0357  0.1947
   20MOL   C188 5166   0.102   7.436   7.532  0.5441 -0.1843 -0.2217
   20MOL   C189 5167   0.020   7.083   7.835 -0.9679 -0.2868  0.2983
   20MOL   H190 5168   7.746   7.270   7.832  1.7379  1.2733 -2.0004
   20MOL   H191 5169   0.096   7.205   7.640  1.2100  1.2973  0.7293
   20MOL   H192 5170   0.082   7.531   7.483  1.8260  0.5097  0.5554
   20MOL   H193 5171   0.201   7.417   7.574  0.5710  2.4069  0.9822
   20MOL   H194 5172   0.096   7.362   7.453  1.2648 -1.6358  1.0414
   20MOL   H195 5173   7.802   7.020   0.063 -0.4309 -0.7028  0.3668
   20MOL   H196 5174   0.055   7.028   7.748 -2.7819  0.6415 -1.0566
   20MOL   C197 5175   0.145   7.137   0.076  0.2887 -0.0356  0.5241
   20MOL   N198 5176   0.244   7.024   0.080  0.1032  0.2149 -0.4889
   20MOL   C199 5177   0.375   7.021   0.081 -0.2685  0.0744  0.9589
   20MOL   O200 5178   0.447   7.122   0.078  0.1252  0.3259 -0.3201
   20MOL   C201 5179   0.443   6.890   0.106  0.1927  0.3279 -0.0184
   20MOL   C202 5180   0.093   7.164   0.219 -0.7156 -0.6874 -0.2256
   20MOL   H203 5181   0.201   7.224   0.041 -1.2094  1.4300  1.7021
   20MOL   H204 5182   0.203   6.933   0.088  0.5514  0.1226  0.8332
   20MOL   H205 5183   0.399   6.829   0.186 -0.4057  2.9543  1.7032
   20MOL   H206 5184   0.447   6.835   0.012  3.2620  0.0604  0.2174
   20MOL   H207 5185   0.549   6.897   0.128  0.3005 -0.6585 -0.1830
   20MOL   H208 5186   0.016   7.241   0.208 -0.0378  0.1859  1.1040
   20MOL   H209 5187   0.043   7.077   0.260 -2.9257 -0.3154 -2.0115
   20MOL   C210 5188   0.189   7.215   0.324 -0.0601  0.2375 -0.0713
   20MOL   N211 5189   0.133   7.187   0.451  0.4145  0.0973 -0.3529
   20MOL   C212 5190   0.140   7.069   0.516 -0.2254  0.8210 -0.3815
   20MOL   O213 5191   0.210   6.973   0.480  0.0169 -0.0513 -0.7676
   20MOL   C214 5192   0.061   7.051   0.647  0.6069  0.8182 -0.0046
   20MOL   C215 5193   0.226   7.371   0.312 -0.4270  0.7317  0.1822
   20MOL   H216 5194   0.276   7.151   0.309 -0.8911 -0.7665 -0.6775
   20MOL   H217 5195   0.072   7.256   0.493 -1.5911 -0.9805 -1.4225
   20MOL   H218 5196   7.814   7.115   0.636 -1.7571 -2.5189 -1.5638
   20MOL   H219 5197   0.035   6.946   0.665 -1.4400  1.1652 -0.8003
   20MOL   H220 5198   0.121   7.100   0.724  1.2603 -3.4931  2.3927
   20MOL   H221 5199   0.209   7.383   0.205 -1.5568 -0.0589  0.2577
   20MOL   H222 5200   0.145   7.425   0.360  1.6172  1.5828  2.7838
   20MOL   C223 5201   0.366   7.415   0.355  0.2983 -0.3298  0.1379
   20MOL   N224 5202   0.362   7.540   0.426  0.0911  0.3160 -0.5258
   20MOL   C225 5203   0.330   7.549   0.559 -0.0048 -0.6540  0.7059
   20MOL   O226 5204   0.301   7.457   0.634 -0.6489  0.3299  0.0881
   20MOL   C227 5205   0.337   7.681   0.616  0.4466  0.4128  0.2468
   20MOL   C228 5206   0.469   7.427   0.241  0.6648  0.9064 -0.0192
   20MOL   H229 5207   0.400   7.334   0.420  4.0354 -0.1794 -1.5198
   20MOL   H230 5208   0.401   7.622   0.380 -2.2289  1.2089 -0.9476
   20MOL   H231 5209   0.253   7.721   0.673  0.5462  0.9310  0.0326
   20MOL   H232 5210   0.420   7.689   0.686  0.9987 -0.8380 -0.2532
   20MOL   H233 5211   0.346   7.759   0.541 -1.9233  1.5876  1.1350
   20MOL   H234 5212   0.438   7.348   0.172 -0.9566  1.3563  0.1704
   20MOL   H235 5213   0.461   7.521   0.186  3.3057  1.4145  0.4415
   20MOL   C236 5214   0.623   7.419   0.269 -0.1194 -0.2207  0.7261
   20MOL   N237 5215   0.683   7.463   0.138  0.2085 -0.7261  0.2080
   20MOL   C238 5216   0.762   7.571   0.114  0.0309  0.4612 -0.6132
   20MOL   O239 5217   0.799   7.654   0.191  0.1154 -0.1108 -0.0204
   20MOL   C240 5218   0.811   7.574   7.810 -0.0999  0.6271  0.4215
   20MOL   C241 5219   0.689   7.280   0.301  0.8761 -0.7076  0.1319
   20MOL   H242 5220   0.654   7.493   0.342  0.2442 -0.1986  0.5500
   20MOL   H243 5221   0.661   7.403   0.060 -0.5380 -3.5180  2.4733
   20MOL   H244 5222   0.743   7.533   7.736  1.3781 -1.3607  0.1332
   20MOL   H245 5223   0.827   7.682   7.805 -1.2154  0.7121 -2.0756
   20MOL   H246 5224   0.917   7.556   7.790 -0.1429  1.2095 -0.3540
   20MOL   H247 5225   0.649   7.215   0.223 -0.1143  0.1288 -0.0718
   20MOL   H248 5226   0.797   7.293   0.292  0.8533 -1.3407 -1.1431
   20MOL   C249 5227   0.653   7.211   0.434  0.2004 -0.1281 -0.3059
   20MOL   N250 5228   0.685   7.294   0.553 -0.7543  0.6492 -0.4368
   20MOL   C251 5229   0.810   7.302   0.615 -0.1222 -0.0510  0.0631
   20MOL   O252 5230   0.905   7.239   0.580 -0.2170  0.3036  0.1733
   20MOL   C253 5231   0.818   7.386   0.747 -0.1570 -0.3084  0.2409
   20MOL   C254 5232   0.702   7.075   0.445 -0.3981 -0.1532  0.6491
   20MOL   H255 5233   0.545   7.211   0.446  0.0404 -1.4252 -1.4518
   20MOL   H256 5234   0.616   7.361   0.581 -0.1128  0.9285  0.4995
   20MOL   H257 5235   0.846   7.319   0.828 -2.7395 -2.2185 -0.3640
   20MOL   H258 5236   0.891   7.466   0.735 -0.9173  0.4425  0.5905
   20MOL   H259 5237   0.718   7.428   0.762 -1.2622 -2.6533 -0.2551
   20MOL   H260 5238   0.729   7.053   0.548  0.3115  0.5601  0.6246
   20MOL   H261 5239   0.631   7.000   0.409 -1.7194  1.8159 -0.9827
   20MOL   H262 5240   0.801   7.065   0.401 -0.7852  0.0822 -0.2878
   21MOL     C1 5241   2.829   4.592   0.648 -0.1154 -0.1096 -0.8533
   21MOL     N2 5242   2.905   4.522   0.542 -0.1059  0.3866  0.1696
   21MOL     C3 5243   3.029   4.477   0.567 -0.6669  0.7670 -0.0692
   21MOL     O4 5244   3.079   4.474   0.677 -0.9429 -0.7542 -0.4053
   21MOL     C5 5245   3.106   4.421   0.451 -0.1987  0.6250  0.3886
   21MOL     C6 5246   2.763   4.497   0.753 -0.4881  0.3062  0.3517
   21MOL     H7 5247   2.899   4.659   0.698 -0.9998  0.6155 -0.5776
   21MOL     H8 5248   2.867   4.527   0.449 -0.7042  1.5673  0.4638
   21MOL     H9 5249   3.186   4.493   0.434 -1.1407  1.9242  1.2926
   21MOL    H10 5250   3.145   4.322   0.472  0.8649  0.8199 -0.6143
   21MOL    H11 5251   3.058   4.431   0.353 -3.4117  0.0914  1.8546
   21MOL    H12 5252   2.847   4.441   0.795  1.3540  0.3903 -2.9928
   21MOL    H13 5253   2.735   4.556   0.840 -1.3159  1.2467 -0.5407
   21MOL    H14 5254   2.750   4.648   0.598  0.0496  0.2227 -0.7424
   21MOL    C15 5255   2.663   4.397   0.691  0.1723 -1.1567 -0.3069
   21MOL    N16 5256   2.527   4.433   0.733 -0.8484  0.3792 -0.0033
   21MOL    C17 5257   2.426   4.466   0.650 -0.0557  0.2245 -0.0468
   21MOL    O18 5258   2.437   4.466   0.526  0.1978 -0.0994 -0.1290
   21MOL    C19 5259   2.299   4.508   0.713  1.2431 -0.4022 -0.3270
   21MOL    C20 5260   2.681   4.248   0.723  0.3043 -0.1308  0.1144
   21MOL    H21 5261   2.670   4.411   0.583 -0.5149  1.5726 -0.0213
   21MOL    H22 5262   2.523   4.446   0.833 -2.9370 -1.2228  0.1452
   21MOL    H23 5263   2.260   4.597   0.662 -0.0285 -0.4681  0.5117
   21MOL    H24 5264   2.227   4.430   0.689 -0.9265  1.4676 -0.1184
   21MOL    H25 5265   2.306   4.508   0.821  0.3519  0.3131 -0.2590
   21MOL    H26 5266   2.705   4.239   0.829  1.0588  1.6145  0.1059
   21MOL    H27 5267   2.588   4.194   0.706 -0.3308  0.8542  0.4097
   21MOL    C28 5268   2.812   4.181   0.667  0.8977  0.4522  0.2016
   21MOL    N29 5269   2.813   4.183   0.518  0.3154  0.3955  0.0517
   21MOL    C30 5270   2.904   4.126   0.440  0.1704  0.0892 -0.1929
   21MOL    O31 5271   3.006   4.073   0.487 -0.2568  0.3670 -0.5277
   21MOL    C32 5272   2.873   4.130   0.292  0.6654  0.6762  0.5664
   21MOL    C33 5273   2.828   4.037   0.719  0.1487  0.7523  0.3156
   21MOL    H34 5274   2.901   4.230   0.704  0.5313  0.1087  1.5735
   21MOL    H35 5275   2.748   4.243   0.469  1.8526  1.3796 -0.8102
   21MOL    H36 5276   2.882   4.231   0.253 -0.9142 -0.0080 -1.7190
   21MOL    H37 5277   2.951   4.069   0.246  2.2867  1.5773  2.1047
   21MOL    H38 5278   2.770   4.107   0.263  0.2031 -0.2930  2.8737
   21MOL    H39 5279   2.731   4.009   0.760  0.6022  0.6641  1.3389
   21MOL    H40 5280   2.838   3.957   0.645  2.7794 -0.4902  1.9438
   21MOL    C41 5281   2.940   4.008   0.818 -0.1777 -0.3120 -0.4216
   21MOL    N42 5282   3.068   4.054   0.762 -0.0920  0.1793  0.0293
   21MOL    C43 5283   3.165   4.106   0.830 -0.2782  0.2187 -0.1888
   21MOL    O44 5284   3.167   4.113   0.956  0.3262  0.3015  0.4812
   21MOL    C45 5285   3.282   4.161   0.758  0.6084 -0.2298 -0.5110
   21MOL    C46 5286   2.951   3.858   0.859 -0.0385  0.4437 -0.3081
   21MOL    H47 5287   2.921   4.071   0.905  0.8025 -0.2681 -0.2312
   21MOL    H48 5288   3.088   4.046   0.664  2.6628 -1.1156  0.6195
   21MOL    H49 5289   3.286   4.267   0.782  0.0757 -0.3190 -0.0344
   21MOL    H50 5290   3.373   4.117   0.800 -1.1670 -1.9597  1.6785
   21MOL    H51 5291   3.277   4.168   0.649  0.0859  1.0913 -0.4042
   21MOL    H52 5292   2.849   3.820   0.867 -1.0102  2.3263 -2.8743
   21MOL    H53 5293   2.977   3.793   0.776 -1.6376 -1.2981  0.5068
   21MOL    C54 5294   3.034   3.813   0.986 -0.1110 -0.7438 -0.1494
   21MOL    N55 5295   3.040   3.921   1.086  0.0654  0.4677  0.8724
   21MOL    C56 5296   2.967   3.928   1.197 -0.3310  0.1129  0.0243
   21MOL    O57 5297   2.886   3.844   1.235 -0.1208 -0.3640  0.7677
   21MOL    C58 5298   3.000   4.051   1.279 -0.0808 -0.2996 -0.5084
   21MOL    C59 5299   3.183   3.770   0.969  0.8168 -0.0058  0.1328
   21MOL    H60 5300   2.984   3.724   1.024 -0.9938  0.1256  0.7603
   21MOL    H61 5301   3.087   4.001   1.046  0.6791 -0.0662  0.5257
   21MOL    H62 5302   2.984   4.023   1.383  0.0029 -0.3421 -0.5065
   21MOL    H63 5303   3.101   4.090   1.268 -0.7390  1.4533 -0.4343
   21MOL    H64 5304   2.935   4.138   1.269 -2.7109 -2.2669 -0.9535
   21MOL    H65 5305   3.256   3.849   0.954  0.9273  0.6716  3.8030
   21MOL    H66 5306   3.200   3.739   1.072 -1.0990  0.6483  0.6536
   21MOL    C67 5307   3.210   3.653   0.880  1.1671 -0.2743 -0.8726
   21MOL    N68 5308   3.114   3.543   0.908 -0.4604  0.3738 -0.3361
   21MOL    C69 5309   3.071   3.452   0.824  0.6009  0.2062 -0.3172
   21MOL    O70 5310   3.092   3.465   0.705  0.9880 -0.1407  0.1548
   21MOL    C71 5311   3.008   3.326   0.874  0.1497  0.1142 -0.0061
   21MOL    C72 5312   3.346   3.579   0.900  0.3325  0.0035  0.2928
   21MOL    H73 5313   3.202   3.685   0.776 -1.9542  1.1944 -0.2190
   21MOL    H74 5314   3.077   3.543   1.002 -0.1550  4.3394 -0.1512
   21MOL    H75 5315   3.070   3.259   0.934 -1.0712 -1.3746 -0.3821
   21MOL    H76 5316   2.932   3.354   0.947  1.1625  0.4081  0.9485
   21MOL    H77 5317   2.964   3.264   0.795 -2.5172  0.3157  1.2569
   21MOL    H78 5318   3.337   3.555   1.006  1.5930  1.5721  0.7803
   21MOL    H79 5319   3.334   3.488   0.842 -0.8355  1.1583 -1.3306
   21MOL    C80 5320   3.477   3.650   0.861 -0.0322  0.1922  1.4457
   21MOL    N81 5321   3.573   3.540   0.856  0.8307  0.8374  0.6033
   21MOL    C82 5322   3.616   3.478   0.747 -0.9092 -0.1819 -0.0841
   21MOL    O83 5323   3.696   3.386   0.754  0.5005 -0.5114 -0.4747
   21MOL    C84 5324   3.569   3.515   0.604 -0.1403  0.0587 -0.2193
   21MOL    C85 5325   3.525   3.762   0.950 -0.4779  0.1199  0.2519
   21MOL    H86 5326   3.458   3.693   0.763  0.2647  0.3818  1.4716
   21MOL    H87 5327   3.614   3.505   0.941 -3.2779 -2.4713  1.4193
   21MOL    H88 5328   3.586   3.621   0.582  1.2465 -0.2097 -0.4370
   21MOL    H89 5329   3.618   3.452   0.531 -2.7951 -0.8418 -1.2984
   21MOL    H90 5330   3.464   3.486   0.596 -0.4896  0.5245  2.1673
   21MOL    H91 5331   3.469   3.852   0.924 -1.0662 -0.3623 -0.1872
   21MOL    H92 5332   3.492   3.749   1.054  0.0734 -0.2782  0.3826
   21MOL    C93 5333   3.668   3.813   0.929 -0.1544 -0.1069  0.0439
   21MOL    N94 5334   3.779   3.729   0.976  0.2281 -0.3914 -0.9397
   21MOL    C95 5335   3.795   3.684   1.101 -0.3294  0.9558 -0.8237
   21MOL    O96 5336   3.723   3.724   1.189  0.1332 -0.0770  0.1598
   21MOL    C97 5337   3.902   3.578   1.117  0.0932 -0.0674 -0.2198
   21MOL    C98 5338   3.689   3.961   0.961 -0.4049 -0.2571  0.1072
   21MOL    H99 5339   3.681   3.810   0.821 -4.2667 -0.5231 -0.5316
   21MOL   H100 5340   3.833   3.689   0.901 -0.4808  1.0766 -2.2649
   21MOL   H101 5341   3.994   3.624   1.081  1.2464 -2.1793 -0.0384
   21MOL   H102 5342   3.911   3.545   1.220 -0.3366  1.1889  0.2349
   21MOL   H103 5343   3.874   3.501   1.045  1.6780  0.6338 -1.6040
   21MOL   H104 5344   3.596   4.018   0.955  0.2137  0.9109  1.3060
   21MOL   H105 5345   3.721   3.982   1.063 -0.3992 -0.9358  0.2481
   21MOL   C106 5346   3.794   4.024   0.863 -0.1936 -0.0262  0.1629
   21MOL   N107 5347   3.761   4.003   0.723  0.1310  0.2704  0.2756
   21MOL   C108 5348   3.672   4.073   0.656  0.2443  0.0085  0.3191
   21MOL   O109 5349   3.618   4.178   0.688  0.3330  0.2685 -0.3041
   21MOL   C110 5350   3.629   4.020   0.517 -0.0165  0.0065 -0.0258
   21MOL   C111 5351   3.946   3.978   0.888 -0.0554  0.1360  1.1613
   21MOL   H112 5352   3.792   4.132   0.878  3.2109 -0.0437  1.1916
   21MOL   H113 5353   3.814   3.935   0.670 -0.7852 -1.2944  1.3366
   21MOL   H114 5354   3.593   3.917   0.523 -0.3159  0.0478 -0.9717
   21MOL   H115 5355   3.551   4.087   0.479 -0.3177 -0.4020 -0.1345
   21MOL   H116 5356   3.711   4.023   0.446 -0.6939 -1.1799 -0.8743
   21MOL   H117 5357   3.958   3.870   0.896  0.6755  0.3037  2.4435
   21MOL   H118 5358   4.017   4.022   0.818  0.1078  0.5513  1.5804
   21MOL   C119 5359   3.999   4.016   1.029  0.4769 -1.2457 -1.3792
   21MOL   N120 5360   3.968   4.161   1.050 -0.1798  0.3062 -0.3017
   21MOL   C121 5361   3.890   4.214   1.145 -0.0050 -0.4475 -0.0197
   21MOL   O122 5362   3.837   4.139   1.223 -0.6046  0.0072 -0.7683
   21MOL   C123 5363   3.896   4.365   1.175  0.5193 -0.1664  0.2328
   21MOL   C124 5364   4.152   3.999   1.056 -0.0337  0.2869  0.0765
   21MOL   H125 5365   3.946   3.958   1.105  0.9918  1.5566  1.2300
   21MOL   H126 5366   4.023   4.227   0.997  0.9291 -0.7072 -0.4318
   21MOL   H127 5367   3.987   4.368   1.236  0.2428 -0.4046  0.6613
   21MOL   H128 5368   3.898   4.421   1.082 -0.3305 -0.4856  0.0233
   21MOL   H129 5369   3.823   4.392   1.250  1.5269  0.5817  0.9600
   21MOL   H130 5370   4.175   3.894   1.042 -0.0389 -0.0071  2.0424
   21MOL   H131 5371   4.210   4.052   0.981 -0.7699  0.5359 -0.3241
   21MOL   C132 5372   4.200   4.052   1.198 -0.4420  0.4268  0.7661
   21MOL   N133 5373   4.348   4.047   1.206  0.8417  0.6265 -0.2564
   21MOL   C134 5374   4.426   4.150   1.215 -1.1724  0.4201 -0.2741
   21MOL   O135 5375   4.383   4.271   1.215 -0.3848 -0.3928 -0.2801
   21MOL   C136 5376   4.577   4.111   1.225 -0.6636 -0.0336 -0.3348
   21MOL   C137 5377   4.139   3.961   1.312 -0.3295  0.2018 -0.3315
   21MOL   H138 5378   4.160   4.152   1.210  0.2602  0.6740  1.0908
   21MOL   H139 5379   4.389   3.955   1.203 -0.3282  0.0826  0.3138
   21MOL   H140 5380   4.626   4.156   1.139  1.3939  0.6079  1.1261
   21MOL   H141 5381   4.617   4.158   1.316 -1.7631 -0.8570  0.5920
   21MOL   H142 5382   4.586   4.003   1.218  0.2209  0.0721 -0.9074
   21MOL   H143 5383   4.030   3.952   1.304 -0.2932  0.0423 -0.6625
   21MOL   H144 5384   4.175   3.860   1.293 -1.1137 -0.0466 -0.5445
   21MOL   C145 5385   4.174   4.012   1.448 -0.1937 -0.0958 -0.2334
   21MOL   N146 5386   4.183   3.889   1.529 -1.0100 -0.5762 -0.4995
   21MOL   C147 5387   4.280   3.852   1.617  0.0423 -0.2340  0.3822
   21MOL   O148 5388   4.364   3.930   1.663 -0.3167 -0.6517  0.2775
   21MOL   C149 5389   4.289   3.702   1.655  0.2495 -0.1774 -0.0314
   21MOL   C150 5390   4.073   4.120   1.493 -0.1948  0.8215 -1.0821
   21MOL   H151 5391   4.272   4.059   1.447  0.1041 -0.7187 -1.9160
   21MOL   H152 5392   4.113   3.819   1.510 -0.5140 -1.2412  0.0755
   21MOL   H153 5393   4.395   3.675   1.663  0.1560 -0.0158  1.9818
   21MOL   H154 5394   4.246   3.671   1.750  1.5084 -0.7755  0.3657
   21MOL   H155 5395   4.246   3.637   1.579  1.6152  0.6956 -1.5933
   21MOL   H156 5396   4.018   4.155   1.406  1.9271  2.5202 -1.8042
   21MOL   H157 5397   3.988   4.076   1.544  1.8313 -0.8722  0.9543
   21MOL   C158 5398   4.124   4.239   1.587  0.6362  0.9468  0.3552
   21MOL   N159 5399   4.246   4.306   1.532  0.2970 -0.5093  0.4312
   21MOL   C160 5400   4.278   4.430   1.571 -0.0523  0.9042  0.2127
   21MOL   O161 5401   4.226   4.488   1.661  0.2021 -1.0904 -0.6353
   21MOL   C162 5402   4.387   4.489   1.487  0.0907  0.1858  0.0640
   21MOL   C163 5403   4.156   4.178   1.723  0.2744 -0.5550 -0.8275
   21MOL   H164 5404   4.042   4.309   1.603 -0.4918 -0.0548 -0.8897
   21MOL   H165 5405   4.303   4.263   1.461  0.0354 -0.1591  0.0094
   21MOL   H166 5406   4.361   4.482   1.381  0.5981  2.0383 -0.2022
   21MOL   H167 5407   4.387   4.591   1.526  1.6284  0.5984 -0.9602
   21MOL   H168 5408   4.486   4.445   1.497 -0.0531 -0.0185  0.5985
   21MOL   H169 5409   4.165   4.069   1.716  1.4970 -0.5382  0.2071
   21MOL   H170 5410   4.246   4.221   1.766  0.0883 -0.3817 -0.6135
   21MOL   C171 5411   4.059   4.217   1.841 -0.1308  0.6090 -0.0592
   21MOL   N172 5412   4.134   4.213   1.960  0.1411  0.3476 -0.4721
   21MOL   C173 5413   4.131   4.312   2.046  0.3783 -0.2869  0.0289
   21MOL   O174 5414   4.053   4.406   2.031 -0.0536  0.1427 -0.2303
   21MOL   C175 5415   4.230   4.300   2.166  0.5320 -0.3323  0.5042
   21MOL   C176 5416   3.930   4.129   1.838 -0.5270 -0.2492  0.1497
   21MOL   H177 5417   4.033   4.320   1.817 -3.3836  0.0571  0.8451
   21MOL   H178 5418   4.197   4.134   1.965  1.7497  1.7158  2.0196
   21MOL   H179 5419   4.178   4.255   2.250  0.0764 -0.1038  0.3447
   21MOL   H180 5420   4.320   4.246   2.137  1.1394 -0.0718  1.8397
   21MOL   H181 5421   4.264   4.400   2.195 -0.3684  0.6981 -1.8893
   21MOL   H182 5422   3.951   4.033   1.789  1.1574  0.4507 -0.5327
   21MOL   H183 5423   3.896   4.111   1.940 -1.4253 -0.2927 -0.1472
   21MOL   C184 5424   3.813   4.186   1.756 -0.5556 -0.0259 -0.3682
   21MOL   N185 5425   3.750   4.302   1.811  0.5306  0.0033 -0.1528
   21MOL   C186 5426   3.677   4.317   1.920 -0.4636 -0.2474 -0.4927
   21MOL   O187 5427   3.648   4.223   1.991  0.1275 -0.0272  0.1255
   21MOL   C188 5428   3.626   4.456   1.942  0.7067  0.1868  0.2812
   21MOL   C189 5429   3.709   4.078   1.721  0.0080 -0.2562  0.1521
   21MOL   H190 5430   3.854   4.223   1.662 -1.5110  3.2867  0.4482
   21MOL   H191 5431   3.775   4.390   1.769  0.1037 -0.4726 -1.4386
   21MOL   H192 5432   3.700   4.528   1.906  2.5795 -1.6668  0.3394
   21MOL   H193 5433   3.540   4.488   1.883  0.3728  0.0852  0.7096
   21MOL   H194 5434   3.589   4.475   2.043 -2.4338  1.0944 -0.9918
   21MOL   H195 5435   3.769   4.012   1.659 -2.4987 -0.5209 -2.1054
   21MOL   H196 5436   3.681   4.025   1.812 -1.5313 -0.2144 -0.2685
   21MOL   C197 5437   3.588   4.125   1.628  0.5998  1.0389  0.8636
   21MOL   N198 5438   3.492   4.020   1.596  0.2027 -0.1376  0.4392
   21MOL   C199 5439   3.360   4.029   1.608  0.4403 -0.3950 -0.2562
   21MOL   O200 5440   3.306   4.118   1.675 -0.1922 -0.0686  0.6703
   21MOL   C201 5441   3.289   3.903   1.554  0.4276 -0.8790 -0.5376
   21MOL   C202 5442   3.626   4.180   1.489 -0.2382 -0.6049 -0.2768
   21MOL   H203 5443   3.529   4.201   1.680 -0.4993  0.0419  1.1058
   21MOL   H204 5444   3.522   3.930   1.561 -1.2118  0.5895 -2.7793
   21MOL   H205 5445   3.320   3.822   1.620  0.5753  0.1176  0.6362
   21MOL   H206 5446   3.181   3.913   1.556  0.5529  0.3603  1.7552
   21MOL   H207 5447   3.331   3.877   1.457  0.5823 -2.9272  0.0582
   21MOL   H208 5448   3.733   4.197   1.480 -0.5950  0.7355 -2.4915
   21MOL   H209 5449   3.603   4.104   1.414 -2.7410 -0.7200  0.5533
   21MOL   C210 5450   3.549   4.303   1.436  0.6213  0.7226 -0.1371
   21MOL   N211 5451   3.568   4.311   1.294 -0.3223 -0.7189 -0.0285
   21MOL   C212 5452   3.476   4.291   1.202 -0.5766  0.2191 -0.2525
   21MOL   O213 5453   3.360   4.267   1.231  0.0514 -0.0399 -0.3602
   21MOL   C214 5454   3.522   4.300   1.056  0.5114 -0.2633 -0.9546
   21MOL   C215 5455   3.580   4.431   1.509 -0.5168  0.7446 -0.3800
   21MOL   H216 5456   3.447   4.276   1.463  1.5158  0.5451  3.2664
   21MOL   H217 5457   3.662   4.332   1.264  0.1728 -1.7604  0.7521
   21MOL   H218 5458   3.468   4.381   1.007 -0.2095  0.0040  0.2433
   21MOL   H219 5459   3.627   4.328   1.063  0.3165  0.3685 -0.4540
   21MOL   H220 5460   3.510   4.209   0.997 -0.3602 -1.0705  0.4144
   21MOL   H221 5461   3.559   4.422   1.616  1.4557  1.0411  0.0473
   21MOL   H222 5462   3.688   4.446   1.511 -0.0247 -2.3524  0.0516
   21MOL   C223 5463   3.509   4.558   1.470 -0.0463 -0.0198  0.1501
   21MOL   N224 5464   3.572   4.670   1.548  0.0507 -0.1067  0.2419
   21MOL   C225 5465   3.608   4.783   1.492 -0.8755 -0.0560 -0.9181
   21MOL   O226 5466   3.629   4.806   1.373 -0.0633  0.9328 -0.7497
   21MOL   C227 5467   3.641   4.896   1.592 -0.3796  0.4651 -0.3440
   21MOL   C228 5468   3.358   4.556   1.497  0.3117 -0.1425  0.2212
   21MOL   H229 5469   3.538   4.572   1.366  0.0821  0.4552  0.2487
   21MOL   H230 5470   3.542   4.665   1.645  0.8245  0.0957  0.4923
   21MOL   H231 5471   3.556   4.963   1.590  0.3225  1.4116  0.7748
   21MOL   H232 5472   3.658   4.858   1.693 -1.0840  2.9948  0.7484
   21MOL   H233 5473   3.725   4.960   1.564  1.3191 -1.3128  0.5706
   21MOL   H234 5474   3.317   4.456   1.484  2.4791 -0.9679 -0.6157
   21MOL   H235 5475   3.342   4.569   1.604  1.7311 -0.5128  0.4947
   21MOL   C236 5476   3.271   4.667   1.427  0.2842  0.4042 -0.6280
   21MOL   N237 5477   3.139   4.680   1.489  0.7331 -0.1197 -0.0638
   21MOL   C238 5478   3.117   4.750   1.602  0.6719 -0.1261  0.5395
   21MOL   O239 5479   3.200   4.819   1.665 -0.3795  0.5444 -0.7228
   21MOL   C240 5480   2.971   4.761   1.646 -0.0209 -0.4983  0.3433
   21MOL   C241 5481   3.253   4.632   1.278 -0.1364  0.1951 -0.0536
   21MOL   H242 5482   3.316   4.765   1.443  0.3441  0.3237 -0.2984
   21MOL   H243 5483   3.066   4.614   1.468  0.3107  0.0432  0.8513
   21MOL   H244 5484   2.907   4.703   1.579  0.5831 -1.4537  0.5851
   21MOL   H245 5485   2.954   4.730   1.749  0.7946 -1.3167  0.2400
   21MOL   H246 5486   2.934   4.864   1.645 -0.1391 -0.5430 -0.0564
   21MOL   H247 5487   3.244   4.717   1.211  2.3828  0.1418 -0.5190
   21MOL   H248 5488   3.348   4.589   1.244  0.3919  1.0031  0.3937
   21MOL   C249 5489   3.141   4.541   1.229  0.2764 -0.2297 -0.6557
   21MOL   N250 5490   3.131   4.415   1.305  0.1083  0.4702  0.3297
   21MOL   C251 5491   3.040   4.383   1.398  0.3413  0.1561 -0.1587
   21MOL   O252 5492   2.942   4.453   1.426 -0.3851 -1.0217 -0.1777
   21MOL   C253 5493   3.070   4.273   1.498  0.5703  0.8676 -0.1149
   21MOL   C254 5494   3.156   4.504   1.082 -0.1518 -0.7578 -0.4215
   21MOL   H255 5495   3.043   4.585   1.242 -0.0077 -1.7021  2.6440
   21MOL   H256 5496   3.193   4.341   1.275 -0.4972  0.4888 -1.0368
   21MOL   H257 5497   2.976   4.218   1.512 -0.0782  2.0921  0.3970
   21MOL   H258 5498   3.147   4.206   1.460 -0.8043 -1.2440  0.7139
   21MOL   H259 5499   3.106   4.311   1.594 -0.2466 -1.0553  0.9982
   21MOL   H260 5500   3.169   4.600   1.031  2.6582  0.8303  3.0375
   21MOL   H261 5501   3.240   4.439   1.058  0.2894  0.3573 -1.9420
   21MOL   H262 5502   3.063   4.458   1.050 -0.7462  1.6736 -2.3905
   22MOL     C1 5503   3.851   3.423   3.565 -0.1742 -0.1047  0.0841
   22MOL     N2 5504   3.757   3.535   3.568 -0.1770  0.2559  0.0785
   22MOL     C3 5505   3.632   3.536   3.611  0.0087 -0.1694  0.4388
   22MOL     O4 5506   3.579   3.432   3.651 -0.2506  0.2374  0.0072
   22MOL     C5 5507   3.560   3.670   3.626  0.0543  0.7561  0.6293
   22MOL     C6 5508   3.929   3.395   3.429  0.0745 -0.1349  0.3023
   22MOL     H7 5509   3.925   3.442   3.643  0.4724 -0.5244 -0.4210
   22MOL     H8 5510   3.787   3.624   3.531 -3.0650  0.8701 -0.9452
   22MOL     H9 5511   3.454   3.657   3.648  0.0201 -1.1984 -0.5610
   22MOL    H10 5512   3.608   3.743   3.691  2.6988  0.2659 -0.6811
   22MOL    H11 5513   3.573   3.715   3.527  0.1875 -0.7036 -0.0259
   22MOL    H12 5514   3.877   3.313   3.379 -0.0979  1.0101 -1.4460
   22MOL    H13 5515   3.927   3.483   3.364 -0.1877 -0.6750 -0.4277
   22MOL    H14 5516   3.796   3.335   3.600 -0.0452 -0.0934  0.3128
   22MOL    C15 5517   4.082   3.372   3.446 -0.0228  0.7104 -0.5128
   22MOL    N16 5518   4.122   3.254   3.524  0.2851  0.2400  0.0696
   22MOL    C17 5519   4.141   3.239   3.656  0.2870 -0.6649  0.5472
   22MOL    O18 5520   4.118   3.323   3.742 -0.4618 -0.0619  0.7457
   22MOL    C19 5521   4.187   3.101   3.696  0.3064 -0.1817  0.1754
   22MOL    C20 5522   4.159   3.498   3.483  1.2299  0.1714  0.8680
   22MOL    H21 5523   4.123   3.354   3.346  0.0286 -0.0698 -0.3564
   22MOL    H22 5524   4.127   3.165   3.476  1.5860 -0.1608  0.9057
   22MOL    H23 5525   4.286   3.103   3.741  0.2365  1.5767  0.2531
   22MOL    H24 5526   4.125   3.038   3.760  0.1542 -0.6195 -0.4007
   22MOL    H25 5527   4.202   3.037   3.608 -1.2220 -0.1108 -0.1469
   22MOL    H26 5528   4.128   3.578   3.416 -2.1650 -0.5649  1.4604
   22MOL    H27 5529   4.126   3.527   3.582  3.4748  1.3399  1.3004
   22MOL    C28 5530   4.314   3.489   3.476 -0.3798 -0.4205 -0.0822
   22MOL    N29 5531   4.372   3.463   3.606  0.5076  0.1919  0.1328
   22MOL    C30 5532   4.498   3.420   3.620  0.3850 -0.3882 -0.4808
   22MOL    O31 5533   4.572   3.419   3.524  0.1343  0.3805 -0.6178
   22MOL    C32 5534   4.544   3.369   3.755 -0.3307 -0.4687 -0.1504
   22MOL    C33 5535   4.369   3.623   3.423 -1.0177 -0.4221 -0.4521
   22MOL    H34 5536   4.352   3.405   3.418  0.0475 -0.6482  0.5233
   22MOL    H35 5537   4.305   3.455   3.681  1.4712 -0.6895  0.9195
   22MOL    H36 5538   4.652   3.352   3.754 -0.3712 -0.6696 -1.3836
   22MOL    H37 5539   4.522   3.451   3.824 -1.7937 -0.6220 -0.4258
   22MOL    H38 5540   4.510   3.269   3.781 -0.0561 -0.5504 -0.1034
   22MOL    H39 5541   4.320   3.706   3.473 -1.0583 -0.5728 -0.2414
   22MOL    H40 5542   4.470   3.638   3.460 -0.8804  0.4382 -1.1739
   22MOL    C41 5543   4.368   3.637   3.266  0.2121  0.2540 -0.0115
   22MOL    N42 5544   4.439   3.519   3.212  0.4576 -0.2814 -0.4632
   22MOL    C43 5545   4.417   3.479   3.085  0.7363 -0.2796  0.2126
   22MOL    O44 5546   4.351   3.544   3.007  0.3396  0.3919 -0.2303
   22MOL    C45 5547   4.498   3.367   3.021  0.1623  0.6777  0.6714
   22MOL    C46 5548   4.426   3.776   3.215  0.8997 -0.4901  0.0910
   22MOL    H47 5549   4.263   3.643   3.237  0.3160  2.0189 -0.1212
   22MOL    H48 5550   4.492   3.466   3.279  2.9432  1.3254 -1.0439
   22MOL    H49 5551   4.555   3.405   2.936 -1.5773 -0.4529 -1.0316
   22MOL    H50 5552   4.571   3.339   3.097  0.7377 -2.8088 -1.0882
   22MOL    H51 5553   4.441   3.278   2.996  2.3367 -0.0718 -1.9031
   22MOL    H52 5554   4.523   3.789   3.264 -0.2467  2.7508  1.6471
   22MOL    H53 5555   4.442   3.776   3.107  0.8972 -2.3104  0.0790
   22MOL    C54 5556   4.331   3.889   3.255  0.1655 -0.0918 -0.3853
   22MOL    N55 5557   4.319   3.974   3.132  0.0537  0.8245 -0.2236
   22MOL    C56 5558   4.411   4.050   3.082  0.3469  0.0688 -0.8796
   22MOL    O57 5559   4.515   4.069   3.140  0.4411 -0.4965 -0.0605
   22MOL    C58 5560   4.387   4.120   2.950  0.4618 -0.2408 -0.9771
   22MOL    C59 5561   4.375   3.972   3.381  0.2068  0.6581 -0.1840
   22MOL    H60 5562   4.227   3.858   3.269 -0.7698  3.7020  2.0235
   22MOL    H61 5563   4.232   3.966   3.081 -0.2187  1.1492  0.1832
   22MOL    H62 5564   4.285   4.115   2.911  0.1808 -0.4964 -0.2245
   22MOL    H63 5565   4.404   4.225   2.970  5.4847 -1.0629 -0.3484
   22MOL    H64 5566   4.453   4.089   2.869  0.4381 -0.0220 -1.0795
   22MOL    H65 5567   4.372   3.902   3.464  1.2094  1.6589  0.7175
   22MOL    H66 5568   4.481   3.998   3.370  0.3862 -0.4193 -1.1030
   22MOL    C67 5569   4.297   4.106   3.411  0.6646  0.0404  0.3092
   22MOL    N68 5570   4.364   4.179   3.511  0.1924 -0.2552  0.1133
   22MOL    C69 5571   4.376   4.312   3.533  0.2398 -0.7641 -0.9178
   22MOL    O70 5572   4.320   4.393   3.464 -0.0797 -0.4770 -0.0907
   22MOL    C71 5573   4.466   4.358   3.644 -0.2643 -0.5744  0.1326
   22MOL    C72 5574   4.150   4.098   3.441  0.5713 -0.0219  0.1147
   22MOL    H73 5575   4.316   4.161   3.318  1.9293  1.8530  1.6108
   22MOL    H74 5576   4.432   4.137   3.573  2.8112  2.0091 -1.1399
   22MOL    H75 5577   4.432   4.330   3.743 -2.1803  2.7656  0.5051
   22MOL    H76 5578   4.568   4.328   3.622 -0.2156 -0.3289  0.0179
   22MOL    H77 5579   4.477   4.466   3.631 -1.1831 -0.5166 -0.1878
   22MOL    H78 5580   4.134   4.200   3.476  2.1120 -1.0768  4.2641
   22MOL    H79 5581   4.100   4.079   3.346  2.8802 -0.8712 -0.9927
   22MOL    C80 5582   4.103   4.000   3.545 -0.3302  0.4692  0.6268
   22MOL    N81 5583   3.955   3.986   3.527 -0.2691 -0.3129 -0.2064
   22MOL    C82 5584   3.901   3.869   3.479 -0.0658  0.8452  0.2122
   22MOL    O83 5585   3.939   3.754   3.511  0.0932 -0.4061  0.6060
   22MOL    C84 5586   3.792   3.885   3.378  0.3005 -1.1040 -0.1571
   22MOL    C85 5587   4.146   4.030   3.686  0.0634 -0.1062 -0.5098
   22MOL    H86 5588   4.144   3.903   3.516 -2.0093  0.3298 -1.3728
   22MOL    H87 5589   3.904   4.069   3.502 -1.0430 -0.9191 -0.6604
   22MOL    H88 5590   3.815   3.868   3.273 -2.5276  0.8299 -1.1613
   22MOL    H89 5591   3.721   3.808   3.407  0.4853 -0.9482  0.7398
   22MOL    H90 5592   3.741   3.981   3.381 -0.2491 -1.3518 -1.4334
   22MOL    H91 5593   4.253   4.015   3.697 -0.3971 -1.8591  1.8594
   22MOL    H92 5594   4.125   4.134   3.713  1.5249  0.0686  0.0289
   22MOL    C93 5595   4.078   3.931   3.789 -0.6079 -0.2018  0.2857
   22MOL    N94 5596   4.100   4.001   3.917  0.1648 -0.2064  0.1896
   22MOL    C95 5597   4.002   4.071   3.982  0.2208 -0.7644  0.0733
   22MOL    O96 5598   3.884   4.057   3.960  0.0731  0.4742  0.1669
   22MOL    C97 5599   4.043   4.150   4.096  0.0999 -0.3397 -0.7750
   22MOL    C98 5600   4.134   3.784   3.803 -0.2622  0.1483  0.3360
   22MOL    H99 5601   3.974   3.926   3.759 -1.0183  1.0357  1.4325
   22MOL   H100 5602   4.188   4.002   3.966 -0.7488 -0.6422  1.8872
   22MOL   H101 5603   4.064   4.093   4.186 -0.9394 -1.2834 -1.1265
   22MOL   H102 5604   4.140   4.194   4.069  0.7962 -1.2959  0.1073
   22MOL   H103 5605   3.986   4.236   4.129  3.3934  1.1696  1.2056
   22MOL   H104 5606   4.131   3.744   3.702 -1.7033  1.9642 -0.3693
   22MOL   H105 5607   4.236   3.774   3.840 -0.1708  0.0364  0.0573
   22MOL   C106 5608   4.063   3.687   3.900  1.2261  0.4223  0.0849
   22MOL   N107 5609   4.135   3.563   3.910 -0.4777  0.6804 -0.2457
   22MOL   C108 5610   4.213   3.529   4.014 -0.0231 -1.1399  0.1457
   22MOL   O109 5611   4.240   3.615   4.104  0.1986 -0.5517 -0.0161
   22MOL   C110 5612   4.264   3.393   4.026  0.3107 -0.0254 -0.7239
   22MOL   C111 5613   3.917   3.657   3.865  0.4508  0.3385  0.3996
   22MOL   H112 5614   4.064   3.734   3.999  1.9947  0.6083 -0.0038
   22MOL   H113 5615   4.132   3.497   3.833 -0.2758 -2.0609  2.0290
   22MOL   H114 5616   4.250   3.327   3.941  0.7834  1.8501 -2.3057
   22MOL   H115 5617   4.369   3.400   4.054  0.1941 -2.7100  0.5344
   22MOL   H116 5618   4.211   3.351   4.111  0.3102 -0.6640 -1.0347
   22MOL   H117 5619   3.867   3.754   3.871 -1.3751 -0.6411  1.6481
   22MOL   H118 5620   3.901   3.622   3.763 -1.2679 -0.0467  0.7935
   22MOL   C119 5621   3.858   3.564   3.968  0.3982 -0.3200 -0.0169
   22MOL   N120 5622   3.854   3.430   3.923 -0.1273  0.5891 -0.4331
   22MOL   C121 5623   3.813   3.325   3.989 -0.0895  0.1326  0.2529
   22MOL   O122 5624   3.794   3.322   4.116  0.6970  0.1565  0.2275
   22MOL   C123 5625   3.789   3.197   3.910 -0.3521  0.2994 -0.3406
   22MOL   C124 5626   3.720   3.617   4.002  0.5204 -0.7299 -0.2078
   22MOL   H125 5627   3.905   3.566   4.067 -2.2709 -0.5503  1.2906
   22MOL   H126 5628   3.887   3.417   3.828 -3.0191  1.3614 -1.5907
   22MOL   H127 5629   3.889   3.156   3.894 -0.7381  0.0450 -2.2541
   22MOL   H128 5630   3.732   3.117   3.955 -0.7178  0.4363 -0.5638
   22MOL   H129 5631   3.763   3.210   3.805 -1.1917 -0.0523 -0.1730
   22MOL   H130 5632   3.668   3.636   3.909  0.0116 -2.4782 -0.3034
   22MOL   H131 5633   3.664   3.539   4.053  2.3292 -1.1191  1.2709
   22MOL   C132 5634   3.705   3.732   4.098 -0.6822  0.1552 -0.2446
   22MOL   N133 5635   3.748   3.697   4.233 -0.4392 -0.3240 -0.5645
   22MOL   C134 5636   3.844   3.764   4.300  0.2015 -0.0353 -0.5155
   22MOL   O135 5637   3.936   3.823   4.251 -0.0756  0.6411  0.0089
   22MOL   C136 5638   3.828   3.761   4.452 -0.0456 -0.0347 -0.0967
   22MOL   C137 5639   3.569   3.806   4.113  0.1843 -0.2986  0.4901
   22MOL   H138 5640   3.774   3.809   4.065  0.3334 -0.5786  0.1613
   22MOL   H139 5641   3.685   3.637   4.284 -0.9937  1.3018  0.7110
   22MOL   H140 5642   3.726   3.764   4.492 -0.0619 -0.4088 -0.1089
   22MOL   H141 5643   3.872   3.671   4.495 -1.0526 -0.1833  0.6508
   22MOL   H142 5644   3.888   3.847   4.484 -0.5179  1.1046 -2.1803
   22MOL   H143 5645   3.515   3.763   4.028 -0.7613 -1.4500  1.6570
   22MOL   H144 5646   3.522   3.768   4.203 -3.5284  2.7998 -0.0222
   22MOL   C145 5647   3.560   3.955   4.098  0.0711  0.1971 -0.9402
   22MOL   N146 5648   3.613   3.995   3.970  0.3384 -0.1045 -0.0478
   22MOL   C147 5649   3.547   3.994   3.857 -0.7589  0.2634  0.6702
   22MOL   O148 5650   3.434   3.943   3.852 -0.1060 -0.4017  0.2847
   22MOL   C149 5651   3.608   4.056   3.735  0.2994 -0.5730 -0.2120
   22MOL   C150 5652   3.636   4.029   4.208  0.5095  0.9861  0.6434
   22MOL   H151 5653   3.456   3.988   4.103 -0.3217 -1.3841  3.8336
   22MOL   H152 5654   3.699   4.048   3.961 -1.0083  2.0102 -0.5299
   22MOL   H153 5655   3.584   3.987   3.655 -2.1005 -0.4268  0.3348
   22MOL   H154 5656   3.567   4.153   3.705  1.3288 -0.7992 -2.4602
   22MOL   H155 5657   3.717   4.069   3.737  0.3331 -0.8922 -0.0365
   22MOL   H156 5658   3.621   3.984   4.306 -1.4918  2.8866  1.2624
   22MOL   H157 5659   3.743   4.024   4.190  0.0846  0.1134 -1.9687
   22MOL   C158 5660   3.596   4.176   4.222 -0.8026  0.6807  0.0040
   22MOL   N159 5661   3.687   4.268   4.146  0.1429 -0.0410  0.4379
   22MOL   C160 5662   3.647   4.330   4.034  0.2069  0.0585  0.0687
   22MOL   O161 5663   3.535   4.322   3.984  0.6558 -0.5071 -0.8719
   22MOL   C162 5664   3.755   4.404   3.958 -0.5982  0.2614  0.2684
   22MOL   C163 5665   3.605   4.223   4.373  0.6819  0.4211  0.4326
   22MOL   H164 5666   3.496   4.193   4.182 -0.5404  3.8918  0.5596
   22MOL   H165 5667   3.781   4.279   4.180  0.9000  0.4083 -1.7137
   22MOL   H166 5668   3.744   4.371   3.855 -0.7749  1.2453 -0.0435
   22MOL   H167 5669   3.750   4.512   3.978 -0.9869  0.3176 -0.1121
   22MOL   H168 5670   3.853   4.375   3.995  0.1954  3.2607  0.6966
   22MOL   H169 5671   3.572   4.141   4.438 -1.8555  0.8837 -0.1948
   22MOL   H170 5672   3.707   4.242   4.405  0.6059 -0.8516  1.5066
   22MOL   C171 5673   3.522   4.350   4.418  1.1575 -0.0930  0.8790
   22MOL   N172 5674   3.523   4.449   4.317 -0.3758  0.6336 -0.1856
   22MOL   C173 5675   3.423   4.537   4.295 -0.1067 -0.2632 -0.3945
   22MOL   O174 5676   3.319   4.535   4.354 -0.1448 -0.6121  0.4622
   22MOL   C175 5677   3.455   4.658   4.203 -0.1144 -0.3800  0.2636
   22MOL   C176 5678   3.559   4.407   4.557  0.4071  0.5659  0.2526
   22MOL   H177 5679   3.418   4.318   4.428  1.3003 -1.9649 -2.6498
   22MOL   H178 5680   3.606   4.461   4.261 -0.4595  0.1532 -0.4081
   22MOL   H179 5681   3.556   4.667   4.163 -0.6813  0.9190 -0.9470
   22MOL   H180 5682   3.377   4.680   4.129  1.2577 -0.5399 -1.2503
   22MOL   H181 5683   3.444   4.750   4.260  1.4876  0.0749 -0.1574
   22MOL   H182 5684   3.470   4.462   4.587 -1.5422 -2.2632 -0.1029
   22MOL   H183 5685   3.556   4.330   4.633  0.0306 -0.3559 -0.6796
   22MOL   C184 5686   3.679   4.504   4.564 -0.4397  0.9871  0.5768
   22MOL   N185 5687   3.803   4.428   4.566  0.7485  0.6061 -0.9013
   22MOL   C186 5688   3.882   4.410   4.459  0.1465  0.6552 -0.0146
   22MOL   O187 5689   3.865   4.472   4.355 -0.0117 -0.0040  0.1248
   22MOL   C188 5690   4.007   4.316   4.470 -0.0090 -0.8106 -0.5400
   22MOL   C189 5691   3.662   4.615   4.672  0.7408 -0.1018 -0.4621
   22MOL   H190 5692   3.685   4.556   4.469 -0.5177 -2.7257 -1.5452
   22MOL   H191 5693   3.833   4.392   4.655 -1.9662  1.1999  0.2957
   22MOL   H192 5694   3.985   4.259   4.560  0.9368 -0.5818 -0.1620
   22MOL   H193 5695   4.021   4.243   4.390  2.6574 -1.1799  0.2178
   22MOL   H194 5696   4.098   4.374   4.480 -1.8734  2.1375 -0.2139
   22MOL   H195 5697   3.556   4.637   4.677  0.5829 -1.1284  0.8515
   22MOL   H196 5698   3.686   4.572   4.769  0.9320 -0.3769 -0.6292
   22MOL   C197 5699   3.760   4.728   4.656 -0.7296 -0.2551  0.2507
   22MOL   N198 5700   3.768   4.818   4.770  0.3091 -0.1081  0.1835
   22MOL   C199 5701   3.867   4.865   4.843  0.4913  0.2999 -0.5022
   22MOL   O200 5702   3.978   4.838   4.804  0.0483  0.6830  0.3998
   22MOL   C201 5703   3.840   4.937   4.973 -0.5081  0.4353  0.2720
   22MOL   C202 5704   3.731   4.818   4.533  0.4051 -0.2248  0.1331
   22MOL   H203 5705   3.858   4.680   4.653 -2.3728 -3.6515 -3.2298
   22MOL   H204 5706   3.679   4.856   4.797 -0.2002 -1.7114  0.7370
   22MOL   H205 5707   3.922   5.001   5.006 -1.1576  1.8325 -0.7942
   22MOL   H206 5708   3.755   5.005   4.968 -2.0818 -1.5181  0.1175
   22MOL   H207 5709   3.817   4.867   5.053  1.1185 -1.2848 -0.7269
   22MOL   H208 5710   3.671   4.766   4.458  2.3763 -0.5587 -1.2840
   22MOL   H209 5711   3.654   4.885   4.569  0.1380  0.1928 -1.1870
   22MOL   C210 5712   3.841   4.905   4.464 -0.0997 -0.6895 -0.0496
   22MOL   N211 5713   3.787   5.016   4.383  0.9081 -0.0312  0.1558
   22MOL   C212 5714   3.712   4.999   4.273  0.0241 -0.2052 -0.4460
   22MOL   O213 5715   3.677   4.889   4.225 -0.1120 -0.4119  0.2324
   22MOL   C214 5716   3.666   5.123   4.200 -0.6023 -0.2591  0.6393
   22MOL   C215 5717   3.940   4.821   4.383  0.2616 -0.7063  0.5540
   22MOL   H216 5718   3.896   4.961   4.539  0.5247 -2.0605  0.5262
   22MOL   H217 5719   3.790   5.105   4.430  0.9085 -1.0203  2.1162
   22MOL   H218 5720   3.574   5.161   4.244 -1.2065 -0.5241 -0.3722
   22MOL   H219 5721   3.739   5.203   4.212 -0.2600 -0.2648 -1.2950
   22MOL   H220 5722   3.661   5.109   4.092 -0.5431 -1.9964  0.8524
   22MOL   H221 5723   3.888   4.748   4.320 -0.2968 -0.1758  0.3919
   22MOL   H222 5724   3.994   4.884   4.312  0.4979  0.6559  1.9272
   22MOL   C223 5725   4.059   4.748   4.454  0.5040 -0.2667  0.0042
   22MOL   N224 5726   4.121   4.835   4.554  0.0365 -0.0765  0.7996
   22MOL   C225 5727   4.223   4.925   4.547 -0.4249  0.8525  0.5663
   22MOL   O226 5728   4.265   4.979   4.445 -0.6031 -0.1428 -0.0371
   22MOL   C227 5729   4.278   4.954   4.686 -0.0945 -0.1899  0.4021
   22MOL   C228 5730   4.160   4.672   4.361  0.2303  0.3682 -0.7886
   22MOL   H229 5731   4.010   4.667   4.509 -0.4878  0.3984  0.1120
   22MOL   H230 5732   4.077   4.818   4.643 -1.4328 -0.9513 -0.0624
   22MOL   H231 5733   4.290   4.861   4.740 -0.1152 -0.6967 -0.4519
   22MOL   H232 5734   4.379   4.995   4.685 -0.0496 -0.2979  0.5817
   22MOL   H233 5735   4.213   5.031   4.728  1.4696  1.2663  0.2039
   22MOL   H234 5736   4.261   4.668   4.403 -0.3811  1.5791  0.8696
   22MOL   H235 5737   4.140   4.565   4.369 -0.3121  0.4606 -0.8846
   22MOL   C236 5738   4.169   4.709   4.214  0.4362 -0.3451  0.2620
   22MOL   N237 5739   4.044   4.716   4.140  0.2647  0.2898  0.1567
   22MOL   C238 5740   4.017   4.805   4.044 -0.5309 -0.7359 -0.8987
   22MOL   O239 5741   4.098   4.892   4.016  0.3225 -0.1811 -0.4027
   22MOL   C240 5742   3.894   4.780   3.949  0.2589 -0.3260  0.1036
   22MOL   C241 5743   4.265   4.620   4.127 -0.6483 -0.4574 -0.5627
   22MOL   H242 5744   4.210   4.810   4.210  2.6539 -1.0723  3.2581
   22MOL   H243 5745   3.973   4.649   4.165  0.8626 -0.4633 -0.1775
   22MOL   H244 5746   3.919   4.826   3.853 -2.3184  0.0916 -0.3868
   22MOL   H245 5747   3.874   4.677   3.919 -1.1433  1.3045 -5.1465
   22MOL   H246 5748   3.802   4.819   3.992  0.7237  2.1293 -1.0908
   22MOL   H247 5749   4.209   4.529   4.103 -0.9463 -0.8474  1.5698
   22MOL   H248 5750   4.280   4.671   4.032 -1.9845  0.8170 -0.1059
   22MOL   C249 5751   4.414   4.589   4.178  0.6063  0.4555 -0.0554
   22MOL   N250 5752   4.419   4.506   4.297 -0.3173 -0.1922  0.1154
   22MOL   C251 5753   4.406   4.373   4.303 -0.1960 -0.1078  0.1855
   22MOL   O252 5754   4.384   4.306   4.202 -0.4141  0.0100  0.0191
   22MOL   C253 5755   4.416   4.305   4.437 -0.1504  0.3686 -0.2334
   22MOL   C254 5756   4.500   4.717   4.199 -0.2469  0.2812 -0.2980
   22MOL   H255 5757   4.457   4.528   4.099 -0.4323  0.1554 -0.3937
   22MOL   H256 5758   4.439   4.550   4.385  0.1678 -2.6294  1.2639
   22MOL   H257 5759   4.335   4.318   4.508  1.9982  1.3196  2.0876
   22MOL   H258 5760   4.427   4.200   4.411 -3.6066  0.3400 -1.9174
   22MOL   H259 5761   4.504   4.331   4.495  0.6737 -2.4505 -0.1787
   22MOL   H260 5762   4.487   4.788   4.117  0.3397  1.9648  1.0316
   22MOL   H261 5763   4.465   4.768   4.288  0.4289 -0.3620  0.3369
   22MOL   H262 5764   4.608   4.704   4.198 -0.2892 -0.0624 -0.5579
   23MOL     C1 5765   2.710   3.967   1.728  0.2110  0.0559 -0.3923
   23MOL     N2 5766   2.835   3.939   1.803 -0.9066 -0.5916 -0.4622
   23MOL     C3 5767   2.942   4.019   1.800 -0.1460  0.5082 -0.0630
   23MOL     O4 5768   2.950   4.128   1.744  0.3735  0.4180  0.3118
   23MOL     C5 5769   3.064   3.977   1.885  0.4892  0.5682  0.4016
   23MOL     C6 5770   2.724   3.968   1.577  0.5341  0.1964 -0.3758
   23MOL     H7 5771   2.644   3.887   1.762  0.4323 -0.4875 -1.2049
   23MOL     H8 5772   2.848   3.850   1.850  0.8689 -1.6361 -2.8638
   23MOL     H9 5773   3.153   4.021   1.841  0.8840 -0.5850  0.0447
   23MOL    H10 5774   3.046   4.016   1.985  1.8619  2.5127 -0.0702
   23MOL    H11 5775   3.074   3.869   1.876 -1.8175  0.5649 -3.3479
   23MOL    H12 5776   2.799   4.041   1.547  1.3146 -0.8560 -1.0307
   23MOL    H13 5777   2.756   3.869   1.544  0.2600 -0.2181  0.5690
   23MOL    H14 5778   2.659   4.057   1.761 -1.4013 -0.5584 -1.1617
   23MOL    C15 5779   2.592   3.988   1.501 -0.0191 -0.8038 -0.1061
   23MOL    N16 5780   2.590   3.937   1.358  0.1474 -0.1066  0.0824
   23MOL    C17 5781   2.487   3.881   1.295  0.4306 -0.4537 -0.0946
   23MOL    O18 5782   2.376   3.872   1.351  0.1699 -0.1860  0.0790
   23MOL    C19 5783   2.507   3.810   1.159 -0.7712 -0.5594 -0.4466
   23MOL    C20 5784   2.522   4.127   1.518  0.2674 -0.8905  0.6858
   23MOL    H21 5785   2.519   3.922   1.548 -1.5427 -0.5120 -1.9817
   23MOL    H22 5786   2.675   3.944   1.304  0.2714  2.1744  0.5468
   23MOL    H23 5787   2.592   3.743   1.174 -0.3734  0.1542  0.6329
   23MOL    H24 5788   2.414   3.769   1.122 -0.4068  0.6544 -2.7741
   23MOL    H25 5789   2.538   3.888   1.089 -3.5662  2.3356  1.4430
   23MOL    H26 5790   2.429   4.121   1.463  1.8251 -0.2101 -2.1444
   23MOL    H27 5791   2.483   4.144   1.619  0.4459 -0.3773  0.6685
   23MOL    C28 5792   2.608   4.247   1.476  0.7837  0.0570 -0.1187
   23MOL    N29 5793   2.682   4.310   1.583  0.1706 -0.0766 -0.0679
   23MOL    C30 5794   2.638   4.381   1.694 -0.5111 -0.4156 -0.3846
   23MOL    O31 5795   2.520   4.380   1.734 -0.1454 -0.1542 -0.2276
   23MOL    C32 5796   2.742   4.459   1.767  0.0940 -0.0219  0.6015
   23MOL    C33 5797   2.525   4.357   1.407  0.4912  0.3817 -0.6070
   23MOL    H34 5798   2.684   4.196   1.417 -1.5790 -1.2025 -2.1148
   23MOL    H35 5799   2.782   4.295   1.578  0.2633  0.6392 -0.5451
   23MOL    H36 5800   2.817   4.494   1.696 -0.3870  0.9868  0.5855
   23MOL    H37 5801   2.703   4.548   1.815  1.1743  0.7376  0.1046
   23MOL    H38 5802   2.772   4.395   1.850 -0.8278 -0.9367  0.2298
   23MOL    H39 5803   2.435   4.361   1.468  1.2150 -0.7575  0.5870
   23MOL    H40 5804   2.572   4.455   1.421 -0.6770  0.9452 -0.5419
   23MOL    C41 5805   2.488   4.317   1.269  0.6455 -0.4151  0.3233
   23MOL    N42 5806   2.589   4.367   1.176 -0.0843  0.6809 -0.5131
   23MOL    C43 5807   2.696   4.288   1.150 -0.1427  0.5047  0.0481
   23MOL    O44 5808   2.697   4.163   1.164  0.3748 -0.2017  0.2716
   23MOL    C45 5809   2.823   4.356   1.099 -1.6237  0.0701  0.4690
   23MOL    C46 5810   2.349   4.378   1.238  0.3907  0.6250  0.3204
   23MOL    H47 5811   2.472   4.209   1.265 -0.4825 -0.2417 -0.1120
   23MOL    H48 5812   2.584   4.466   1.161  0.7146  0.4011 -2.8216
   23MOL    H49 5813   2.882   4.282   1.045  1.0798  2.4079  0.1253
   23MOL    H50 5814   2.808   4.432   1.022  0.7081  0.5867  0.5133
   23MOL    H51 5815   2.884   4.394   1.181 -1.7313  2.4156 -0.4878
   23MOL    H52 5816   2.311   4.430   1.326 -2.0224 -0.9159  0.2393
   23MOL    H53 5817   2.357   4.450   1.156 -1.0508  0.5703  0.1076
   23MOL    C54 5818   2.238   4.274   1.199  0.6315  0.1732  0.8133
   23MOL    N55 5819   2.116   4.362   1.176 -0.4571 -0.2333 -0.7191
   23MOL    C56 5820   2.048   4.385   1.062  0.3137 -0.0089 -0.0605
   23MOL    O57 5821   2.075   4.330   0.957  0.0038 -0.3835  0.2788
   23MOL    C58 5822   1.927   4.474   1.077  0.5517  0.3099  0.0402
   23MOL    C59 5823   2.204   4.157   1.296 -0.4109 -0.0373 -0.2509
   23MOL    H60 5824   2.275   4.241   1.102  1.7105  1.9260  0.5988
   23MOL    H61 5825   2.085   4.407   1.262  2.6916  1.8857 -0.5964
   23MOL    H62 5826   1.836   4.419   1.101  0.8627 -0.9168 -1.4933
   23MOL    H63 5827   1.945   4.549   1.153  0.0919 -0.5985  1.0555
   23MOL    H64 5828   1.916   4.533   0.986 -0.7750 -0.7269 -0.4835
   23MOL    H65 5829   2.291   4.092   1.310  0.7668  1.1070 -1.9616
   23MOL    H66 5830   2.177   4.193   1.395 -0.2556  2.4273 -1.0576
   23MOL    C67 5831   2.087   4.056   1.266  0.0830 -0.0309 -0.5352
   23MOL    N68 5832   2.086   3.944   1.364  0.1223 -0.8857 -0.2073
   23MOL    C69 5833   1.977   3.891   1.420  0.4491  0.8060 -0.9677
   23MOL    O70 5834   1.857   3.911   1.395 -0.2319 -0.5963  0.0501
   23MOL    C71 5835   2.001   3.799   1.537 -0.0518  0.5149 -0.4720
   23MOL    C72 5836   2.094   3.982   1.128 -0.8674 -0.4574  0.2214
   23MOL    H73 5837   2.001   4.120   1.286  1.6862  2.1543 -0.5525
   23MOL    H74 5838   2.173   3.909   1.402 -0.0976 -1.1433  0.0558
   23MOL    H75 5839   1.946   3.706   1.532  0.8355 -0.1616  1.6601
   23MOL    H76 5840   2.103   3.759   1.541  0.3797  1.6711  0.4935
   23MOL    H77 5841   1.985   3.851   1.631 -0.5599 -0.8848  0.2315
   23MOL    H78 5842   2.177   4.026   1.072 -1.7124  1.3424  0.3349
   23MOL    H79 5843   2.116   3.876   1.140 -0.7768 -0.2728  1.8266
   23MOL    C80 5844   1.967   3.998   1.039 -0.2768  0.1616  0.5513
   23MOL    N81 5845   1.842   3.978   1.112 -0.7796 -0.1498  0.0048
   23MOL    C82 5846   1.723   4.023   1.078  0.8133 -0.1777 -0.1677
   23MOL    O83 5847   1.700   4.083   0.969 -0.5830  0.3458  0.3084
   23MOL    C84 5848   1.601   4.016   1.173  0.1195  0.0243 -0.5778
   23MOL    C85 5849   1.971   3.918   0.903  0.1561 -0.1464 -0.1666
   23MOL    H86 5850   1.960   4.105   1.017 -1.5802 -0.2698 -1.2248
   23MOL    H87 5851   1.861   3.939   1.203  0.4979 -0.1719 -0.2689
   23MOL    H88 5852   1.616   3.983   1.276  0.0892 -1.1687 -0.9500
   23MOL    H89 5853   1.558   4.115   1.189  1.6115  0.8434 -1.5210
   23MOL    H90 5854   1.527   3.955   1.122  0.2969 -0.1269 -0.6546
   23MOL    H91 5855   2.043   3.837   0.917  1.0434  0.8274  1.0402
   23MOL    H92 5856   1.871   3.888   0.872  0.7482  0.2574 -2.6144
   23MOL    C93 5857   2.003   4.010   0.779 -0.2187 -0.4696 -0.0413
   23MOL    N94 5858   1.893   4.107   0.757  0.0484 -0.3299  0.4435
   23MOL    C95 5859   1.898   4.222   0.691  0.6807  1.1444 -0.1623
   23MOL    O96 5860   1.987   4.254   0.615 -0.2069 -0.4477 -0.0486
   23MOL    C97 5861   1.781   4.314   0.710  1.0763  0.3148 -0.1700
   23MOL    C98 5862   2.029   3.926   0.651  0.5546  0.3129  0.2464
   23MOL    H99 5863   2.086   4.071   0.814 -0.8419  0.0436  0.5902
   23MOL   H100 5864   1.818   4.112   0.824  0.1273 -0.4855  0.5416
   23MOL   H101 5865   1.789   4.357   0.809 -0.2029  3.4529 -1.3775
   23MOL   H102 5866   1.770   4.397   0.640  1.7945 -0.6363 -1.4380
   23MOL   H103 5867   1.685   4.263   0.717  0.5069  1.3455 -0.4537
   23MOL   H104 5868   1.939   3.866   0.639  1.0775 -0.4343  0.0409
   23MOL   H105 5869   2.031   3.987   0.561 -0.9952 -0.9873 -0.6881
   23MOL   C106 5870   2.142   3.821   0.657 -0.2997  0.9046 -0.1135
   23MOL   N107 5871   2.264   3.890   0.689 -0.4522  0.4662 -0.2901
   23MOL   C108 5872   2.348   3.854   0.788  0.0391  0.1536 -0.8539
   23MOL   O109 5873   2.334   3.752   0.858 -0.1043 -0.4672 -0.0203
   23MOL   C110 5874   2.462   3.948   0.807 -0.6676 -0.1569  0.1783
   23MOL   C111 5875   2.156   3.751   0.521 -0.1804  0.2389 -0.5090
   23MOL   H112 5876   2.102   3.753   0.733  1.3940  2.8809  2.6406
   23MOL   H113 5877   2.284   3.970   0.630 -3.0331  0.5681 -1.0882
   23MOL   H114 5878   2.523   3.959   0.717  0.2659 -1.1954  0.6731
   23MOL   H115 5879   2.425   4.045   0.840 -0.1141 -0.5654  2.0314
   23MOL   H116 5880   2.537   3.912   0.877  0.3968  1.9831  0.1642
   23MOL   H117 5881   2.056   3.730   0.482 -0.4958 -0.5830  0.7096
   23MOL   H118 5882   2.200   3.825   0.454  1.3728 -0.0109  0.2076
   23MOL   C119 5883   2.244   3.624   0.523  0.1099 -0.5647  0.1279
   23MOL   N120 5884   2.292   3.588   0.387  0.5533  0.3758  0.0577
   23MOL   C121 5885   2.410   3.523   0.366 -0.8959 -0.0204 -0.2711
   23MOL   O122 5886   2.469   3.476   0.463 -0.3443  0.0885  0.2839
   23MOL   C123 5887   2.456   3.504   0.221 -0.2556 -0.3479  0.4915
   23MOL   C124 5888   2.184   3.504   0.594 -0.1339 -0.5047 -0.0813
   23MOL   H125 5889   2.325   3.664   0.584 -0.4871  1.3114 -0.2826
   23MOL   H126 5890   2.261   3.633   0.302  1.4356  0.7193 -0.1003
   23MOL   H127 5891   2.397   3.434   0.161  2.6969 -2.1837 -0.3674
   23MOL   H128 5892   2.475   3.599   0.171 -0.7202 -1.1911 -1.3344
   23MOL   H129 5893   2.558   3.466   0.211  0.1685  0.7247  0.7426
   23MOL   H130 5894   2.258   3.424   0.599 -0.3471 -0.7774 -1.1362
   23MOL   H131 5895   2.162   3.542   0.694 -0.4861 -1.2301  0.1204
   23MOL   C132 5896   2.057   3.436   0.534  0.3347  0.2514 -0.8764
   23MOL   N133 5897   1.988   3.362   0.646 -0.4212 -0.2707 -0.1009
   23MOL   C134 5898   2.008   3.240   0.696  0.1855 -0.6886  0.1495
   23MOL   O135 5899   2.096   3.158   0.658 -0.8223 -0.1932 -0.6649
   23MOL   C136 5900   1.905   3.193   0.795 -0.6595 -0.5271 -0.3674
   23MOL   C137 5901   2.081   3.337   0.418 -0.4401  0.3518  0.3984
   23MOL   H138 5902   1.982   3.509   0.505 -0.3915  0.3676  1.2027
   23MOL   H139 5903   1.918   3.411   0.700 -1.2073 -0.3061 -1.0764
   23MOL   H140 5904   1.803   3.219   0.766 -0.3558  1.2475  0.0740
   23MOL   H141 5905   1.908   3.085   0.806  1.5795 -0.5744 -1.1973
   23MOL   H142 5906   1.923   3.230   0.896 -0.0918 -2.9072  0.4355
   23MOL   H143 5907   2.165   3.370   0.357 -0.1620  1.3196  1.3008
   23MOL   H144 5908   2.118   3.237   0.439  0.1330  0.2838 -0.8604
   23MOL   C145 5909   1.972   3.336   0.317 -0.2451  0.1783  0.7888
   23MOL   N146 5910   1.845   3.307   0.381 -0.1595  0.0442 -0.1099
   23MOL   C147 5911   1.749   3.394   0.388  0.4088 -0.2669 -0.0343
   23MOL   O148 5912   1.751   3.508   0.339 -0.0153 -0.5752  0.1988
   23MOL   C149 5913   1.631   3.354   0.463 -0.2772 -0.7439 -0.1938
   23MOL   C150 5914   1.999   3.245   0.194  0.0385 -0.3704  0.3613
   23MOL   H151 5915   1.957   3.437   0.279 -0.1030 -0.2775 -0.5056
   23MOL   H152 5916   1.842   3.224   0.438 -0.3021 -0.2161 -0.4948
   23MOL   H153 5917   1.595   3.262   0.415 -1.4047  0.4543 -1.6843
   23MOL   H154 5918   1.650   3.343   0.570  2.2276 -0.1759 -0.5658
   23MOL   H155 5919   1.549   3.424   0.446 -0.1980 -1.6106 -4.6208
   23MOL   H156 5920   2.074   3.288   0.128 -0.4674 -0.1560 -0.0828
   23MOL   H157 5921   2.035   3.148   0.229 -0.7582 -0.4206  1.0389
   23MOL   C158 5922   1.879   3.232   0.095 -0.9935  0.5382 -0.5133
   23MOL   N159 5923   1.772   3.144   0.146 -0.2951 -0.6478 -0.2595
   23MOL   C160 5924   1.771   3.012   0.158  0.9594 -0.0067 -0.1842
   23MOL   O161 5925   1.859   2.937   0.121  0.1594  0.5405  0.1419
   23MOL   C162 5926   1.643   2.960   0.221 -0.0668  0.1801 -0.5819
   23MOL   C163 5927   1.907   3.200   7.783 -0.1710 -0.4030 -0.5605
   23MOL   H164 5928   1.838   3.333   0.094 -1.4644  0.3534 -0.0320
   23MOL   H165 5929   1.689   3.183   0.187  0.2593  0.7717 -0.4573
   23MOL   H166 5930   1.670   2.864   0.264 -0.5608  0.9411  1.4710
   23MOL   H167 5931   1.595   3.022   0.296 -0.3663  0.3960 -0.9480
   23MOL   H168 5932   1.578   2.936   0.137 -0.9836 -1.5668  0.6110
   23MOL   H169 5933   1.981   3.121   7.791  0.1379 -0.1545 -0.8948
   23MOL   H170 5934   1.817   3.160   7.736  0.3217 -3.7125  1.1853
   23MOL   C171 5935   1.965   3.314   7.693 -0.4955  0.2536 -0.5317
   23MOL   N172 5936   1.915   3.445   7.714 -0.4322  0.2373 -0.2595
   23MOL   C173 5937   1.781   3.479   7.711 -0.0605 -0.6747 -0.0233
   23MOL   O174 5938   1.694   3.392   7.725  0.1114  0.2406  0.1225
   23MOL   C175 5939   1.739   3.617   7.687 -0.0889  0.1943  0.2955
   23MOL   C176 5940   1.966   3.280   7.543 -0.2027  0.7455 -0.2921
   23MOL   H177 5941   2.060   3.330   7.742  0.4291  0.2981 -2.3103
   23MOL   H178 5942   1.979   3.521   7.701 -0.6862  0.4889 -0.0564
   23MOL   H179 5943   1.817   3.676   7.639  1.3493 -1.6536  0.2903
   23MOL   H180 5944   1.642   3.606   7.638 -0.4015 -0.6058  1.0715
   23MOL   H181 5945   1.704   3.662   7.780  0.7615  3.0040 -0.6975
   23MOL   H182 5946   1.862   3.273   7.512  0.2129  0.4761 -1.6576
   23MOL   H183 5947   1.991   3.375   7.495 -2.5908  0.3386 -2.4206
   23MOL   C184 5948   2.053   3.159   7.488 -0.5257  0.0359  0.1973
   23MOL   N185 5949   2.086   3.177   7.348  0.9702 -1.3316  0.4220
   23MOL   C186 5950   2.209   3.202   7.293 -0.4701 -0.1135 -0.3499
   23MOL   O187 5951   2.313   3.217   7.358  0.4384  0.6519  0.4604
   23MOL   C188 5952   2.218   3.204   7.142  1.1775  0.2082  0.3959
   23MOL   C189 5953   1.975   3.019   7.503 -0.1418  0.0507 -0.2424
   23MOL   H190 5954   2.147   3.153   7.541 -0.0882 -2.6148 -0.8103
   23MOL   H191 5955   2.014   3.171   7.278  1.2037 -0.2932  0.0866
   23MOL   H192 5956   2.135   3.159   7.087  0.2328  0.2838  1.7412
   23MOL   H193 5957   2.230   3.309   7.113 -0.3059  0.0014 -1.0557
   23MOL   H194 5958   2.304   3.157   7.095 -0.4729  0.4359 -3.0248
   23MOL   H195 5959   1.919   3.008   7.596  0.5927 -0.3200  0.1669
   23MOL   H196 5960   1.903   3.012   7.423 -1.1556  0.2926  0.6373
   23MOL   C197 5961   2.060   2.891   7.489  0.7175 -0.0587 -0.0359
   23MOL   N198 5962   2.142   2.895   7.369  0.3711 -0.3099 -0.7408
   23MOL   C199 5963   2.267   2.853   7.352 -0.5525  0.1724  0.0807
   23MOL   O200 5964   2.331   2.800   7.442  0.4472  0.3458  0.4973
   23MOL   C201 5965   2.339   2.871   7.218 -0.1144 -0.4598  0.1474
   23MOL   C202 5966   1.975   2.762   7.484  0.6801  1.1836 -0.3386
   23MOL   H203 5967   2.124   2.885   7.578 -1.3699 -1.3874  1.4181
   23MOL   H204 5968   2.103   2.949   7.292  2.5076  3.1929  0.5007
   23MOL   H205 5969   2.290   2.938   7.147 -2.3364 -2.3167 -0.1275
   23MOL   H206 5970   2.438   2.908   7.245 -0.0577  0.6009 -1.4262
   23MOL   H207 5971   2.343   2.770   7.178  1.6411 -1.1104  1.9134
   23MOL   H208 5972   1.870   2.784   7.505  1.0933  4.2371 -1.1887
   23MOL   H209 5973   1.996   2.712   7.389 -0.5640 -0.4994  0.2559
   23MOL   C210 5974   1.998   2.661   7.600  0.1398 -0.4558  0.9102
   23MOL   N211 5975   1.910   2.545   7.577  0.4209  0.0827  0.3158
   23MOL   C212 5976   1.938   2.444   7.497  1.1176  0.2260 -0.3647
   23MOL   O213 5977   2.052   2.407   7.465 -0.3720  0.4928  0.4317
   23MOL   C214 5978   1.824   2.354   7.457  0.1773  0.2690  0.7202
   23MOL   C215 5979   1.948   2.710   7.742  0.8463  0.4543  0.0236
   23MOL   H216 5980   2.102   2.629   7.599  0.2975  0.0216 -1.3877
   23MOL   H217 5981   1.820   2.562   7.619 -0.7535  0.5227 -2.2307
   23MOL   H218 5982   1.728   2.377   7.503 -0.0250 -0.3310  0.6028
   23MOL   H219 5983   1.809   2.359   7.350  1.9778  0.4705  0.4650
   23MOL   H220 5984   1.836   2.249   7.484 -0.4118  0.1209  0.4214
   23MOL   H221 5985   1.988   2.809   7.761 -2.4291  1.3207  2.8946
   23MOL   H222 5986   1.840   2.723   7.730  0.3391 -1.0842  2.6679
   23MOL   C223 5987   1.963   2.620   0.020  0.6520 -0.4550 -0.9359
   23MOL   N224 5988   1.880   2.656   0.138  0.4395 -0.1140  0.2395
   23MOL   C225 5989   1.837   2.562   0.219  1.0711  0.4335  0.0378
   23MOL   O226 5990   1.854   2.442   0.202 -0.2540  0.7603 -0.7150
   23MOL   C227 5991   1.768   2.604   0.352 -0.0207  0.4142 -0.0798
   23MOL   C228 5992   2.124   2.610   0.054  0.9039 -0.2201  0.5526
   23MOL   H229 5993   1.920   2.527   7.823 -2.3511  0.8606 -0.8608
   23MOL   H230 5994   1.865   2.755   0.148  0.2850 -0.0310 -0.8210
   23MOL   H231 5995   1.660   2.597   0.335  0.3606 -2.4159 -1.7430
   23MOL   H232 5996   1.801   2.536   0.431  1.0828  0.6288 -0.3529
   23MOL   H233 5997   1.803   2.697   0.394  1.2405 -0.1275  0.0922
   23MOL   H234 5998   2.184   2.665   7.822 -0.9988  0.6436 -0.4027
   23MOL   H235 5999   2.138   2.668   0.146 -2.3331  1.1017  0.2684
   23MOL   C236 6000   2.185   2.469   0.063 -0.2251 -0.1859  0.8065
   23MOL   N237 6001   2.313   2.478   0.138  0.7852  0.7189 -0.2505
   23MOL   C238 6002   2.419   2.559   0.131  0.1290 -0.2088 -0.0446
   23MOL   O239 6003   2.422   2.648   0.049  0.1906  0.4613 -0.3896
   23MOL   C240 6004   2.520   2.570   0.243  0.1990  0.3122  0.5239
   23MOL   C241 6005   2.194   2.397   7.769  0.0036  0.1953 -0.3265
   23MOL   H242 6006   2.116   2.411   0.125 -1.5610 -1.8220 -2.1236
   23MOL   H243 6007   2.320   2.410   0.212 -2.7219  0.7919  0.2299
   23MOL   H244 6008   2.532   2.676   0.267  2.5860 -0.0271  0.9745
   23MOL   H245 6009   2.497   2.516   0.334  1.6458  1.4746  1.6064
   23MOL   H246 6010   2.616   2.545   0.197  0.3325 -0.2188  1.0995
   23MOL   H247 6011   2.102   2.406   7.711 -0.6850 -0.5571  0.6502
   23MOL   H248 6012   2.262   2.456   7.707 -0.5400  0.7769 -0.3699
   23MOL   C249 6013   2.267   2.264   7.771  0.2601 -0.2630 -0.1397
   23MOL   N250 6014   2.264   2.223   7.634  0.9258 -0.2601  0.0675
   23MOL   C251 6015   2.343   2.126   7.580  0.6738  0.7911 -0.1118
   23MOL   O252 6016   2.430   2.074   7.646 -0.3690 -0.7005  0.7210
   23MOL   C253 6017   2.331   2.104   7.435 -0.1852  0.4083  0.4491
   23MOL   C254 6018   2.202   2.163   0.020  0.1818  0.6409 -0.8946
   23MOL   H255 6019   2.369   2.292   7.795 -0.1925  1.2913  0.0208
   23MOL   H256 6020   2.204   2.275   7.572  0.6483  0.2742  0.7752
   23MOL   H257 6021   2.262   2.174   7.388 -0.4649  1.7200  2.7774
   23MOL   H258 6022   2.419   2.096   7.370 -0.7525 -0.0934 -0.2561
   23MOL   H259 6023   2.285   2.007   7.414  0.1028  0.1937  0.8207
   23MOL   H260 6024   2.228   2.179   0.124 -4.6097 -0.2887  0.6041
   23MOL   H261 6025   2.094   2.175   0.003  0.2324  1.2592 -0.8009
   23MOL   H262 6026   2.233   2.060   0.005 -1.4250  0.3090 -2.2034
   24MOL     C1 6027   7.433   1.720   1.052  0.2442 -0.3687  0.0958
   24MOL     N2 6028   7.559   1.679   1.127 -0.6636  0.1626  0.0824
   24MOL     C3 6029   7.612   1.745   1.235 -0.4227 -0.2418 -0.6390
   24MOL     O4 6030   7.581   1.854   1.272  0.1467  0.4610 -0.1220
   24MOL     C5 6031   7.721   1.678   1.318 -0.3037 -0.2893  0.1165
   24MOL     C6 6032   7.468   1.785   0.915 -0.3924  0.1136 -0.5871
   24MOL     H7 6033   7.372   1.631   1.034  0.9933 -1.3073  2.0885
   24MOL     H8 6034   7.614   1.604   1.087  0.5095  0.5605  0.9192
   24MOL     H9 6035   7.737   1.692   1.425  0.1089 -1.8993  0.2731
   24MOL    H10 6036   7.720   1.572   1.295  0.8651 -0.5863  1.3466
   24MOL    H11 6037   7.814   1.717   1.275 -0.8328  0.2137 -0.5921
   24MOL    H12 6038   7.372   1.818   0.877 -0.9093 -0.0337  0.5565
   24MOL    H13 6039   7.511   1.885   0.917 -0.9276  0.3514 -0.8560
   24MOL    H14 6040   7.367   1.783   1.111  2.8167  0.8699  1.7139
   24MOL    C15 6041   7.540   1.695   0.808  0.1740  0.6580  0.3466
   24MOL    N16 6042   7.681   1.726   0.811 -0.7869 -0.0713 -0.4076
   24MOL    C17 6043   7.779   1.657   0.873  0.5932  0.5487  0.5940
   24MOL    O18 6044   7.756   1.558   0.937 -0.1294 -0.1269 -0.2008
   24MOL    C19 6045   0.082   1.700   0.855 -0.1228 -0.1783  0.2101
   24MOL    C20 6046   7.470   1.704   0.668  0.0919 -0.0920  0.0420
   24MOL    H21 6047   7.522   1.589   0.828 -0.1249  0.4296 -1.0778
   24MOL    H22 6048   7.704   1.810   0.761  1.1118 -0.5608 -0.4011
   24MOL    H23 6049   0.083   1.787   0.789  1.0321 -0.1145  0.2965
   24MOL    H24 6050   0.129   1.731   0.949  2.2014 -0.9576 -0.6414
   24MOL    H25 6051   0.142   1.619   0.813 -0.4232 -2.0980  3.3507
   24MOL    H26 6052   7.369   1.668   0.687  0.2327 -0.7220 -0.4015
   24MOL    H27 6053   7.458   1.805   0.628  0.5973  0.1910  0.6086
   24MOL    C28 6054   7.545   1.621   0.556  0.5199  0.3213  0.3404
   24MOL    N29 6055   7.486   1.673   0.428 -0.5075 -0.3268 -0.4174
   24MOL    C30 6056   7.520   1.785   0.372  0.1487 -0.0181 -0.2635
   24MOL    O31 6057   7.620   1.847   0.401 -0.2458 -0.5004  0.2576
   24MOL    C32 6058   7.436   1.839   0.253  0.1064 -0.0442 -0.2447
   24MOL    C33 6059   7.528   1.472   0.568  0.4194 -0.3014 -0.0641
   24MOL    H34 6060   7.648   1.654   0.565  0.7432  0.0517 -1.0504
   24MOL    H35 6061   7.395   1.641   0.398  0.2161 -2.7010 -0.1725
   24MOL    H36 6062   7.472   1.938   0.222 -1.5440  0.0224 -1.9819
   24MOL    H37 6063   7.432   1.776   0.165  0.9190  0.2949 -0.5347
   24MOL    H38 6064   7.333   1.865   0.277 -0.3391 -1.1068 -1.0005
   24MOL    H39 6065   7.577   1.441   0.660 -0.1972 -2.2178 -0.3554
   24MOL    H40 6066   7.423   1.447   0.586 -0.3479  2.8003  0.0361
   24MOL    C41 6067   7.585   1.380   0.456 -0.3781 -0.1164  0.1889
   24MOL    N42 6068   7.554   1.239   0.492 -1.1111 -0.3100  0.8476
   24MOL    C43 6069   7.462   1.163   0.427 -0.4279  0.1521 -0.7942
   24MOL    O44 6070   7.404   1.202   0.324 -0.3702 -0.5975 -0.1316
   24MOL    C45 6071   7.445   1.019   0.478 -0.1612 -0.4501  0.4385
   24MOL    C46 6072   7.735   1.407   0.424  1.0768 -1.0422 -0.2556
   24MOL    H47 6073   7.526   1.406   0.369 -1.2029 -2.4003  0.0452
   24MOL    H48 6074   7.608   1.199   0.568 -1.7902  1.3068  2.2114
   24MOL    H49 6075   7.465   0.946   0.400  1.5456  0.4235  0.0507
   24MOL    H50 6076   7.504   0.996   0.566  1.4623  2.5270  0.1943
   24MOL    H51 6077   7.345   0.997   0.517  0.6079  1.8594  3.9529
   24MOL    H52 6078   7.740   1.514   0.407 -1.5447 -0.6359  1.2201
   24MOL    H53 6079   7.794   1.397   0.515 -2.4886 -2.7790  1.9821
   24MOL    C54 6080   7.778   1.351   0.285 -0.7951 -0.0731 -0.1915
   24MOL    N55 6081   7.794   1.214   0.288 -0.0855 -0.0154  0.3134
   24MOL    C56 6082   7.747   1.143   0.183  0.5560 -0.3689  0.2934
   24MOL    O57 6083   7.724   1.184   0.075 -0.2883  0.0239  0.3527
   24MOL    C58 6084   7.732   0.996   0.205 -0.0002 -0.6919 -0.2032
   24MOL    C59 6085   0.062   1.426   0.234 -0.5273 -0.0163 -0.3702
   24MOL    H60 6086   7.693   1.379   0.224 -0.1540 -1.4059 -1.7055
   24MOL    H61 6087   7.805   1.176   0.381  1.0410  2.9604  1.4598
   24MOL    H62 6088   7.662   0.972   0.285  0.4093  1.5737  0.8711
   24MOL    H63 6089   7.698   0.958   0.109  2.5525  2.5824 -2.5353
   24MOL    H64 6090   7.825   0.951   0.241  0.1187  0.4517  0.9680
   24MOL    H65 6091   0.049   1.533   0.246  1.4138  0.1557  0.4025
   24MOL    H66 6092   0.142   1.407   0.306 -2.9533 -1.8370  1.9348
   24MOL    C67 6093   0.104   1.417   0.085 -0.4384  0.6035 -0.4068
   24MOL    N68 6094   7.827   1.426   0.000  0.1455 -0.5527 -0.6137
   24MOL    C69 6095   7.766   1.537   7.783  0.4724  0.3464  0.1572
   24MOL    O70 6096   7.806   1.651   7.787  0.2815  0.2351  0.0762
   24MOL    C71 6097   7.646   1.507   7.698  0.3284 -0.3822  0.7148
   24MOL    C72 6098   0.194   1.295   0.051  0.0308  0.6154 -0.2691
   24MOL    H73 6099   0.159   1.507   0.053  1.4238 -0.4661 -0.3024
   24MOL    H74 6100   7.789   1.337   7.811 -0.7264  0.3480 -2.2815
   24MOL    H75 6101   7.663   1.561   7.605  1.9550 -1.4330  0.3832
   24MOL    H76 6102   7.630   1.400   7.683  0.2111 -0.2177 -0.4190
   24MOL    H77 6103   7.569   1.538   7.768  0.8646  0.1406  1.0786
   24MOL    H78 6104   0.130   1.216   0.090 -1.5685  2.3600  0.7078
   24MOL    H79 6105   0.206   1.280   7.784 -0.6992 -0.7778 -0.1635
   24MOL    C80 6106   0.340   1.279   0.105 -0.0008 -0.7136 -0.3392
   24MOL    N81 6107   0.346   1.244   0.246 -0.0833 -0.0925  0.0370
   24MOL    C82 6108   0.323   1.131   0.303  0.1300 -0.0186 -0.2185
   24MOL    O83 6109   0.309   1.025   0.240  0.0500 -0.8299  0.1996
   24MOL    C84 6110   0.330   1.117   0.452  0.5383  0.0808  0.0925
   24MOL    C85 6111   0.423   1.407   0.083  0.1549 -0.7230 -0.1503
   24MOL    H86 6112   0.387   1.200   0.046 -1.0324 -1.3058 -0.3758
   24MOL    H87 6113   0.360   1.325   0.305 -1.5571 -0.0661  0.3767
   24MOL    H88 6114   0.382   1.028   0.488  1.9926  0.7763 -0.2745
   24MOL    H89 6115   0.377   1.206   0.493 -0.7487  0.8002  0.0561
   24MOL    H90 6116   0.226   1.122   0.486  0.5193 -1.0578  0.2363
   24MOL    H91 6117   0.373   1.491   0.131  1.3335  1.0750 -1.9264
   24MOL    H92 6118   0.518   1.392   0.134 -0.3164  0.8240  1.2178
   24MOL    C93 6119   0.450   1.448   7.774  0.3250 -0.8930 -0.7216
   24MOL    N94 6120   0.566   1.380   7.714  0.0985 -0.0357  0.0902
   24MOL    C95 6121   0.562   1.299   7.611 -0.3151 -0.1969  0.0761
   24MOL    O96 6122   0.470   1.287   7.532 -0.0465  0.0858  0.0373
   24MOL    C97 6123   0.684   1.210   7.578 -0.2808 -0.7776 -0.3426
   24MOL    C98 6124   0.476   1.605   7.751  0.2935 -0.4231  0.7776
   24MOL    H99 6125   0.358   1.424   7.721  0.7215 -1.9168 -0.9563
   24MOL   H100 6126   0.657   1.398   7.754 -0.4249 -0.7078  1.6412
   24MOL   H101 6127   0.728   1.240   7.483  0.2853 -0.7045 -0.0604
   24MOL   H102 6128   0.768   1.215   7.647 -0.3029  0.4913 -0.3958
   24MOL   H103 6129   0.649   1.107   7.569 -2.1818 -0.2056  0.3619
   24MOL   H104 6130   0.548   1.646   7.821 -0.6386  2.5249  0.0514
   24MOL   H105 6131   0.500   1.626   7.647  2.8366 -1.1919  1.1893
   24MOL   C106 6132   0.346   1.691   7.770 -0.4366 -0.2954 -0.3660
   24MOL   N107 6133   0.242   1.650   7.675  0.4284 -0.3138  0.7344
   24MOL   C108 6134   0.250   1.653   7.539 -0.2825 -0.7447 -0.5598
   24MOL   O109 6135   0.335   1.717   7.477  0.0081  0.2001 -0.1413
   24MOL   C110 6136   0.131   1.589   7.459  0.9367  1.4660 -0.3185
   24MOL   C111 6137   0.381   1.844   7.773  0.0339 -0.0770  0.2149
   24MOL   H112 6138   0.310   1.655   0.026 -0.1013 -0.3208 -0.2491
   24MOL   H113 6139   0.151   1.624   7.712 -0.8693  1.8224 -0.8780
   24MOL   H114 6140   0.178   1.536   7.376 -0.8569 -3.3776  1.5615
   24MOL   H115 6141   0.076   1.515   7.517  1.0644  0.4531 -1.4626
   24MOL   H116 6142   0.049   1.653   7.425  0.3921 -0.0939 -2.0457
   24MOL   H117 6143   0.463   1.855   0.004 -0.3194  1.8184  0.3732
   24MOL   H118 6144   0.420   1.878   7.677 -0.4392 -3.6776 -1.3337
   24MOL   C119 6145   0.265   1.934   7.825 -0.4944  1.1240  0.1578
   24MOL   N120 6146   0.192   1.874   0.099 -0.6356 -0.1084 -1.0022
   24MOL   C121 6147   0.253   1.842   0.215  0.7152  0.5717 -0.2832
   24MOL   O122 6148   0.373   1.850   0.223  0.0359  0.4586 -0.0111
   24MOL   C123 6149   0.163   1.798   0.328  0.0984 -0.5774 -0.7766
   24MOL   C124 6150   0.163   1.985   7.718 -0.1660  0.1213  0.1372
   24MOL   H125 6151   0.304   2.026   0.030 -3.2927  1.6432  1.6305
   24MOL   H126 6152   0.091   1.877   0.105 -0.4905  0.9764  1.5589
   24MOL   H127 6153   0.184   1.847   0.423  0.6094 -0.8421 -0.7498
   24MOL   H128 6154   0.058   1.799   0.299 -0.5475  1.4596  1.5024
   24MOL   H129 6155   0.186   1.698   0.362  0.5862 -0.3751 -0.5148
   24MOL   H130 6156   0.110   1.898   7.680  0.1989 -0.1856  0.3286
   24MOL   H131 6157   0.084   2.038   7.774 -0.9156  0.3467 -1.1146
   24MOL   C132 6158   0.212   2.080   7.606  0.2210  0.1728 -0.8418
   24MOL   N133 6159   0.271   2.195   7.677 -0.6633  0.2458  0.0891
   24MOL   C134 6160   0.358   2.291   7.638 -0.2270  0.0537  0.0507
   24MOL   O135 6161   0.382   2.321   7.520  0.2428 -0.1335  0.1999
   24MOL   C136 6162   0.416   2.386   7.745 -0.5707  0.0521 -0.3309
   24MOL   C137 6163   0.100   2.120   7.519  0.3470 -0.5268 -0.0647
   24MOL   H138 6164   0.292   2.030   7.552 -1.5589 -1.7088 -1.7921
   24MOL   H139 6165   0.243   2.200   7.774  1.9599 -0.4291  0.9253
   24MOL   H140 6166   0.396   2.489   7.714 -1.6735  0.3505  1.2962
   24MOL   H141 6167   0.369   2.382   0.003 -0.0579 -0.1096 -0.0889
   24MOL   H142 6168   0.525   2.383   7.748 -0.4974  0.9949 -1.3037
   24MOL   H143 6169   0.021   2.158   7.583 -1.5375 -2.2609 -1.3183
   24MOL   H144 6170   0.130   2.208   7.462 -1.4634  0.2204  0.1019
   24MOL   C145 6171   0.040   2.023   7.416  0.0015 -0.0557  0.4794
   24MOL   N146 6172   0.143   1.993   7.317  0.4858 -0.4871  0.1134
   24MOL   C147 6173   0.151   1.888   7.239 -0.1517  0.0955 -0.0036
   24MOL   O148 6174   0.073   1.797   7.244  0.2032  0.2173 -0.5498
   24MOL   C149 6175   0.282   1.880   7.157 -0.4216  0.0938 -0.2858
   24MOL   C150 6176   7.757   2.088   7.341  0.0762 -0.5734 -0.1258
   24MOL   H151 6177   0.002   1.930   7.460  0.2569 -0.3106  0.1684
   24MOL   H152 6178   0.223   2.054   7.312  1.7784 -2.2157 -0.7571
   24MOL   H153 6179   0.351   1.804   7.192  0.7481  1.0700 -0.4573
   24MOL   H154 6180   0.266   1.848   7.054  2.4042  0.1769 -0.7889
   24MOL   H155 6181   0.337   1.974   7.155  0.3972 -0.3960 -1.4814
   24MOL   H156 6182   7.795   2.173   7.284 -2.7348  0.2460 -0.8729
   24MOL   H157 6183   7.729   2.019   7.260 -1.0787 -3.4351  2.6156
   24MOL   C158 6184   7.627   2.116   7.425 -0.1092  0.2355 -0.3856
   24MOL   N159 6185   7.603   1.996   7.496  0.2925 -0.8007 -0.2130
   24MOL   C160 6186   7.581   1.987   7.633  0.7069 -0.5065  0.1834
   24MOL   O161 6187   7.577   2.091   7.702 -0.5627 -0.2623  0.7585
   24MOL   C162 6188   7.553   1.849   7.691 -0.2364 -0.1139  0.0358
   24MOL   C163 6189   7.508   2.164   7.337 -0.5385  0.1642 -0.8269
   24MOL   H164 6190   7.649   2.192   7.499  0.3313  0.5048 -0.7878
   24MOL   H165 6191   7.574   1.913   7.446  2.5331 -2.0751  0.5709
   24MOL   H166 6192   7.605   1.777   7.627 -0.0955 -1.3506  1.5022
   24MOL   H167 6193   7.606   1.842   7.787 -2.2127 -2.0914  1.0340
   24MOL   H168 6194   7.446   1.836   7.707 -0.1383  1.1072  1.9756
   24MOL   H169 6195   7.550   2.246   7.278  0.0277 -0.3173 -1.0881
   24MOL   H170 6196   7.475   2.101   7.255  1.6770  0.6949 -2.1534
   24MOL   C171 6197   7.382   2.210   7.423  0.0355  0.3356 -0.4229
   24MOL   N172 6198   7.273   2.113   7.386  0.0565  0.2015 -0.2789
   24MOL   C173 6199   7.161   2.097   7.450 -0.2851 -0.0009  0.6078
   24MOL   O174 6200   7.120   2.161   7.544 -0.1047 -0.0721 -0.0376
   24MOL   C175 6201   7.079   1.988   7.389 -0.5276  0.0660  0.3253
   24MOL   C176 6202   7.336   2.358   7.387  0.2465 -0.7022 -0.8618
   24MOL   H177 6203   7.403   2.208   7.530 -0.5408 -2.0884 -0.3250
   24MOL   H178 6204   7.292   2.053   7.307  0.1186  0.5326 -0.5172
   24MOL   H179 6205   7.061   2.010   7.284  0.5927 -1.4403 -0.1964
   24MOL   H180 6206   7.133   1.894   7.395 -2.4193 -1.1127 -0.5422
   24MOL   H181 6207   6.975   1.984   7.421 -0.2542 -2.3946  0.9783
   24MOL   H182 6208   7.328   2.364   7.279 -0.5839  0.0782 -0.7667
   24MOL   H183 6209   7.233   2.367   7.423  0.3937  1.5090 -0.9128
   24MOL   C184 6210   7.411   2.483   7.443 -0.4368 -0.1188  0.6893
   24MOL   N185 6211   7.342   2.605   7.409  0.0721  0.0649 -0.0516
   24MOL   C186 6212   7.307   2.703   7.493  0.1683  0.8364 -0.0984
   24MOL   O187 6213   7.325   2.705   7.612  0.3827 -0.0966 -0.2075
   24MOL   C188 6214   7.223   2.814   7.428  0.0216 -0.3304  0.0561
   24MOL   C189 6215   7.562   2.482   7.412 -0.2317  0.0470 -0.3741
   24MOL   H190 6216   7.402   2.473   7.551 -0.8786  0.6166  0.7197
   24MOL   H191 6217   7.306   2.620   7.316 -0.4918 -0.2080  0.1190
   24MOL   H192 6218   7.188   2.784   7.329  3.2204  0.5824 -1.4393
   24MOL   H193 6219   7.148   2.869   7.485  0.4012 -1.0072  1.2141
   24MOL   H194 6220   7.302   2.886   7.404  0.8732 -0.9407  1.0045
   24MOL   H195 6221   7.611   2.397   7.460  0.3060  0.4464 -0.2131
   24MOL   H196 6222   7.584   2.470   7.306  0.8608 -1.9478  0.0454
   24MOL   C197 6223   7.646   2.604   7.474 -0.0125  0.4814 -0.6366
   24MOL   N198 6224   7.781   2.618   7.414  0.3451 -0.0531  0.3652
   24MOL   C199 6225   0.037   2.539   7.374 -0.1870 -0.5622 -0.0275
   24MOL   O200 6226   0.030   2.420   7.370 -0.5341 -0.5024 -0.1092
   24MOL   C201 6227   0.169   2.609   7.340  0.2538 -0.1266 -0.0473
   24MOL   C202 6228   7.654   2.604   7.629 -0.0517  0.4395 -0.6581
   24MOL   H203 6229   7.601   2.701   7.453 -1.3070  0.4835  1.9572
   24MOL   H204 6230   7.810   2.714   7.397  1.0393  0.0027  1.8209
   24MOL   H205 6231   0.166   2.718   7.345  2.0944 -0.1233  1.4395
   24MOL   H206 6232   0.246   2.570   7.407  0.4198  0.2154 -0.0363
   24MOL   H207 6233   0.192   2.576   7.239  2.1190  0.2059  0.2393
   24MOL   H208 6234   7.557   2.588   7.676 -0.6004  1.2658 -1.4992
   24MOL   H209 6235   7.725   2.527   7.658  0.6763  0.3858 -2.5150
   24MOL   C210 6236   7.703   2.737   7.691  0.4881  0.3378  0.5464
   24MOL   N211 6237   7.839   2.770   7.657  0.6337 -0.2331  0.0070
   24MOL   C212 6238   0.115   2.731   7.713  1.1509 -0.1612 -0.8229
   24MOL   O213 6239   0.119   2.678   7.830 -0.1489 -0.2025  0.0789
   24MOL   C214 6240   0.251   2.777   7.651  0.1738  0.7005  0.2874
   24MOL   C215 6241   7.664   2.759   0.011 -0.1441  0.1419 -0.3013
   24MOL   H216 6242   7.647   2.813   7.637  0.5651  1.9869  2.7366
   24MOL   H217 6243   0.008   2.814   7.566  0.8984  0.4313  0.3548
   24MOL   H218 6244   0.278   2.879   7.674 -0.9865  0.5393  2.4242
   24MOL   H219 6245   0.330   2.712   7.688 -0.0862  0.0999 -0.1948
   24MOL   H220 6246   0.252   2.767   7.542 -0.8603 -0.5907  0.3841
   24MOL   H221 6247   7.674   2.656   0.047  1.4900 -0.6862 -2.9869
   24MOL   H222 6248   7.743   2.801   0.073  2.0101  0.5353 -3.2589
   24MOL   C223 6249   7.526   2.823   0.046 -0.4880 -0.4117 -0.6500
   24MOL   N224 6250   7.422   2.716   0.021  0.3648 -0.1809 -0.4003
   24MOL   C225 6251   7.343   2.673   0.123  1.1833  0.7891 -0.3485
   24MOL   O226 6252   7.368   2.677   0.243  0.0269  0.5925  0.5398
   24MOL   C227 6253   7.221   2.595   0.090 -0.4356 -0.7028 -0.0465
   24MOL   C228 6254   7.496   2.954   7.800 -0.4176 -0.4142  0.0477
   24MOL   H229 6255   7.538   2.846   0.152  1.9164  0.0690 -1.0027
   24MOL   H230 6256   7.388   2.715   7.765  0.6399  5.6176 -0.7761
   24MOL   H231 6257   7.256   2.500   0.051  1.7198 -0.4709  1.2014
   24MOL   H232 6258   7.175   2.567   0.185  1.3415  2.3290  1.8244
   24MOL   H233 6259   7.154   2.648   0.023 -0.0221 -1.2731 -0.9166
   24MOL   H234 6260   7.590   3.002   7.774 -1.1635  0.7611 -0.4921
   24MOL   H235 6261   7.460   2.918   7.704  0.0802 -0.4171 -0.1394
   24MOL   C236 6262   7.403   3.063   0.018  0.2397 -0.6496  0.7654
   24MOL   N237 6263   7.466   3.110   0.140 -0.4073  0.9829  0.0708
   24MOL   C238 6264   7.549   3.211   0.141  0.4471  0.4339 -0.6569
   24MOL   O239 6265   7.579   3.272   0.037  0.1312 -0.0374 -0.2320
   24MOL   C240 6266   7.598   3.267   0.280  0.2460  0.5106  0.0608
   24MOL   C241 6267   7.254   3.025   0.041 -0.4291  0.3995 -0.1028
   24MOL   H242 6268   7.406   3.143   7.783 -3.8364 -1.1631 -0.0625
   24MOL   H243 6269   7.449   3.073   0.232 -1.4665  0.8072 -0.1852
   24MOL   H244 6270   7.523   3.285   0.357 -0.2231  1.3968 -0.5843
   24MOL   H245 6271   7.681   3.212   0.323  2.7807  2.9419 -1.5554
   24MOL   H246 6272   7.650   3.359   0.255  1.1883  0.5180  1.9828
   24MOL   H247 6273   7.223   2.953   7.805  1.9923 -2.8984  1.9292
   24MOL   H248 6274   7.243   2.982   0.140 -0.8732  0.6012 -0.0596
   24MOL   C249 6275   7.153   3.145   0.024  0.1270  0.2779 -0.5356
   24MOL   N250 6276   7.016   3.098   0.044 -0.0225  0.0730 -0.3538
   24MOL   C251 6277   6.962   3.086   0.169 -0.1853 -0.6816  0.0757
   24MOL   O252 6278   7.017   3.124   0.273 -0.2704  0.4248 -0.3974
   24MOL   C253 6279   6.819   3.035   0.178  0.2044  0.5323 -0.2066
   24MOL   C254 6280   7.149   3.207   7.723  0.6727  0.0275  0.1958
   24MOL   H255 6281   7.172   3.217   0.103 -0.3352 -0.6320  0.4214
   24MOL   H256 6282   6.952   3.093   7.806 -1.4104  0.1704  0.7642
   24MOL   H257 6283   6.761   3.092   0.105  1.0419  0.2792 -1.0917
   24MOL   H258 6284   6.822   2.930   0.149  2.1072  0.5798 -0.2374
   24MOL   H259 6285   6.777   3.051   0.277 -0.5882  0.9201 -0.6089
   24MOL   H260 6286   7.248   3.242   7.694 -0.7539  0.8178 -4.0561
   24MOL   H261 6287   7.116   3.142   7.642  2.2539  0.8437 -1.1522
   24MOL   H262 6288   7.084   3.294   7.720 -0.9021 -1.1720 -1.7281
   25MOL     C1 6289   5.264   7.176   5.042  0.5459  0.1146  0.3118
   25MOL     N2 6290   5.259   7.296   5.123  0.4427 -0.2025 -0.1619
   25MOL     C3 6291   5.365   7.347   5.183  0.0454  0.2122 -0.1377
   25MOL     O4 6292   5.473   7.295   5.174 -0.1267 -0.6739 -0.3301
   25MOL     C5 6293   5.348   7.467   5.275 -0.1765 -0.0868  0.2845
   25MOL     C6 6294   5.173   7.205   4.923  0.5991 -0.5047 -0.1109
   25MOL     H7 6295   5.366   7.148   5.016  0.0357  0.2514 -1.9535
   25MOL     H8 6296   5.170   7.343   5.133 -0.7428 -2.4420  0.2129
   25MOL     H9 6297   5.385   7.442   5.374 -0.1554  3.9424  1.3788
   25MOL    H10 6298   5.406   7.550   5.232 -1.7659  1.2427  0.6442
   25MOL    H11 6299   5.243   7.495   5.279 -0.5892 -1.6383  0.3219
   25MOL    H12 6300   5.081   7.254   4.956  2.8595  1.2032  4.1270
   25MOL    H13 6301   5.216   7.290   4.870 -0.9230  1.6939  2.0721
   25MOL    H14 6302   5.214   7.100   5.102  0.3979 -1.3097 -1.5766
   25MOL    C15 6303   5.151   7.079   4.837 -0.0895  0.4074 -0.2389
   25MOL    N16 6304   5.274   7.014   4.779 -0.3014  0.0601  0.2228
   25MOL    C17 6305   5.319   6.890   4.817  0.1426 -0.5162  0.0770
   25MOL    O18 6306   5.251   6.815   4.885 -0.0424  0.2543 -0.3072
   25MOL    C19 6307   5.463   6.855   4.780  0.1569 -0.4121 -0.5146
   25MOL    C20 6308   5.039   7.103   4.732  0.6334 -0.2012  0.5536
   25MOL    H21 6309   5.111   7.006   4.908 -1.8506 -2.5845 -4.0373
   25MOL    H22 6310   5.333   7.070   4.720 -0.5521  1.8810  1.6610
   25MOL    H23 6311   5.519   6.804   4.859  0.5041 -0.3118 -0.6958
   25MOL    H24 6312   5.455   6.795   4.690  1.1442 -1.5634  0.1480
   25MOL    H25 6313   5.518   6.945   4.753  2.1179 -1.4852 -0.1363
   25MOL    H26 6314   4.957   7.161   4.776  0.3891 -0.4411  0.4137
   25MOL    H27 6315   5.076   7.180   4.664  3.3009 -1.3154  0.7050
   25MOL    C28 6316   4.977   6.986   4.653 -0.0042  0.9384  0.2667
   25MOL    N29 6317   4.875   7.037   4.564 -0.2041 -0.1753  0.7086
   25MOL    C30 6318   4.902   7.079   4.438  0.1850 -0.4023  0.2312
   25MOL    O31 6319   5.014   7.064   4.396  0.1601 -0.2220 -0.3552
   25MOL    C32 6320   4.800   7.157   4.369 -0.6392  0.1421 -0.0401
   25MOL    C33 6321   4.925   6.870   4.742 -0.6743 -0.6838  0.1918
   25MOL    H34 6322   5.052   6.935   4.592 -2.1912  0.3333 -2.0150
   25MOL    H35 6323   4.779   7.040   4.595 -1.5052  1.1723 -3.2131
   25MOL    H36 6324   4.858   7.219   4.300 -0.3569  0.7997  0.7745
   25MOL    H37 6325   4.728   7.102   4.309 -2.0397  2.1855 -0.2999
   25MOL    H38 6326   4.751   7.220   4.443 -0.3474  0.4284 -0.0854
   25MOL    H39 6327   4.880   6.795   4.677  1.0917 -2.6873  1.2188
   25MOL    H40 6328   5.013   6.819   4.781 -0.5025 -1.1977 -0.8536
   25MOL    C41 6329   4.826   6.902   4.857 -0.8725  0.1358  0.4740
   25MOL    N42 6330   4.881   6.862   4.987  0.2558  0.1368  0.1671
   25MOL    C43 6331   4.905   6.934   5.095 -0.6482  0.2031  0.5308
   25MOL    O44 6332   4.895   7.057   5.092  0.0156  0.4564  0.1763
   25MOL    C45 6333   4.945   6.861   5.230  0.4374 -0.2129  0.3002
   25MOL    C46 6334   4.696   6.818   4.838  0.5011  0.2544 -0.4832
   25MOL    H47 6335   4.803   7.008   4.853  0.7580  0.5146  0.7211
   25MOL    H48 6336   4.885   6.762   4.994  1.4135  0.1745  0.1662
   25MOL    H49 6337   4.919   6.925   5.314 -0.7340 -0.6619  0.2774
   25MOL    H50 6338   4.898   6.767   5.258  2.0735 -0.8995  0.8407
   25MOL    H51 6339   5.051   6.836   5.223  0.6007  1.1219 -2.4241
   25MOL    H52 6340   4.725   6.715   4.819 -0.5620 -0.1796  0.1999
   25MOL    H53 6341   4.628   6.818   4.924  0.9310  1.2391 -0.1351
   25MOL    C54 6342   4.610   6.852   4.713  0.0902 -0.1208  0.0376
   25MOL    N55 6343   4.507   6.947   4.749 -0.2133  0.5938  0.3417
   25MOL    C56 6344   4.511   7.080   4.722  0.3606  0.4411  0.5549
   25MOL    O57 6345   4.607   7.134   4.673 -0.4762 -0.4012 -0.1286
   25MOL    C58 6346   4.378   7.152   4.753 -0.2668 -0.0457  0.4495
   25MOL    C59 6347   4.545   6.721   4.676  0.5929  0.1998 -0.4905
   25MOL    H60 6348   4.675   6.896   4.637 -1.1725  2.4832  0.4057
   25MOL    H61 6349   4.419   6.911   4.782  0.7374 -3.0460 -0.9022
   25MOL    H62 6350   4.314   7.172   4.667  2.1085  1.3579 -1.0448
   25MOL    H63 6351   4.318   7.083   4.812  0.7632 -1.5160 -0.1681
   25MOL    H64 6352   4.407   7.241   4.808  0.4949  1.2294 -1.9023
   25MOL    H65 6353   4.619   6.647   4.647 -0.0007 -0.3771 -0.5456
   25MOL    H66 6354   4.486   6.675   4.755 -1.0828  2.5687 -0.3107
   25MOL    C67 6355   4.451   6.738   4.551  0.7349  0.1904  0.0933
   25MOL    N68 6356   4.359   6.625   4.545  0.0192  0.7384  0.0228
   25MOL    C69 6357   4.224   6.639   4.560 -0.3226 -0.6308  0.8281
   25MOL    O70 6358   4.179   6.747   4.605  0.0730  0.4267  0.2629
   25MOL    C71 6359   4.134   6.528   4.515  0.7371 -0.0246  0.0919
   25MOL    C72 6360   4.534   6.757   4.421 -0.0792 -0.6892 -0.6903
   25MOL    H73 6361   4.393   6.829   4.564 -2.1445 -1.6778  0.7512
   25MOL    H74 6362   4.390   6.542   4.496  2.3240  2.0680 -0.8645
   25MOL    H75 6363   4.030   6.561   4.517  0.7351  0.1101 -1.5171
   25MOL    H76 6364   4.163   6.508   4.412 -2.2619 -1.4199 -0.5489
   25MOL    H77 6365   4.157   6.437   4.571 -0.3150 -0.2656  0.1529
   25MOL    H78 6366   4.593   6.849   4.426 -0.3884 -0.5045 -0.3820
   25MOL    H79 6367   4.610   6.679   4.420  0.4421 -0.1824 -3.6316
   25MOL    C80 6368   4.439   6.751   4.298  0.1160 -0.3812  0.2256
   25MOL    N81 6369   4.490   6.646   4.207 -0.4044  0.3232 -0.4504
   25MOL    C82 6370   4.421   6.604   4.101  0.3293 -0.2063 -0.5919
   25MOL    O83 6371   4.318   6.657   4.060  0.1722  0.0819 -0.2682
   25MOL    C84 6372   4.472   6.477   4.028 -0.0608 -0.7249 -0.2599
   25MOL    C85 6373   4.425   6.886   4.240  0.0918 -0.1872 -0.3142
   25MOL    H86 6374   4.332   6.735   4.316 -0.1585  1.1935  0.0903
   25MOL    H87 6375   4.574   6.597   4.235  0.6662  2.2373 -0.2015
   25MOL    H88 6376   4.555   6.509   3.965 -2.2794  1.3655 -2.2536
   25MOL    H89 6377   4.501   6.406   4.105  3.9160 -1.1130 -1.9712
   25MOL    H90 6378   4.388   6.431   3.977  0.0611  0.7289 -1.8379
   25MOL    H91 6379   4.515   6.909   4.183 -1.6484  0.2311 -2.9892
   25MOL    H92 6380   4.352   6.877   4.158  1.3406  2.3623 -1.7885
   25MOL    C93 6381   4.371   7.001   4.326  0.0095 -0.0169 -0.2205
   25MOL    N94 6382   4.236   6.993   4.371 -0.6950 -0.1168  0.1928
   25MOL    C95 6383   4.119   6.994   4.300 -0.6528 -0.4754  0.0131
   25MOL    O96 6384   4.109   7.000   4.174 -0.0376 -0.1241  0.1841
   25MOL    C97 6385   3.979   6.986   4.378 -0.5870  0.3551  0.5264
   25MOL    C98 6386   4.405   7.139   4.270  0.5811  0.5688 -0.1554
   25MOL    H99 6387   4.429   6.994   4.418  0.0675 -0.7866 -0.3054
   25MOL   H100 6388   4.220   6.974   4.469 -0.5246 -0.5760  0.1311
   25MOL   H101 6389   3.920   7.070   4.342  0.6845  0.7673 -0.6131
   25MOL   H102 6390   3.923   6.897   4.350  0.0941  0.4109 -1.0186
   25MOL   H103 6391   3.986   6.987   4.487  1.3892 -3.8149  0.5442
   25MOL   H104 6392   4.512   7.133   4.255  0.4795 -2.3548 -0.0557
   25MOL   H105 6393   4.374   7.140   4.165  0.6636 -1.1146 -0.2088
   25MOL   C106 6394   4.374   7.270   4.347  0.0111 -0.4809  0.4922
   25MOL   N107 6395   4.253   7.320   4.304  0.8227  0.1332 -0.1523
   25MOL   C108 6396   4.141   7.329   4.375  0.0845  0.1709  0.1999
   25MOL   O109 6397   4.129   7.300   4.493  0.4256  0.0052 -0.1508
   25MOL   C110 6398   4.015   7.365   4.302 -0.0909  0.2103  0.1380
   25MOL   C111 6399   4.490   7.371   4.335  0.1421 -0.2515  0.9507
   25MOL   H112 6400   4.366   7.240   4.452 -1.1450 -0.9616  0.2669
   25MOL   H113 6401   4.252   7.350   4.207 -1.0617 -1.7102 -0.7413
   25MOL   H114 6402   3.935   7.325   4.364 -0.2755  0.4306  0.0422
   25MOL   H115 6403   4.011   7.473   4.287 -2.0938 -0.1285 -1.9701
   25MOL   H116 6404   4.011   7.314   4.207  1.3428 -0.1681  0.2710
   25MOL   H117 6405   4.586   7.325   4.356  0.3712 -1.3741 -2.2201
   25MOL   H118 6406   4.493   7.398   4.229  1.1236 -3.1420  0.1997
   25MOL   C119 6407   4.474   7.502   4.409  0.3119 -1.2877 -0.2799
   25MOL   N120 6408   4.586   7.602   4.376 -0.3615  0.0720  0.0066
   25MOL   C121 6409   4.564   7.723   4.332  0.6871  0.5034 -0.2519
   25MOL   O122 6410   4.451   7.766   4.327 -0.4600 -0.1472  0.4698
   25MOL   C123 6411   4.690   7.803   4.283  0.1409 -0.1736  0.1666
   25MOL   C124 6412   4.471   7.493   4.561  0.2743  0.4411 -0.1734
   25MOL   H125 6413   4.373   7.530   4.379  0.6333  1.4197  1.0150
   25MOL   H126 6414   4.682   7.577   4.395 -0.0304  0.5848 -0.9645
   25MOL   H127 6415   4.665   0.068   4.270 -2.8773 -0.5759  2.2561
   25MOL   H128 6416   4.780   7.788   4.343  1.3933 -0.2765 -1.6894
   25MOL   H129 6417   4.710   7.790   4.177 -0.7935  1.0077 -0.1629
   25MOL   H130 6418   4.389   7.425   4.585  0.3229 -0.4052 -2.3425
   25MOL   H131 6419   4.571   7.456   4.587  0.3114 -1.4038 -2.8164
   25MOL   C132 6420   4.439   7.629   4.637  0.2686 -0.1311 -0.5111
   25MOL   N133 6421   4.448   7.611   4.777  0.3498  0.1379 -0.0218
   25MOL   C134 6422   4.565   7.619   4.842  0.1062  1.2187  0.2013
   25MOL   O135 6423   4.673   7.636   4.795  0.0799  0.5904  0.1152
   25MOL   C136 6424   4.553   7.603   4.993 -0.2089 -0.0778 -0.5508
   25MOL   C137 6425   4.299   7.693   4.600 -0.4337  0.0935 -0.7829
   25MOL   H138 6426   4.513   7.705   4.614 -0.7899  1.1055  0.0991
   25MOL   H139 6427   4.370   7.582   4.834  1.7083 -0.4025  1.6209
   25MOL   H140 6428   4.645   7.551   5.023  1.5292  3.6815  1.0090
   25MOL   H141 6429   4.537   7.698   5.044 -0.1366 -0.3666  0.0127
   25MOL   H142 6430   4.468   7.540   5.018 -0.4526 -0.0049 -1.1898
   25MOL   H143 6431   4.289   7.705   4.492  1.3462 -0.7778 -1.0665
   25MOL   H144 6432   4.219   7.621   4.618 -0.3838  0.7158  2.2790
   25MOL   C145 6433   4.263   7.831   4.657  0.4556  0.5097  0.8486
   25MOL   N146 6434   4.342   0.101   4.597  0.0530 -0.1789 -0.2954
   25MOL   C147 6435   4.453   0.156   4.644 -0.2901 -0.0499 -1.0153
   25MOL   O148 6436   4.519   0.113   4.740  0.5744  0.1412  0.0610
   25MOL   C149 6437   4.507   0.271   4.564  0.0949 -0.2821 -0.3542
   25MOL   C150 6438   4.238   0.012   4.816 -0.7730  1.0785  0.7401
   25MOL   H151 6439   4.168   0.019   4.612  1.4491  0.6961 -1.1588
   25MOL   H152 6440   4.304   0.139   4.511 -1.4942  0.4172  0.6294
   25MOL   H153 6441   4.431   0.349   4.552 -1.1882 -1.5422 -0.6316
   25MOL   H154 6442   4.591   0.313   4.618  0.3840  1.3716 -2.0593
   25MOL   H155 6443   4.560   0.244   4.473  0.6600  1.1456 -0.4589
   25MOL   H156 6444   4.334   7.836   4.865 -1.2832 -0.0058  1.4103
   25MOL   H157 6445   4.228   0.119   4.834  3.7027  1.5732  0.9241
   25MOL   C158 6446   4.134   7.758   4.874  0.0589  0.3782  0.2647
   25MOL   N159 6447   3.997   7.792   4.850 -0.2204  0.1466 -0.5877
   25MOL   C160 6448   3.925   7.774   4.733  0.0236  1.1443  0.0016
   25MOL   O161 6449   3.974   7.709   4.636 -0.3261  0.2364  0.0849
   25MOL   C162 6450   3.792   0.010   4.726 -0.0016 -0.1371 -0.0018
   25MOL   C163 6451   4.170   7.744   5.022  0.5274 -0.1755  0.0600
   25MOL   H164 6452   4.151   7.660   4.829  0.4056  1.0629 -1.1102
   25MOL   H165 6453   3.950   0.005   4.921  2.5736  3.2191 -0.8952
   25MOL   H166 6454   3.795   0.112   4.688 -1.4291  0.9872  2.7819
   25MOL   H167 6455   3.721   7.787   4.671 -0.7854  1.4561 -0.8521
   25MOL   H168 6456   3.746   0.025   4.823  1.2129  1.1265  0.3866
   25MOL   H169 6457   4.104   7.670   5.068  2.7728  0.1039  4.0182
   25MOL   H170 6458   4.272   7.707   5.034  0.8367 -0.3299 -2.7560
   25MOL   C171 6459   4.154   0.020   5.115 -0.0268 -0.5502  0.3120
   25MOL   N172 6460   4.249   0.026   5.228 -0.0750  0.5504 -0.1947
   25MOL   C173 6461   4.312   0.128   5.281 -0.0385  0.0760  0.3955
   25MOL   O174 6462   4.272   0.244   5.265  0.3279 -0.3187 -0.4619
   25MOL   C175 6463   4.434   0.097   5.367 -0.2380 -0.0017  0.3234
   25MOL   C176 6464   4.009   0.040   5.175 -0.1706 -0.6295 -0.3686
   25MOL   H177 6465   4.179   0.110   5.059 -0.1880 -2.0845 -2.3077
   25MOL   H178 6466   4.276   7.776   5.265 -2.7711  0.6783  2.2140
   25MOL   H179 6467   4.445   7.831   5.344 -3.0323 -0.2138 -0.1771
   25MOL   H180 6468   4.505   0.152   5.305  0.1907  1.2483  1.8806
   25MOL   H181 6469   4.434   0.124   5.472 -0.0646 -0.1247  0.3549
   25MOL   H182 6470   3.941   7.838   5.102 -0.4379  0.1495 -0.5734
   25MOL   H183 6471   4.010   7.821   5.267 -0.7310  0.2002  0.1740
   25MOL   C184 6472   3.953   0.187   5.189 -0.4796  0.2243 -0.3390
   25MOL   N185 6473   3.819   0.175   5.250  0.0003 -0.4380 -0.0287
   25MOL   C186 6474   3.760   0.253   5.345 -0.0173 -0.7706 -0.3993
   25MOL   O187 6475   3.806   0.354   5.406 -0.2334  0.1005  0.4069
   25MOL   C188 6476   3.614   0.209   5.377 -0.4053  0.1814 -0.3844
   25MOL   C189 6477   3.931   0.254   5.050 -0.7437 -0.0378  0.3973
   25MOL   H190 6478   4.022   0.250   5.245 -0.6017 -0.6385  0.7790
   25MOL   H191 6479   3.760   0.103   5.211 -0.6021  1.2626 -2.4288
   25MOL   H192 6480   3.603   0.176   5.480 -1.6755  1.1326 -0.2101
   25MOL   H193 6481   3.534   0.278   5.352 -2.2728 -2.2075 -1.1813
   25MOL   H194 6482   3.590   0.116   5.326 -2.1308  1.2477 -1.5709
   25MOL   H195 6483   3.974   0.187   4.975  0.7623 -2.9466  3.7380
   25MOL   H196 6484   3.831   0.238   5.011 -0.1125 -0.5385 -1.0639
   25MOL   C197 6485   3.964   0.408   5.028 -0.2343 -0.1761 -0.1897
   25MOL   N198 6486   3.867   0.480   4.945  0.4645  0.7698 -0.8012
   25MOL   C199 6487   3.810   0.442   4.828 -0.0644  0.5278  0.2600
   25MOL   O200 6488   3.829   0.332   4.783  0.1214 -0.0424  0.0022
   25MOL   C201 6489   3.731   0.548   4.757  0.5217 -0.3648 -0.5540
   25MOL   C202 6490   4.112   0.436   4.986  0.1965  0.1939  0.5053
   25MOL   H203 6491   3.951   0.448   5.129 -1.5196 -1.7366  0.2873
   25MOL   H204 6492   3.843   0.570   4.986 -0.5393  1.4598 -2.8338
   25MOL   H205 6493   3.661   0.484   4.703  1.1763 -1.8736  0.3464
   25MOL   H206 6494   3.693   0.623   4.826  0.5233 -0.1508 -0.7858
   25MOL   H207 6495   3.797   0.593   4.683  0.7280  1.6994  0.8352
   25MOL   H208 6496   4.176   0.387   5.058 -0.3283 -2.2509 -0.6530
   25MOL   H209 6497   4.137   0.393   4.889 -2.1517  0.1810 -0.1353
   25MOL   C210 6498   4.147   0.589   4.959  0.3751 -0.0575 -1.0977
   25MOL   N211 6499   4.283   0.593   4.905 -0.2432  0.0111 -0.2841
   25MOL   C212 6500   4.326   0.618   4.777  0.7749 -0.3722  0.4340
   25MOL   O213 6501   4.246   0.631   4.685 -0.1525 -0.1612  0.1940
   25MOL   C214 6502   4.477   0.616   4.750 -0.0065  0.2410  0.0073
   25MOL   C215 6503   4.135   0.673   5.088  0.1301 -0.0605 -0.5687
   25MOL   H216 6504   4.077   0.633   4.888 -0.9669 -1.0653 -0.4201
   25MOL   H217 6505   4.364   0.568   4.960 -1.0854 -1.6071  0.2537
   25MOL   H218 6506   4.516   0.672   4.835 -0.3423  2.3784 -1.2037
   25MOL   H219 6507   4.509   0.512   4.744  0.5570  0.5393 -2.5570
   25MOL   H220 6508   4.495   0.667   4.655  2.0064  1.2241  0.8842
   25MOL   H221 6509   4.028   0.669   5.108 -0.1136  1.1616 -1.5535
   25MOL   H222 6510   4.203   0.639   5.166 -1.1459  0.2261  0.6944
   25MOL   C223 6511   4.179   0.824   5.063 -0.1957  0.5871 -0.0075
   25MOL   N224 6512   4.180   0.896   5.190  0.2993 -0.8270 -0.0244
   25MOL   C225 6513   4.282   0.890   5.281 -1.1131 -0.5561 -0.4521
   25MOL   O226 6514   4.364   0.800   5.286 -0.2643 -0.0315 -0.3778
   25MOL   C227 6515   4.285   1.008   5.381 -0.3037  0.7495 -1.0109
   25MOL   C228 6516   4.091   0.894   4.950 -0.3494  0.5172  0.0702
   25MOL   H229 6517   4.283   0.830   5.030 -0.0572  0.4066  0.3972
   25MOL   H230 6518   4.121   0.978   5.193 -0.4005 -1.2231 -2.0587
   25MOL   H231 6519   4.343   1.000   5.473 -2.6942  2.2149  0.6730
   25MOL   H232 6520   4.329   1.090   5.324  1.5501 -1.4474 -2.8487
   25MOL   H233 6521   4.186   1.042   5.410  0.9313  2.0046  1.8834
   25MOL   H234 6522   4.098   0.841   4.855 -1.1817 -0.2892  0.4446
   25MOL   H235 6523   3.989   0.885   4.988 -0.6795  0.0589 -0.9165
   25MOL   C236 6524   4.135   1.033   4.924 -0.6167 -0.1776  0.3027
   25MOL   N237 6525   4.026   1.135   4.941  0.5081 -0.1549 -0.4712
   25MOL   C238 6526   3.993   1.190   5.061 -0.6166  0.2202 -0.2893
   25MOL   O239 6527   4.057   1.164   5.162  0.1993  0.4704  0.0449
   25MOL   C240 6528   3.909   1.318   5.073 -0.0506 -0.7301  0.7383
   25MOL   C241 6529   4.186   1.049   4.781  0.3147 -0.7229 -0.3498
   25MOL   H242 6530   4.222   1.064   4.981 -1.2156  2.8726 -0.3320
   25MOL   H243 6531   3.992   1.181   4.858 -2.5766  0.3923  1.0155
   25MOL   H244 6532   3.972   1.404   5.094 -1.0560  0.3406 -0.5226
   25MOL   H245 6533   3.846   1.335   4.985 -1.4979 -2.7842  1.3398
   25MOL   H246 6534   3.833   1.304   5.149 -0.8761  1.4466  0.3502
   25MOL   H247 6535   4.115   1.016   4.705 -2.2001 -2.1620  2.5152
   25MOL   H248 6536   4.186   1.153   4.748  2.0880 -1.1219 -1.6391
   25MOL   C249 6537   4.323   0.983   4.747  0.1431 -0.1344  0.1475
   25MOL   N250 6538   4.429   1.082   4.765  0.0173  0.4552  0.0616
   25MOL   C251 6539   4.557   1.052   4.798  0.6601  0.2202  0.4829
   25MOL   O252 6540   4.602   0.934   4.785 -0.1547  0.0085  0.4606
   25MOL   C253 6541   4.645   1.165   4.826  0.4173  0.4919  0.1112
   25MOL   C254 6542   4.338   0.926   4.604 -0.0077  0.9798 -0.1940
   25MOL   H255 6543   4.342   0.899   4.814 -1.1497 -0.5672 -0.0137
   25MOL   H256 6544   4.405   1.179   4.753 -0.0669  0.3746 -0.4192
   25MOL   H257 6545   4.742   1.154   4.778  0.3540  2.3028 -0.4776
   25MOL   H258 6546   4.611   1.260   4.785  1.6585  0.5144 -0.8893
   25MOL   H259 6547   4.660   1.179   4.933 -2.0192  0.2819  0.5147
   25MOL   H260 6548   4.344   1.002   4.526 -0.4636 -0.1840 -1.3692
   25MOL   H261 6549   4.431   0.869   4.606 -1.3870 -1.4583 -3.0062
   25MOL   H262 6550   4.256   0.862   4.571  0.3414  0.7126 -0.5516
   26MOL     C1 6551   3.894   6.317   5.587 -0.9182  0.0624  0.1266
   26MOL     N2 6552   3.979   6.210   5.640  0.1737  0.0385  0.2586
   26MOL     C3 6553   3.978   6.137   5.759  0.4037  0.3507  0.6073
   26MOL     O4 6554   3.898   6.157   5.843  0.0772  0.3284  0.0217
   26MOL     C5 6555   4.080   6.028   5.763 -0.1313  0.6374 -0.3011
   26MOL     C6 6556   3.762   6.254   5.558  0.6050 -0.1226 -0.3199
   26MOL     H7 6557   3.895   6.408   5.647 -0.4800 -1.0685  1.8520
   26MOL     H8 6558   4.052   6.172   5.580 -2.2045 -1.4990 -1.7942
   26MOL     H9 6559   4.122   6.003   5.666 -0.0140 -0.2779 -0.0181
   26MOL    H10 6560   4.161   6.063   5.828 -0.6242  2.3833 -0.6110
   26MOL    H11 6561   4.031   5.939   5.802 -0.7914  0.4789 -1.4754
   26MOL    H12 6562   3.771   6.153   5.517  2.2883 -0.1847  0.1542
   26MOL    H13 6563   3.723   6.240   5.659 -0.2758  1.1762 -0.4710
   26MOL    H14 6564   3.951   6.341   5.497  0.5297  1.8998  1.5120
   26MOL    C15 6565   3.670   6.332   5.459 -0.3247  0.4785  0.8339
   26MOL    N16 6566   3.746   6.381   5.346 -0.2531  0.4024 -0.0963
   26MOL    C17 6567   3.755   6.330   5.224 -0.1787  0.5213  0.3818
   26MOL    O18 6568   3.690   6.235   5.184 -0.2561  0.4052 -0.0291
   26MOL    C19 6569   3.846   6.409   5.121  0.2825  0.4134  0.3187
   26MOL    C20 6570   3.599   6.455   5.530  0.3708 -0.0968 -0.1764
   26MOL    H21 6571   3.591   6.266   5.423 -0.6586  1.4848 -0.3200
   26MOL    H22 6572   3.785   6.473   5.358  1.6878 -0.6066  1.5349
   26MOL    H23 6573   3.806   6.379   5.024  0.3601 -0.4158  0.5385
   26MOL    H24 6574   3.852   6.515   5.146  0.2043  0.9862 -1.9771
   26MOL    H25 6575   3.946   6.365   5.126 -0.1680 -0.4062  3.4002
   26MOL    H26 6576   3.545   6.413   5.615 -0.8993  0.8636 -0.4781
   26MOL    H27 6577   3.675   6.524   5.566 -1.6108  1.8490  0.3826
   26MOL    C28 6578   3.501   6.546   5.451 -0.4763 -0.1616  0.5696
   26MOL    N29 6579   3.464   6.670   5.522 -0.1741 -0.7089 -0.2018
   26MOL    C30 6580   3.440   6.682   5.655 -0.0650 -0.4062 -0.2851
   26MOL    O31 6581   3.436   6.587   5.738 -0.4096 -0.5019  0.0165
   26MOL    C32 6582   3.388   6.823   5.698  0.3835 -0.2911 -0.9681
   26MOL    C33 6583   3.376   6.481   5.399  0.2209 -0.3404 -0.4548
   26MOL    H34 6584   3.554   6.578   5.360  0.9126 -2.1084  0.6671
   26MOL    H35 6585   3.451   6.750   5.462 -1.1964 -0.3601  0.4774
   26MOL    H36 6586   3.470   6.887   5.728 -0.2110 -0.2733  0.7080
   26MOL    H37 6587   3.333   6.875   5.620  0.0085  1.2411  0.3110
   26MOL    H38 6588   3.317   6.800   5.778  1.0470  1.4583  0.1392
   26MOL    H39 6589   3.412   6.387   5.356  1.2358 -0.7710  1.2877
   26MOL    H40 6590   3.309   6.454   5.482 -1.1812 -2.1744 -2.1265
   26MOL    C41 6591   3.299   6.552   5.278  0.5405  0.1842 -0.3740
   26MOL    N42 6592   3.206   6.653   5.331  0.4242 -0.3659  0.0448
   26MOL    C43 6593   3.237   6.786   5.340  0.9525 -0.0070 -0.7787
   26MOL    O44 6594   3.353   6.829   5.318 -0.0839  0.7120 -0.1584
   26MOL    C45 6595   3.125   6.884   5.370 -0.0483  0.6021  0.3709
   26MOL    C46 6596   3.236   6.450   5.182  0.3208  0.2919  0.8650
   26MOL    H47 6597   3.377   6.604   5.223  0.4059  0.0292 -0.7111
   26MOL    H48 6598   3.108   6.627   5.340  0.6391 -0.8243  1.1776
   26MOL    H49 6599   3.052   6.873   5.290  1.0810  1.8963 -0.8632
   26MOL    H50 6600   3.095   6.861   5.472  0.5539 -2.9115 -0.1856
   26MOL    H51 6601   3.163   6.986   5.361  1.4699  0.0496  0.3205
   26MOL    H52 6602   3.168   6.380   5.230 -0.7699 -0.6810 -1.9684
   26MOL    H53 6603   3.181   6.500   5.102  1.3488 -0.9288 -0.6252
   26MOL    C54 6604   3.331   6.363   5.091 -0.1461 -0.3946 -0.5655
   26MOL    N55 6605   3.402   6.253   5.162 -0.0864  0.2781  0.2092
   26MOL    C56 6606   3.338   6.153   5.236 -0.0936  0.5839  0.1620
   26MOL    O57 6607   3.219   6.152   5.250  0.1401  0.3172 -0.3928
   26MOL    C58 6608   3.427   6.038   5.294 -0.2598  0.2977  0.4137
   26MOL    C59 6609   3.432   6.448   5.018 -0.1223 -0.6712  0.8598
   26MOL    H60 6610   3.269   6.319   5.012 -0.6674 -0.1791 -0.2820
   26MOL    H61 6611   3.503   6.247   5.165 -0.2044 -1.2910  1.9370
   26MOL    H62 6612   3.470   6.077   5.386 -0.3167  0.8667  0.2052
   26MOL    H63 6613   3.363   5.957   5.330 -0.3344 -1.0920 -2.6898
   26MOL    H64 6614   3.512   6.013   5.231 -0.9116  1.2072 -0.8525
   26MOL    H65 6615   3.389   6.543   4.987 -1.6959 -1.3760  0.8523
   26MOL    H66 6616   3.511   6.474   5.089  1.0180  0.6863 -0.8371
   26MOL    C67 6617   3.496   6.387   4.889  0.0216 -0.7355  0.0046
   26MOL    N68 6618   3.562   6.267   4.925  0.0396 -0.0267 -0.5282
   26MOL    C69 6619   3.563   6.152   4.854 -0.3740 -0.7958 -0.1449
   26MOL    O70 6620   3.500   6.143   4.753  0.3087 -0.1147  0.8318
   26MOL    C71 6621   3.651   6.042   4.905  0.5988 -0.3463 -0.3710
   26MOL    C72 6622   3.606   6.480   4.826 -0.3741  0.2114 -0.2575
   26MOL    H73 6623   3.418   6.359   4.818 -0.2761 -0.8655  0.3813
   26MOL    H74 6624   3.614   6.273   5.011 -2.0345  0.5665  0.7068
   26MOL    H75 6625   3.593   5.966   4.958 -1.2533  1.4839  0.2916
   26MOL    H76 6626   3.703   6.016   4.813  0.5366  0.9675 -0.7801
   26MOL    H77 6627   3.731   6.073   4.972 -0.7110  0.0801  1.0178
   26MOL    H78 6628   3.665   6.516   4.911  1.4539  1.7217 -2.1125
   26MOL    H79 6629   3.675   6.432   4.757 -0.9116 -3.0234  1.3155
   26MOL    C80 6630   3.539   6.597   4.761  0.5809 -0.1615 -0.0208
   26MOL    N81 6631   3.468   6.554   4.640  0.3130 -0.5654 -0.5221
   26MOL    C82 6632   3.332   6.552   4.621  0.0025  0.0639 -0.4429
   26MOL    O83 6633   3.251   6.597   4.702  0.0031  0.3168  0.3394
   26MOL    C84 6634   3.290   6.490   4.486  0.3588 -0.8103 -0.1954
   26MOL    C85 6635   3.633   6.706   4.712  0.1405  0.2731  0.2714
   26MOL    H86 6636   3.468   6.647   4.828 -1.3135 -1.3590 -1.0689
   26MOL    H87 6637   3.526   6.500   4.577  0.6711 -1.2281  0.3699
   26MOL    H88 6638   3.215   6.412   4.502 -0.4372  0.5020  2.9333
   26MOL    H89 6639   3.241   6.566   4.425  1.7971  1.5346  1.4771
   26MOL    H90 6640   3.381   6.450   4.441 -0.9796  0.0578 -3.8672
   26MOL    H91 6641   3.715   6.661   4.655 -0.6285 -1.9776  0.8877
   26MOL    H92 6642   3.583   6.774   4.644  2.0693  1.3425 -0.1236
   26MOL    C93 6643   3.703   6.792   4.822 -0.1006  0.6297  0.9623
   26MOL    N94 6644   3.622   6.856   4.923  0.7327  0.2415  0.3688
   26MOL    C95 6645   3.515   6.940   4.916  0.2952  0.8245  0.4440
   26MOL    O96 6646   3.462   6.962   4.809 -0.6717 -0.5443 -0.6398
   26MOL    C97 6647   3.459   6.988   5.048  1.0153  0.5151 -0.3009
   26MOL    C98 6648   3.783   6.902   4.740  0.4309  0.5382 -0.2901
   26MOL    H99 6649   3.773   6.728   4.876  1.1829  1.0781 -0.1241
   26MOL   H100 6650   3.667   6.840   5.013  0.6571 -3.2148 -0.1432
   26MOL   H101 6651   3.541   7.012   5.116  1.2645 -3.2312  0.8313
   26MOL   H102 6652   3.395   7.076   5.055  3.2023  2.0127  1.4512
   26MOL   H103 6653   3.403   6.906   5.092  1.1123  0.1989 -0.7548
   26MOL   H104 6654   3.857   6.850   4.680 -0.1617 -1.9695  1.0914
   26MOL   H105 6655   3.726   6.952   4.661 -2.6283 -0.9619  0.8860
   26MOL   C106 6656   3.868   7.004   4.820 -0.8302  0.3805  0.4450
   26MOL   N107 6657   3.869   7.126   4.743 -0.1694  0.3012  0.3940
   26MOL   C108 6658   3.883   7.251   4.788 -0.5824 -0.2429  0.5751
   26MOL   O109 6659   3.906   7.285   4.904  0.0570  0.2036 -0.1357
   26MOL   C110 6660   3.870   7.363   4.686  0.5730 -0.0312 -0.0266
   26MOL   C111 6661   4.010   6.958   4.853 -0.1371  0.1394 -0.0675
   26MOL   H112 6662   3.820   7.035   4.913 -0.8744  0.1655  0.4954
   26MOL   H113 6663   3.843   7.124   4.645  0.6779 -0.1814  0.1736
   26MOL   H114 6664   3.849   7.339   4.582  2.0363  1.4126 -0.6746
   26MOL   H115 6665   3.796   7.433   4.724  1.5835  0.4190  1.1800
   26MOL   H116 6666   3.955   7.431   4.693 -0.9416  1.7892  1.0740
   26MOL   H117 6667   4.049   6.915   4.761  0.4847 -0.0081  0.2642
   26MOL   H118 6668   4.078   7.043   4.865 -2.0115  1.6139  0.3260
   26MOL   C119 6669   4.028   6.864   4.981 -0.2419 -0.6823  0.7330
   26MOL   N120 6670   3.991   6.940   5.104  0.3408  0.0013  0.4359
   26MOL   C121 6671   3.882   6.913   5.179 -0.0111 -0.3927  0.0351
   26MOL   O122 6672   3.802   6.826   5.141 -0.2523  0.2408  0.4900
   26MOL   C123 6673   3.863   6.993   5.304  0.2883 -1.0008  0.7783
   26MOL   C124 6674   4.171   6.826   4.997 -0.1556 -0.2384  0.1129
   26MOL   H125 6675   3.983   6.766   4.967  0.6056 -1.0017  0.1619
   26MOL   H126 6676   4.044   7.021   5.131  2.6664 -1.5018  0.5557
   26MOL   H127 6677   3.900   7.096   5.297 -0.5071 -0.6031  2.0559
   26MOL   H128 6678   3.756   7.009   5.319  0.3999  0.1060  0.4410
   26MOL   H129 6679   3.909   6.943   5.389 -0.7694 -2.6921  0.3632
   26MOL   H130 6680   4.191   6.765   4.909 -0.7870 -1.3664  0.7379
   26MOL   H131 6681   4.233   6.915   5.000 -0.2456 -0.1859  0.4215
   26MOL   C132 6682   4.201   6.747   5.120  0.0279 -0.1734 -0.0094
   26MOL   N133 6683   4.346   6.738   5.140 -0.1695  0.3867 -0.3129
   26MOL   C134 6684   4.423   6.781   5.240 -0.1189 -0.0302  0.1253
   26MOL   O135 6685   4.376   6.821   5.348 -0.5364 -0.0526 -0.1171
   26MOL   C136 6686   4.572   6.757   5.217 -0.1814  0.1549  0.3381
   26MOL   C137 6687   4.140   6.603   5.137 -0.4932 -0.0009  0.4173
   26MOL   H138 6688   4.160   6.802   5.205 -0.1338 -1.2967  0.6583
   26MOL   H139 6689   4.397   6.701   5.061 -0.2122 -1.3872  0.4782
   26MOL   H140 6690   4.627   6.849   5.238 -1.1518  0.6756  0.6548
   26MOL   H141 6691   4.599   6.682   5.292  0.0146  2.5667  2.7651
   26MOL   H142 6692   4.593   6.727   5.115  1.4198  1.3311  0.3187
   26MOL   H143 6693   4.034   6.613   5.114 -0.6094 -1.6867  0.1691
   26MOL   H144 6694   4.184   6.539   5.061 -0.9308  1.1136 -0.7944
   26MOL   C145 6695   4.151   6.540   5.284  0.5237  0.1363 -0.8230
   26MOL   N146 6696   4.119   6.633   5.393 -0.0336  0.3335  0.8608
   26MOL   C147 6697   4.000   6.661   5.451 -0.0088 -0.3557 -0.4964
   26MOL   O148 6698   3.895   6.617   5.404 -0.3633  0.0002  0.3473
   26MOL   C149 6699   4.009   6.747   5.578  0.0646  0.2047  0.4256
   26MOL   C150 6700   4.286   6.463   5.312 -0.2788 -0.6036 -0.3424
   26MOL   H151 6701   4.070   6.470   5.306 -0.5573  1.6306  0.0099
   26MOL   H152 6702   4.202   6.681   5.424  0.7240  0.8895 -1.9335
   26MOL   H153 6703   4.016   6.675   5.660  1.0701  1.3494  1.3794
   26MOL   H154 6704   4.086   6.823   5.569  0.2610  0.1129  1.2761
   26MOL   H155 6705   3.912   6.796   5.591  0.3507  0.7882  0.4134
   26MOL   H156 6706   4.364   6.539   5.321  0.1511 -1.0102 -0.6485
   26MOL   H157 6707   4.291   6.420   5.412  1.4277  3.0012  1.2084
   26MOL   C158 6708   4.308   6.344   5.216  0.4871 -0.8036  0.0366
   26MOL   N159 6709   4.198   6.242   5.211  0.0425  0.5827  0.5893
   26MOL   C160 6710   4.139   6.186   5.314 -0.6189 -0.3997 -0.1158
   26MOL   O161 6711   4.167   6.201   5.432 -0.2193 -0.4568 -0.4515
   26MOL   C162 6712   4.059   6.070   5.275 -0.0846  0.0910 -0.3212
   26MOL   C163 6713   4.451   6.276   5.250 -0.1594 -0.4236  0.1052
   26MOL   H164 6714   4.307   6.392   5.118  1.9902  2.3907  1.4775
   26MOL   H165 6715   4.197   6.186   5.128  0.0092  0.2760  0.7981
   26MOL   H166 6716   4.084   6.023   5.180 -2.9119  2.4703 -2.3506
   26MOL   H167 6717   4.069   6.001   5.358 -2.3906  1.8003  1.4537
   26MOL   H168 6718   3.958   6.110   5.276  0.9341  2.7547  0.4151
   26MOL   H169 6719   4.450   6.246   5.355  1.4993 -0.2555  0.1808
   26MOL   H170 6720   4.459   6.179   5.202  0.7300 -0.9495  1.2941
   26MOL   C171 6721   4.572   6.353   5.192  0.4053  0.0312 -0.1605
   26MOL   N172 6722   4.571   6.344   5.041  0.5527  0.4997  0.1328
   26MOL   C173 6723   4.549   6.437   4.947  0.6507  0.8138 -0.3147
   26MOL   O174 6724   4.512   6.553   4.972 -0.4081 -0.5915 -0.8284
   26MOL   C175 6725   4.587   6.398   4.808  0.2252 -0.4088 -0.0803
   26MOL   C176 6726   4.707   6.310   5.248 -0.7303 -0.5616  0.7068
   26MOL   H177 6727   4.569   6.459   5.219  0.1138 -0.6602  2.6536
   26MOL   H178 6728   4.582   6.251   5.002  0.0826  0.6727 -0.4187
   26MOL   H179 6729   4.640   6.302   4.813  0.4340 -0.2571  0.5843
   26MOL   H180 6730   4.492   6.384   4.755  0.4139  1.5013 -0.9670
   26MOL   H181 6731   4.655   6.473   4.769 -0.7502  0.7418  0.4172
   26MOL   H182 6732   4.700   6.319   5.357  1.7332 -1.0277  0.9336
   26MOL   H183 6733   4.719   6.204   5.224  1.0307 -0.4491  1.0333
   26MOL   C184 6734   4.828   6.396   5.198  0.5448  0.0534  0.0689
   26MOL   N185 6735   4.885   6.355   5.067  0.5479 -0.1332  0.1644
   26MOL   C186 6736   4.905   6.441   4.969  0.4005  0.4187 -0.5408
   26MOL   O187 6737   4.880   6.564   4.979  0.1967  0.2468 -0.4482
   26MOL   C188 6738   4.959   6.391   4.834  0.0869  0.1672  0.0823
   26MOL   C189 6739   4.946   6.419   5.295 -0.1375 -0.6711 -0.2044
   26MOL   H190 6740   4.779   6.493   5.191  0.5847  0.0404 -0.3940
   26MOL   H191 6741   4.921   6.264   5.042  0.3399  0.7442 -3.6850
   26MOL   H192 6742   4.916   6.436   4.745 -0.2234 -2.1096 -0.9492
   26MOL   H193 6743   5.067   6.405   4.826  0.1768 -1.6904 -2.6179
   26MOL   H194 6744   4.943   6.284   4.824 -2.7282  0.7204 -1.9627
   26MOL   H195 6745   5.004   6.327   5.300  1.2710  0.1939 -0.1123
   26MOL   H196 6746   4.997   6.500   5.241  0.7366 -0.7308  0.5176
   26MOL   C197 6747   4.919   6.478   5.436 -0.3770  0.5494  0.4890
   26MOL   N198 6748   5.023   6.574   5.477  0.2934 -0.2241 -0.1095
   26MOL   C199 6749   5.001   6.697   5.536  0.2494  0.3244 -0.0806
   26MOL   O200 6750   4.890   6.751   5.529  0.0898  0.2915 -0.5649
   26MOL   C201 6751   5.112   6.774   5.600  0.3038 -0.2624  0.5239
   26MOL   C202 6752   4.907   6.358   5.537  0.6781 -0.6775 -0.2858
   26MOL   H203 6753   4.824   6.532   5.433 -0.2305  0.7967  0.3067
   26MOL   H204 6754   5.115   6.537   5.494  1.8262  3.7807  0.8878
   26MOL   H205 6755   5.209   6.727   5.611  0.4432 -0.0131  0.3614
   26MOL   H206 6756   5.127   6.872   5.555 -0.0506  0.0982  1.1870
   26MOL   H207 6757   5.073   6.789   5.701 -2.9876 -2.2999 -0.3521
   26MOL   H208 6758   4.853   6.281   5.483  2.0772 -2.4341  0.7604
   26MOL   H209 6759   5.010   6.324   5.547  0.7408 -0.4364 -0.0957
   26MOL   C210 6760   4.834   6.385   5.669 -0.2395  0.1119  0.7632
   26MOL   N211 6761   4.851   6.267   5.744 -0.8274  0.2858  0.2739
   26MOL   C212 6762   4.936   6.251   5.844  0.3716 -0.2694  0.1491
   26MOL   O213 6763   5.012   6.340   5.884  0.2906 -0.4846  0.0386
   26MOL   C214 6764   4.921   6.121   5.921 -0.5041 -0.3500  0.3786
   26MOL   C215 6765   4.682   6.415   5.649  0.4343  0.2449 -0.0906
   26MOL   H216 6766   4.886   6.468   5.717  0.9240 -1.0261  1.5081
   26MOL   H217 6767   4.783   6.197   5.717  1.0512 -1.2372 -0.5977
   26MOL   H218 6768   5.004   6.132   5.990  0.6593  2.3111 -1.3723
   26MOL   H219 6769   4.827   6.107   5.976 -0.0770 -1.2914  0.8802
   26MOL   H220 6770   4.949   6.037   5.857  1.7468 -1.1247  2.2883
   26MOL   H221 6771   4.675   6.501   5.582  0.3560  1.3386  1.2841
   26MOL   H222 6772   4.642   6.322   5.611  1.5500 -1.0260  1.7345
   26MOL   C223 6773   4.614   6.453   5.783 -0.2068  0.1439 -0.0439
   26MOL   N224 6774   4.472   6.475   5.748 -0.4015 -0.6070  0.6585
   26MOL   C225 6775   4.375   6.439   5.833  0.4163 -0.4990 -0.6759
   26MOL   O226 6776   4.396   6.435   5.954 -0.6227 -0.4842 -0.5821
   26MOL   C227 6777   4.229   6.415   5.788  0.6494  0.4154 -0.3483
   26MOL   C228 6778   4.676   6.567   5.865 -0.0618 -0.9110 -0.4098
   26MOL   H229 6779   4.633   6.367   5.846  0.1712 -0.4296 -0.9414
   26MOL   H230 6780   4.444   6.479   5.651  1.2832 -0.4829  0.1551
   26MOL   H231 6781   4.218   6.440   5.683  0.6445 -3.0173 -1.2181
   26MOL   H232 6782   4.191   6.314   5.796 -1.0778  1.2000  2.0374
   26MOL   H233 6783   4.156   6.472   5.846  1.6945 -0.2925  1.7282
   26MOL   H234 6784   4.744   6.620   5.799  0.3685 -0.3557  0.4840
   26MOL   H235 6785   4.608   6.650   5.885  1.1876  0.2780 -0.9933
   26MOL   C236 6786   4.739   6.523   5.995 -0.0464  0.3690 -0.3293
   26MOL   N237 6787   4.656   6.423   6.068 -0.1696 -0.8891  0.2363
   26MOL   C238 6788   4.697   6.323   6.145  0.1113 -0.6849 -0.1430
   26MOL   O239 6789   4.815   6.298   6.172  0.4907 -0.1935  0.5423
   26MOL   C240 6790   4.587   6.243   6.209  0.0796  0.2334 -0.2197
   26MOL   C241 6791   4.774   6.642   6.084 -0.4958 -0.1929 -0.1014
   26MOL   H242 6792   4.827   6.467   5.967  0.5853  0.7078  0.9248
   26MOL   H243 6793   4.556   6.437   6.070  0.0835  1.2284 -0.9251
   26MOL   H244 6794   4.631   6.208   6.303  0.0895 -0.9707 -0.6618
   26MOL   H245 6795   4.498   6.304   6.221 -0.3161 -0.4191  0.2365
   26MOL   H246 6796   4.560   6.166   6.137 -0.9510 -0.6307  1.0596
   26MOL   H247 6797   4.750   6.736   6.033 -1.2305  0.3751  1.2602
   26MOL   H248 6798   4.698   6.654   6.161  1.7906 -1.6744  2.4696
   26MOL   C249 6799   4.916   6.627   6.142  0.8393  0.6603 -0.0708
   26MOL   N250 6800   4.945   6.706   6.258  0.5456 -0.3965 -0.0673
   26MOL   C251 6801   4.964   6.839   6.256  0.1661 -0.3819 -0.0296
   26MOL   O252 6802   4.949   6.911   6.159 -0.0844  0.5755  0.6767
   26MOL   C253 6803   4.996   6.912   6.388  0.2780 -0.0503 -0.4645
   26MOL   C254 6804   5.017   6.651   6.022  0.3781 -0.2143  0.1327
   26MOL   H255 6805   4.926   6.526   6.181  0.1062  1.5093  2.4420
   26MOL   H256 6806   4.960   6.656   6.345  2.3911  0.8121  0.3282
   26MOL   H257 6807   5.043   7.008   6.366 -1.9811  0.8780 -1.3159
   26MOL   H258 6808   4.902   6.934   6.438  0.9672  2.2526 -0.1561
   26MOL   H259 6809   5.069   6.849   6.439  0.3627 -1.3510 -2.1390
   26MOL   H260 6810   5.116   6.650   6.066  0.6269  1.0943 -0.3766
   26MOL   H261 6811   5.019   6.566   5.954  2.8846 -1.1541  1.3104
   26MOL   H262 6812   4.994   6.744   5.970  0.9881 -0.5185 -0.6758
   27MOL     C1 6813   6.179   6.886   1.031  0.1801 -0.7406  0.1560
   27MOL     N2 6814   6.186   6.824   1.165 -0.2665  0.0570  0.1721
   27MOL     C3 6815   6.216   6.883   1.277 -0.3881 -0.7491  0.6959
   27MOL     O4 6816   6.268   6.991   1.280  0.0204 -0.2434  0.1921
   27MOL     C5 6817   6.196   6.797   1.403  0.6127 -0.0508  0.2142
   27MOL     C6 6818   6.077   6.815   0.937 -0.6051  0.1807 -0.6179
   27MOL     H7 6819   6.156   6.993   1.039  0.6313 -0.4480 -2.2886
   27MOL     H8 6820   6.138   6.736   1.179  1.1864 -0.3730  2.9330
   27MOL     H9 6821   6.239   6.698   1.392  0.4751 -0.6292  4.1274
   27MOL    H10 6822   6.244   6.848   1.486  0.7163 -2.0691  1.4208
   27MOL    H11 6823   6.090   6.791   1.428  0.8429  1.4752  1.6594
   27MOL    H12 6824   6.092   6.708   0.925 -0.0207  0.4150 -2.1416
   27MOL    H13 6825   5.978   6.829   0.980 -0.6060 -0.4336 -0.4246
   27MOL    H14 6826   6.276   6.888   0.981  0.2216  1.7540  0.2611
   27MOL    C15 6827   6.077   6.883   0.794 -0.0235  0.9212  0.0547
   27MOL    N16 6828   6.049   7.024   0.789  0.1967 -0.3695  0.1058
   27MOL    C17 6829   5.937   7.082   0.833  0.2168  0.1082 -0.1677
   27MOL    O18 6830   5.847   7.035   0.911  0.2135 -0.4277  0.3167
   27MOL    C19 6831   5.914   7.221   0.780  0.3917  0.0200  0.0468
   27MOL    C20 6832   6.010   6.807   0.674 -0.0490  0.2932 -0.6020
   27MOL    H21 6833   6.181   6.869   0.766  0.0383  0.4787  0.5042
   27MOL    H22 6834   6.112   7.080   0.733 -0.6629 -1.2552 -1.7487
   27MOL    H23 6835   6.005   7.272   0.750  0.1098 -1.4860 -3.6426
   27MOL    H24 6836   5.862   7.201   0.686  0.6010 -1.8127  0.3091
   27MOL    H25 6837   5.858   7.277   0.855  0.2893 -1.1334  0.8507
   27MOL    H26 6838   6.057   6.848   0.585  1.6798  0.8759  0.5561
   27MOL    H27 6839   6.042   6.703   0.689  0.4483  0.2462 -1.8786
   27MOL    C28 6840   5.860   6.794   0.671 -0.1880 -0.3134  0.3202
   27MOL    N29 6841   5.823   6.749   0.805  0.1512  0.1737  0.2552
   27MOL    C30 6842   5.816   6.625   0.850 -0.7127  0.0249  0.1902
   27MOL    O31 6843   5.857   6.518   0.796 -0.2194 -0.3821  0.3884
   27MOL    C32 6844   5.772   6.625   1.000 -0.6325  0.1048  0.5181
   27MOL    C33 6845   5.793   6.705   0.563 -0.0918 -0.0826 -0.2181
   27MOL    H34 6846   5.812   6.891   0.666  0.0688 -0.2166 -0.2241
   27MOL    H35 6847   5.789   6.826   0.861  1.1448  0.6979  0.1421
   27MOL    H36 6848   5.695   6.549   1.015  0.0737 -0.5512  0.8247
   27MOL    H37 6849   5.859   6.616   1.065  0.0340  0.4953 -0.2978
   27MOL    H38 6850   5.734   6.722   1.032 -0.7578  0.5912 -1.0506
   27MOL    H39 6851   5.810   6.598   0.576  0.2841 -0.0589 -0.5073
   27MOL    H40 6852   5.685   6.711   0.576 -0.3487 -3.1904 -0.3640
   27MOL    C41 6853   5.829   6.749   0.412 -0.0967  0.1011 -0.4478
   27MOL    N42 6854   5.715   6.816   0.347  0.4323  0.2576 -0.3146
   27MOL    C43 6855   5.676   6.940   0.365  0.1434 -0.5105  0.7984
   27MOL    O44 6856   5.738   7.027   0.433  0.2229  0.2701  0.3492
   27MOL    C45 6857   5.541   6.971   0.289 -0.7934 -0.1992 -0.6274
   27MOL    C46 6858   5.854   6.621   0.326 -0.4056 -0.0422  0.4286
   27MOL    H47 6859   5.917   6.813   0.420 -0.3427  0.5646 -1.3197
   27MOL    H48 6860   5.655   6.747   0.304 -0.3820  0.2837  0.7444
   27MOL    H49 6861   5.483   7.028   0.362 -0.2555 -1.7881  1.1006
   27MOL    H50 6862   5.567   7.035   0.205  2.7237 -1.3890 -0.5554
   27MOL    H51 6863   5.496   6.874   0.269 -0.8129 -0.1993 -0.5846
   27MOL    H52 6864   5.929   6.555   0.369  0.5178  0.1494 -0.8485
   27MOL    H53 6865   5.762   6.565   0.343 -0.8962  0.7314  0.3363
   27MOL    C54 6866   5.880   6.655   0.179 -0.1337 -0.3679  0.2730
   27MOL    N55 6867   5.785   6.578   0.106  0.2037  0.3881 -0.3812
   27MOL    C56 6868   5.673   6.618   0.044 -0.5042  0.5561 -0.0163
   27MOL    O57 6869   5.646   6.738   0.039  0.0829  0.0557 -0.1678
   27MOL    C58 6870   5.569   6.512   0.007  0.5887  0.1958 -0.2441
   27MOL    C59 6871   6.022   6.634   0.131  0.4755 -0.1405 -0.6649
   27MOL    H60 6872   5.851   6.759   0.163  1.3146  0.2610  1.7277
   27MOL    H61 6873   5.813   6.481   0.099  1.9552  1.0886 -3.8778
   27MOL    H62 6874   5.496   6.548   7.774  0.4962  1.7954  0.6101
   27MOL    H63 6875   5.615   6.432   7.790 -0.5505 -0.8299  0.2312
   27MOL    H64 6876   5.528   6.485   0.105  2.5401  0.1172  0.5746
   27MOL    H65 6877   6.034   6.714   0.058 -0.1362  0.6408  0.0910
   27MOL    H66 6878   6.083   6.671   0.213  1.6288 -2.0079 -0.6432
   27MOL    C67 6879   6.069   6.488   0.094  0.4784 -0.0427 -0.4106
   27MOL    N68 6880   6.098   6.412   0.209  0.0504 -0.2385  0.3669
   27MOL    C69 6881   6.050   6.293   0.231 -0.0881 -1.0576  0.5727
   27MOL    O70 6882   5.986   6.225   0.153 -0.1459 -0.3373 -0.2069
   27MOL    C71 6883   6.092   6.227   0.364 -0.1124 -0.6866  0.2416
   27MOL    C72 6884   6.198   6.496   0.005  0.0347  0.4202 -0.0790
   27MOL    H73 6885   5.990   6.443   0.034 -0.6423 -0.1840  1.1440
   27MOL    H74 6886   6.140   6.461   0.286  0.9345 -1.1954  0.5070
   27MOL    H75 6887   6.104   6.305   0.439 -0.6732 -0.4058  0.0412
   27MOL    H76 6888   6.007   6.165   0.391 -0.8202  0.9925  1.9829
   27MOL    H77 6889   6.179   6.162   0.351  1.4222  0.6621  3.2474
   27MOL    H78 6890   6.270   6.562   0.053 -0.1137  1.7086 -1.5805
   27MOL    H79 6891   6.254   6.403   0.015 -2.5088 -0.9794  1.8858
   27MOL    C80 6892   6.190   6.508   7.687  0.3413 -0.5361 -0.2651
   27MOL    N81 6893   6.325   6.494   7.629 -0.2694  0.1391 -0.1902
   27MOL    C82 6894   6.424   6.582   7.628  0.5109  0.5897 -0.2092
   27MOL    O83 6895   6.418   6.702   7.667 -0.1111  0.4036  0.2724
   27MOL    C84 6896   6.549   6.531   7.557  0.4309 -0.1483 -0.2364
   27MOL    C85 6897   6.119   6.639   7.640  0.7220 -0.6104 -0.9646
   27MOL    H86 6898   6.126   6.426   7.652  2.3165 -1.2734 -2.2805
   27MOL    H87 6899   6.350   6.404   7.590 -1.0470 -0.3041  0.3024
   27MOL    H88 6900   6.531   6.556   7.452  2.1205 -2.7796 -1.2088
   27MOL    H89 6901   6.638   6.579   7.597  1.2466 -1.0431 -0.9471
   27MOL    H90 6902   6.574   6.426   7.570  1.8589  0.1776 -0.3034
   27MOL    H91 6903   6.020   6.630   7.685  1.5905  0.3874  1.2257
   27MOL    H92 6904   6.171   6.729   7.672 -1.4780  0.5994 -0.7392
   27MOL    C93 6905   6.073   6.653   7.494 -0.7176  0.0844  0.8529
   27MOL    N94 6906   6.199   6.703   7.426 -0.7459 -0.1422  0.8453
   27MOL    C95 6907   6.217   6.728   7.295  0.6527  0.4559  0.0561
   27MOL    O96 6908   6.144   6.678   7.208 -0.0171 -0.1369  1.0118
   27MOL    C97 6909   6.345   6.814   7.261 -0.4768  0.0990 -0.3563
   27MOL    C98 6910   5.964   6.761   7.480  0.0609  0.3530 -0.3570
   27MOL    H99 6911   6.038   6.557   7.456  0.6303 -0.2588  0.4635
   27MOL   H100 6912   6.276   6.723   7.488  3.0821 -0.8692 -3.3791
   27MOL   H101 6913   6.411   6.761   7.193 -0.4622  1.0912 -1.1245
   27MOL   H102 6914   6.304   6.908   7.224 -1.2319 -0.6601 -1.5103
   27MOL   H103 6915   6.407   6.818   7.350 -0.1827  1.1275 -0.6011
   27MOL   H104 6916   6.012   6.856   7.504  1.9423  0.0037 -2.5525
   27MOL   H105 6917   5.947   6.764   7.372 -2.3193  1.9960  0.0241
   27MOL   C106 6918   5.824   6.743   7.548  0.0936  0.5105  0.0404
   27MOL   N107 6919   5.757   6.617   7.511  0.2295  0.2705  0.2802
   27MOL   C108 6920   5.762   6.489   7.553 -0.6872  0.2960 -0.3304
   27MOL   O109 6921   5.845   6.452   7.635  0.0828  0.0640  0.3410
   27MOL   C110 6922   5.656   6.394   7.492  0.7075 -0.4370 -0.4012
   27MOL   C111 6923   5.736   6.863   7.513  0.0820 -0.7124 -0.3798
   27MOL   H112 6924   5.846   6.725   7.653  0.5808  1.9162  0.2035
   27MOL   H113 6925   5.677   6.625   7.449  0.1408  0.2137  0.3876
   27MOL   H114 6926   5.612   6.443   7.405  1.9494  1.9605  0.2654
   27MOL   H115 6927   5.696   6.303   7.447 -0.4864 -0.4475 -1.4688
   27MOL   H116 6928   5.576   6.371   7.562  0.5341  1.9251  0.2324
   27MOL   H117 6929   5.708   6.861   7.407  0.3367  2.2410 -0.5407
   27MOL   H118 6930   5.648   6.846   7.574 -0.8817 -0.3201 -1.6513
   27MOL   C119 6931   5.787   7.004   7.546  0.4116  0.2152  0.1806
   27MOL   N120 6932   5.790   7.028   7.686  0.1900 -0.4449  0.3142
   27MOL   C121 6933   5.891   7.014   7.775 -0.0257  0.8097 -0.0387
   27MOL   O122 6934   6.004   6.970   7.740 -0.2126 -0.2920  0.3612
   27MOL   C123 6935   5.864   7.031   0.085 -0.4379 -0.2864  0.7174
   27MOL   C124 6936   5.706   7.116   7.467 -0.3212  1.1425  0.3401
   27MOL   H125 6937   5.892   7.009   7.518  0.8069  0.6025  1.7144
   27MOL   H126 6938   5.704   7.040   7.738  0.4099 -1.1608  0.8418
   27MOL   H127 6939   5.852   7.135   0.115 -1.1129  0.2611 -1.3617
   27MOL   H128 6940   5.770   6.981   0.110  0.3071 -1.9351  0.3057
   27MOL   H129 6941   5.951   6.999   0.141  1.6963  1.7831 -1.3012
   27MOL   H130 6942   5.730   7.093   7.363  2.0163  1.1237  0.8447
   27MOL   H131 6943   5.606   7.077   7.484  1.2313 -3.6011 -0.7069
   27MOL   C132 6944   5.715   7.266   7.504  0.2434 -1.1089 -0.1792
   27MOL   N133 6945   5.640   7.336   7.406  0.1589  0.6166 -0.3643
   27MOL   C134 6946   5.599   7.464   7.405  0.2147  0.7164  0.0124
   27MOL   O135 6947   5.618   7.536   7.492  0.3309  0.3325 -0.2220
   27MOL   C136 6948   5.536   7.522   7.276  0.4788  0.5320  0.2947
   27MOL   C137 6949   5.860   7.313   7.533  0.2763  0.2633  0.0571
   27MOL   H138 6950   5.670   7.256   7.603 -0.7119 -2.5884 -0.7505
   27MOL   H139 6951   5.603   7.279   7.331 -1.3518  0.9788  0.0897
   27MOL   H140 6952   5.482   7.613   7.300 -2.2883 -1.4954  2.1642
   27MOL   H141 6953   5.611   7.529   7.198 -1.6812  1.6590 -1.7459
   27MOL   H142 6954   5.465   7.452   7.230  1.0627 -0.0958  0.3402
   27MOL   H143 6955   5.928   7.228   7.542  2.4533  1.9760  0.2119
   27MOL   H144 6956   5.887   7.372   7.445  0.4028 -0.9204 -0.7174
   27MOL   C145 6957   5.895   7.393   7.664  0.3760 -0.0145  0.7679
   27MOL   N146 6958   5.814   7.516   7.675  0.3342 -0.2714 -0.2294
   27MOL   C147 6959   5.796   7.591   7.779  0.4596  0.4737 -0.2476
   27MOL   O148 6960   5.849   7.574   0.047 -0.5109 -0.1305  0.2332
   27MOL   C149 6961   5.689   7.701   7.761 -0.0229  0.1169 -0.2539
   27MOL   C150 6962   6.041   7.438   7.666 -0.2999 -0.5370  0.1812
   27MOL   H151 6963   5.867   7.334   7.752  0.9967  2.4973  2.7292
   27MOL   H152 6964   5.771   7.531   7.584 -1.4692  0.0594  0.6622
   27MOL   H153 6965   5.593   7.649   7.761  0.3403 -0.5680  0.7762
   27MOL   H154 6966   5.702   7.776   7.839  0.3632  0.7837 -0.9534
   27MOL   H155 6967   5.695   7.752   7.665  1.3387  1.5499  0.5738
   27MOL   H156 6968   6.079   7.451   7.565  0.4202 -2.6006  0.1595
   27MOL   H157 6969   6.048   7.538   7.707 -0.7805 -0.5571  0.3244
   27MOL   C158 6970   6.142   7.345   7.741  0.7873 -0.3190 -0.8149
   27MOL   N159 6971   6.159   7.217   7.665  0.1463  0.2463 -0.0500
   27MOL   C160 6972   6.261   7.178   7.590 -0.9334 -0.6388  0.5830
   27MOL   O161 6973   6.358   7.248   7.575  0.5926  0.2203 -0.1295
   27MOL   C162 6974   6.271   7.030   7.542 -0.1819 -0.5002 -0.2149
   27MOL   C163 6975   6.111   7.319   0.051 -0.0300 -0.1297  0.1900
   27MOL   H164 6976   6.237   7.399   7.733  0.2570  0.4251 -2.4452
   27MOL   H165 6977   6.093   7.147   7.695  1.1558 -0.6218  0.1768
   27MOL   H166 6978   6.347   7.020   7.465 -0.7701 -5.1396 -0.3343
   27MOL   H167 6979   6.291   6.958   7.621  2.7892  0.1792 -0.3277
   27MOL   H168 6980   6.180   7.007   7.485 -0.8325 -1.2279  1.1041
   27MOL   H169 6981   6.070   7.406   0.102  2.4656  0.5763  1.0260
   27MOL   H170 6982   6.033   7.243   0.053 -3.8252  3.5513 -0.2832
   27MOL   C171 6983   6.228   7.258   0.131  0.0961 -0.3290  0.3402
   27MOL   N172 6984   6.172   7.253   0.267  0.0390 -0.9877  0.6504
   27MOL   C173 6985   6.181   7.155   0.354 -0.4549 -0.5051 -0.4524
   27MOL   O174 6986   6.251   7.058   0.332  0.0011  0.4230  0.5369
   27MOL   C175 6987   6.097   7.151   0.482  0.1737  0.5457 -0.0711
   27MOL   C176 6988   6.362   7.340   0.116 -0.4102 -0.2103 -0.2973
   27MOL   H177 6989   6.242   7.158   0.091  2.7423  0.3002 -0.4488
   27MOL   H178 6990   6.128   7.336   0.303 -0.3491 -1.9072  2.3577
   27MOL   H179 6991   5.992   7.134   0.458  0.5569 -0.7991 -0.8011
   27MOL   H180 6992   6.123   7.059   0.533  2.5362  1.1345 -0.1703
   27MOL   H181 6993   6.103   7.247   0.534  1.3686  0.7589 -0.5898
   27MOL   H182 6994   6.393   7.351   0.012  1.5465  0.6391  0.3383
   27MOL   H183 6995   6.330   7.441   0.142 -1.8730 -0.1709 -2.2109
   27MOL   C184 6996   6.475   7.287   0.204  0.1374  0.2226  0.2333
   27MOL   N185 6997   6.579   7.390   0.211 -0.9274  1.0923 -0.0894
   27MOL   C186 6998   6.620   7.445   0.333 -0.5249  0.3913 -0.5010
   27MOL   O187 6999   6.561   7.432   0.438  0.1704 -0.1074  0.1672
   27MOL   C188 7000   6.756   7.514   0.341  0.1531  0.0404 -0.2698
   27MOL   C189 7001   6.522   7.148   0.160  0.3556 -0.3944  0.0775
   27MOL   H190 7002   6.436   7.273   0.305 -3.4751  3.2915 -0.6406
   27MOL   H191 7003   6.637   7.410   0.131 -0.4915 -2.0700 -0.6339
   27MOL   H192 7004   6.765   7.580   0.427  0.2293 -1.0133  0.5422
   27MOL   H193 7005   6.840   7.445   0.342 -0.0761 -0.2799 -1.5565
   27MOL   H194 7006   6.770   7.586   0.260  0.4657 -0.2206 -0.4474
   27MOL   H195 7007   6.445   7.072   0.158  1.2089 -1.3437  2.0316
   27MOL   H196 7008   6.554   7.160   0.056 -1.1752 -1.0782 -0.4890
   27MOL   C197 7009   6.639   7.090   0.242 -0.0721  0.1771  0.4614
   27MOL   N198 7010   6.673   6.961   0.181  0.0361 -0.0652  0.2946
   27MOL   C199 7011   6.786   6.936   0.116  0.9460  0.2763 -0.2377
   27MOL   O200 7012   6.868   7.025   0.102 -0.3277 -0.0715 -0.0156
   27MOL   C201 7013   6.802   6.801   0.051 -0.1705 -1.1845  0.1492
   27MOL   C202 7014   6.604   7.071   0.390 -0.1739  0.3789  0.7085
   27MOL   H203 7015   6.719   7.163   0.233  0.8820 -0.8909  0.0881
   27MOL   H204 7016   6.616   6.880   0.201 -2.4148  1.1862 -1.4769
   27MOL   H205 7017   6.805   6.736   0.139  0.4026  1.4267  2.1622
   27MOL   H206 7018   6.719   6.795   7.821 -1.7655 -1.1438  1.9777
   27MOL   H207 7019   6.900   6.797   0.004 -0.7731  1.8290 -1.5168
   27MOL   H208 7020   6.610   7.171   0.434  0.5548  1.0719 -0.9123
   27MOL   H209 7021   6.498   7.046   0.398 -0.4294  0.9483 -0.7743
   27MOL   C210 7022   6.694   6.975   0.469 -0.3047 -0.1305  0.5698
   27MOL   N211 7023   6.642   6.973   0.603 -0.0043  0.1658 -0.2527
   27MOL   C212 7024   6.583   6.867   0.661  0.5688  0.0986  0.5622
   27MOL   O213 7025   6.574   6.761   0.612  0.3626  0.2179 -0.3071
   27MOL   C214 7026   6.523   6.889   0.795 -0.4742  0.3249 -0.7496
   27MOL   C215 7027   6.842   7.013   0.470  0.1674  0.1728  0.3111
   27MOL   H216 7028   6.684   6.875   0.429 -0.6861 -0.1361  0.6839
   27MOL   H217 7029   6.654   7.058   0.656 -0.8082  0.9340 -1.2638
   27MOL   H218 7030   6.454   6.973   0.798 -0.7922  0.0203  1.3974
   27MOL   H219 7031   6.476   6.803   0.843 -0.4586  0.0751 -1.1780
   27MOL   H220 7032   6.598   6.919   0.868  0.4077  0.3327 -1.6543
   27MOL   H221 7033   6.867   7.037   0.367  1.1096  1.2532  0.7768
   27MOL   H222 7034   6.833   7.106   0.525  1.1346 -1.1201  2.7923
   27MOL   C223 7035   6.947   6.921   0.547  0.2796  0.2558  0.9053
   27MOL   N224 7036   7.076   6.977   0.512 -0.2181  0.1717 -0.0358
   27MOL   C225 7037   7.156   7.049   0.600 -0.0853  1.0458  0.2141
   27MOL   O226 7038   7.118   7.088   0.707 -0.3347 -0.0552 -0.2782
   27MOL   C227 7039   7.294   7.087   0.556  1.1826 -0.4058 -0.5049
   27MOL   C228 7040   6.931   6.767   0.512 -0.3789 -0.3394  0.0945
   27MOL   H229 7041   6.935   6.923   0.656  0.6342  1.0018  0.9319
   27MOL   H230 7042   7.123   6.947   0.428 -0.2355 -0.0576  0.0343
   27MOL   H231 7043   7.344   7.008   0.500 -0.3047 -2.8312  1.4601
   27MOL   H232 7044   7.290   7.185   0.508  2.5787 -0.5118 -0.8583
   27MOL   H233 7045   7.353   7.098   0.647  2.9952 -1.6531 -1.5042
   27MOL   H234 7046   6.832   6.736   0.546  0.0884 -0.4866  1.3316
   27MOL   H235 7047   6.952   6.751   0.406  0.3989 -1.0062  0.3462
   27MOL   C236 7048   7.027   6.669   0.586  0.4836  0.0195  0.4701
   27MOL   N237 7049   7.007   6.666   0.731 -0.3286  0.0802 -0.7483
   27MOL   C238 7050   6.908   6.611   0.796  1.1090 -0.7006 -0.4111
   27MOL   O239 7051   6.819   6.559   0.732 -0.6265  0.1034 -0.1451
   27MOL   C240 7052   6.903   6.623   0.942  0.2292  0.5859 -0.2660
   27MOL   C241 7053   7.176   6.701   0.556  0.5197 -0.0474 -0.1846
   27MOL   H242 7054   7.006   6.570   0.546  0.4869  0.0557  0.3795
   27MOL   H243 7055   7.075   6.714   0.788 -0.2833 -2.3422  1.2770
   27MOL   H244 7056   6.991   6.573   0.984 -1.0086 -2.7201 -1.4395
   27MOL   H245 7057   6.896   6.723   0.984  1.4310 -0.1900  1.8755
   27MOL   H246 7058   6.814   6.574   0.981  0.4421  0.1333 -0.3369
   27MOL   H247 7059   7.176   6.733   0.452 -0.8451  1.9263  0.3930
   27MOL   H248 7060   7.206   6.777   0.627 -2.3094  0.3804  0.6034
   27MOL   C249 7061   7.277   6.578   0.555  0.4682  1.1711  0.1934
   27MOL   N250 7062   7.414   6.622   0.571 -0.2631  0.2110  0.0853
   27MOL   C251 7063   7.484   6.693   0.483 -0.2576 -0.8344  0.5292
   27MOL   O252 7064   7.449   6.728   0.370  0.2850 -0.0217  0.0920
   27MOL   C253 7065   7.621   6.725   0.535 -0.1884 -0.9485  0.6479
   27MOL   C254 7066   7.253   6.481   0.429 -0.0840  0.2335  0.1278
   27MOL   H255 7067   7.261   6.526   0.649 -0.7914  0.6646 -0.2838
   27MOL   H256 7068   7.465   6.590   0.652 -0.0393 -1.3792 -0.6492
   27MOL   H257 7069   7.670   6.628   0.545  1.5057  0.1341  3.6032
   27MOL   H258 7070   7.678   6.800   0.481 -3.3076  3.0711  2.6662
   27MOL   H259 7071   7.609   6.764   0.636  2.2189  1.1352  0.1754
   27MOL   H260 7072   7.146   6.466   0.416 -0.5028 -0.6698  4.0578
   27MOL   H261 7073   7.288   6.532   0.339 -1.0140  2.3555  0.9365
   27MOL   H262 7074   7.317   6.393   0.435 -0.4372 -0.3323 -3.2456
   28MOL     C1 7075   5.720   6.047   5.999 -1.0423  0.0852 -0.5804
   28MOL     N2 7076   5.839   5.999   5.928  0.4754  0.3368 -0.6734
   28MOL     C3 7077   5.853   5.872   5.891 -0.2980 -0.6240  0.0559
   28MOL     O4 7078   5.764   5.788   5.889 -0.0566 -0.1996 -0.0283
   28MOL     C5 7079   5.990   5.834   5.838  0.7107 -0.4757  0.8708
   28MOL     C6 7080   5.750   6.058   6.151 -0.7924  0.8420  0.0211
   28MOL     H7 7081   5.683   6.142   5.960  1.7832  1.3529 -0.3566
   28MOL     H8 7082   5.916   6.063   5.916  1.4823 -0.1909  2.5412
   28MOL     H9 7083   6.067   5.904   5.869  3.0158 -0.0010 -5.3097
   28MOL    H10 7084   6.030   5.739   5.873 -0.1425 -0.3274  2.3004
   28MOL    H11 7085   5.988   5.824   5.729  0.8481 -2.6914  1.0541
   28MOL    H12 7086   5.786   5.963   6.190 -1.2301  1.0831  1.0446
   28MOL    H13 7087   5.838   6.122   6.159 -0.9360  1.7696 -4.6652
   28MOL    H14 7088   5.641   5.974   5.981 -0.9292  0.1795 -1.4770
   28MOL    C15 7089   5.640   6.120   6.243 -0.1752  0.0992  0.3910
   28MOL    N16 7090   5.535   6.023   6.265  0.2004 -0.2374  0.1947
   28MOL    C17 7091   5.531   5.928   6.361  0.4697 -0.3225 -0.7647
   28MOL    O18 7092   5.632   5.892   6.418 -0.0996 -0.1257  0.0651
   28MOL    C19 7093   5.399   5.860   6.377 -0.0301  0.4702  0.2799
   28MOL    C20 7094   5.583   6.250   6.178 -0.0359 -0.1133  0.7796
   28MOL    H21 7095   5.682   6.146   6.340  0.0946  0.0566  0.2868
   28MOL    H22 7096   5.448   6.041   6.216  0.3389  0.3602  0.1570
   28MOL    H23 7097   5.327   5.897   6.304 -0.4548  0.5132  0.7181
   28MOL    H24 7098   5.413   5.752   6.379  2.4772  0.7503 -0.3750
   28MOL    H25 7099   5.359   5.898   6.472 -1.1877  0.5091 -0.2229
   28MOL    H26 7100   5.658   6.304   6.120 -2.2255 -0.0759 -2.1812
   28MOL    H27 7101   5.522   6.234   6.088  0.2191  1.2220  0.3544
   28MOL    C28 7102   5.495   6.354   6.261  0.1297 -0.3329  0.2677
   28MOL    N29 7103   5.353   6.370   6.221 -0.1637  0.4034 -0.1480
   28MOL    C30 7104   5.268   6.268   6.236  0.4141  0.5121 -0.0566
   28MOL    O31 7105   5.296   6.147   6.261  0.0310  0.8257  0.3901
   28MOL    C32 7106   5.116   6.306   6.222  0.2333  0.0990 -0.7214
   28MOL    C33 7107   5.566   6.496   6.271 -0.2381  0.3167  0.3619
   28MOL    H34 7108   5.482   6.305   6.358 -2.3808 -1.7978 -0.7458
   28MOL    H35 7109   5.325   6.464   6.196  0.9477  0.7352 -0.1946
   28MOL    H36 7110   5.113   6.361   6.127 -2.9663 -0.3805 -0.9556
   28MOL    H37 7111   5.047   6.222   6.216  0.5279 -0.0561 -2.0956
   28MOL    H38 7112   5.078   6.380   6.292 -1.3524 -1.5519  0.2001
   28MOL    H39 7113   5.666   6.467   6.302 -0.2275  0.5767  0.5697
   28MOL    H40 7114   5.573   6.540   6.171  1.6420 -0.1732  0.2646
   28MOL    C41 7115   5.506   6.603   6.365  0.2012 -0.4310 -0.3395
   28MOL    N42 7116   5.559   6.739   6.332 -0.2351 -0.4249  1.1605
   28MOL    C43 7117   5.686   6.769   6.297 -0.4010 -0.1730 -0.1665
   28MOL    O44 7118   5.779   6.690   6.313 -0.2324 -0.2324  0.3394
   28MOL    C45 7119   5.722   6.906   6.257  0.9016  0.9004 -0.0048
   28MOL    C46 7120   5.528   6.571   6.512  1.2603 -0.2465 -0.7388
   28MOL    H47 7121   5.400   6.616   6.347  0.6503  0.8558 -2.1907
   28MOL    H48 7122   5.498   6.820   6.333  1.1047  0.5835  2.1207
   28MOL    H49 7123   5.830   6.915   6.256  1.1312 -1.6535  0.2979
   28MOL    H50 7124   5.678   6.935   6.161 -0.3349 -0.5669  0.1052
   28MOL    H51 7125   5.693   6.982   6.330 -0.5482 -0.5590  0.9725
   28MOL    H52 7126   5.509   6.465   6.530 -1.7681  0.4413  0.3574
   28MOL    H53 7127   5.631   6.593   6.541  0.7795  0.5949  0.3824
   28MOL    C54 7128   5.436   6.646   6.599  0.3073 -0.7264 -0.2478
   28MOL    N55 7129   5.484   6.776   6.638 -0.4149  0.4119  0.6015
   28MOL    C56 7130   5.427   6.889   6.595  0.5919  0.5863  0.1075
   28MOL    O57 7131   5.337   6.889   6.503  0.4355 -1.1100 -0.1486
   28MOL    C58 7132   5.475   7.016   6.667 -0.4895 -0.7149  0.5610
   28MOL    C59 7133   5.392   6.580   6.734  0.3250 -0.1026  0.5537
   28MOL    H60 7134   5.340   6.663   6.549  0.5526  1.2017 -0.1033
   28MOL    H61 7135   5.570   6.778   6.691 -2.5412 -2.4449  4.4170
   28MOL    H62 7136   5.536   7.014   6.758 -0.9483 -1.3089  0.8553
   28MOL    H63 7137   5.543   7.057   6.593 -1.5695 -0.7240 -0.4494
   28MOL    H64 7138   5.391   7.085   6.668  1.4035  1.6724 -0.6046
   28MOL    H65 7139   5.371   6.474   6.718 -0.4086  0.1330 -0.0485
   28MOL    H66 7140   5.481   6.567   6.795  0.7150 -1.2097 -0.2383
   28MOL    C67 7141   5.272   6.647   6.816  0.7261  0.4454 -0.2077
   28MOL    N68 7142   5.262   6.587   6.948 -0.5217  0.3441 -0.4693
   28MOL    C69 7143   5.312   6.635   7.060  0.0185 -0.0926  0.2263
   28MOL    O70 7144   5.363   6.739   7.069 -0.1524 -0.4788  0.5814
   28MOL    C71 7145   5.297   6.556   7.192 -0.1329 -0.4494 -0.5343
   28MOL    C72 7146   5.126   6.633   6.752  0.2948  0.4925  0.0321
   28MOL    H73 7147   5.284   6.754   6.828 -1.4507  0.6018  0.8843
   28MOL    H74 7148   5.217   6.500   6.970 -0.4778  0.7431  1.2240
   28MOL    H75 7149   5.253   6.618   7.270  0.4472 -1.1991  0.3966
   28MOL    H76 7150   5.244   6.463   7.171 -1.4890 -0.2995  2.0837
   28MOL    H77 7151   5.395   6.544   7.239 -0.9132  0.0708  1.2472
   28MOL    H78 7152   5.142   6.663   6.649 -0.3873  0.7935  0.0090
   28MOL    H79 7153   5.087   6.531   6.755  0.0588  0.5753 -0.1480
   28MOL    C80 7154   5.021   6.718   6.827 -0.2445  0.0705  0.1032
   28MOL    N81 7155   4.971   6.645   6.945  0.6270 -0.1824  0.4782
   28MOL    C82 7156   4.928   6.719   7.052 -0.0424 -0.0194 -0.2162
   28MOL    O83 7157   4.911   6.842   7.054  0.5804 -0.0154 -0.6481
   28MOL    C84 7158   4.904   6.636   7.177 -0.2021 -0.3946  0.6071
   28MOL    C85 7159   4.908   6.773   6.730 -0.6890  0.0385  0.4645
   28MOL    H86 7160   5.074   6.805   6.866 -1.1296  0.3678  0.6437
   28MOL    H87 7161   4.999   6.548   6.949 -0.2048 -0.5483 -1.9632
   28MOL    H88 7162   4.921   6.698   7.264 -2.5635  1.6000 -0.2980
   28MOL    H89 7163   4.801   6.604   7.193 -1.0220  2.1342  0.6364
   28MOL    H90 7164   4.965   6.546   7.172 -0.7783 -0.7258 -0.7109
   28MOL    H91 7165   4.874   6.867   6.773 -0.8589 -0.6371  1.8446
   28MOL    H92 7166   4.953   6.798   6.634 -0.1055 -0.4050  0.6247
   28MOL    C93 7167   4.790   6.690   6.692  0.0745  0.2519  0.4287
   28MOL    N94 7168   4.811   6.555   6.670 -0.0311 -0.2145 -0.2692
   28MOL    C95 7169   4.875   6.483   6.574  0.1689 -0.0315 -0.5180
   28MOL    O96 7170   4.944   6.535   6.484 -0.4728 -0.4009 -0.0977
   28MOL    C97 7171   4.853   6.339   6.581 -0.2534  0.3103  0.2124
   28MOL    C98 7172   4.705   6.749   6.575 -0.1567 -0.0303  0.1586
   28MOL    H99 7173   4.729   6.701   6.782 -0.4664 -0.9690  0.2152
   28MOL   H100 7174   4.763   6.501   6.740  2.4051  0.0862  1.6842
   28MOL   H101 7175   4.913   6.286   6.506  2.0313 -0.9883  2.8899
   28MOL   H102 7176   4.880   6.295   6.677  0.4082 -1.1156 -0.6090
   28MOL   H103 7177   4.752   6.313   6.551 -0.6188  1.1855  0.6911
   28MOL   H104 7178   4.689   6.856   6.589 -2.0677 -0.0465 -1.6215
   28MOL   H105 7179   4.760   6.754   6.480  1.6721  0.7929  1.2341
   28MOL   C106 7180   4.567   6.672   6.555  0.2020 -0.4518  0.0202
   28MOL   N107 7181   4.496   6.699   6.427  0.0728  0.2046 -0.0312
   28MOL   C108 7182   4.452   6.804   6.366 -0.1762 -1.0336  0.5116
   28MOL   O109 7183   4.445   6.912   6.427  0.1872  0.0447 -0.2467
   28MOL   C110 7184   4.413   6.795   6.225 -0.7743  0.1466  0.0975
   28MOL   C111 7185   4.455   6.690   6.674 -0.3161  0.4105 -0.4751
   28MOL   H112 7186   4.586   6.565   6.562  1.7038 -0.0380  3.0151
   28MOL   H113 7187   4.491   6.625   6.359  1.0568  0.9053 -0.8758
   28MOL   H114 7188   4.467   6.716   6.173  0.4150  1.6236 -0.9638
   28MOL   H115 7189   4.306   6.778   6.234 -0.7522  0.5063  1.1693
   28MOL   H116 7190   4.437   6.887   6.171  0.3866 -0.2278 -0.0501
   28MOL   H117 7191   4.509   6.718   6.764  1.2475 -0.2914 -1.1718
   28MOL   H118 7192   4.389   6.774   6.650 -0.6501  0.7407  1.5326
   28MOL   C119 7193   4.375   6.559   6.710 -0.8694 -0.2076 -0.4425
   28MOL   N120 7194   4.282   6.520   6.611  0.7403  0.0932 -0.1211
   28MOL   C121 7195   4.313   6.421   6.520 -0.2533 -0.1595 -0.1913
   28MOL   O122 7196   4.408   6.349   6.539  0.1816  0.5896  0.4785
   28MOL   C123 7197   4.239   6.416   6.401 -0.1625  0.3740 -0.2661
   28MOL   C124 7198   4.295   6.580   6.843  0.0254 -0.5421 -0.1062
   28MOL   H125 7199   4.440   6.473   6.724  0.5480  0.6628 -1.5857
   28MOL   H126 7200   4.200   6.576   6.594  0.1187 -0.4972  0.8758
   28MOL   H127 7201   4.287   6.352   6.327 -1.9946 -1.0798 -0.2532
   28MOL   H128 7202   4.139   6.385   6.431  0.0811 -0.2428 -0.0881
   28MOL   H129 7203   4.227   6.516   6.359  0.4086  0.5413 -0.0328
   28MOL   H130 7204   4.224   6.659   6.819 -0.2949 -0.0426  2.3290
   28MOL   H131 7205   4.227   6.496   6.861  1.8774 -1.6760  1.7802
   28MOL   C132 7206   4.374   6.617   6.973 -0.0437  0.2222 -0.1140
   28MOL   N133 7207   4.455   6.509   7.018 -0.5011 -0.8170 -0.0528
   28MOL   C134 7208   4.572   6.460   6.967 -0.0032  0.5607  0.3550
   28MOL   O135 7209   4.626   6.493   6.868 -0.3798  0.2683  0.1405
   28MOL   C136 7210   4.641   6.342   7.048  0.2794  0.1540  0.2878
   28MOL   C137 7211   4.279   6.658   7.090  0.6135  0.0648 -0.3660
   28MOL   H138 7212   4.435   6.706   6.962 -0.8911  1.1034  2.0278
   28MOL   H139 7213   4.429   6.475   7.110  0.1902  0.6101  0.6754
   28MOL   H140 7214   4.719   6.380   7.114  2.4495 -0.6510 -1.7541
   28MOL   H141 7215   4.567   6.292   7.111  0.3393 -0.8834 -0.4537
   28MOL   H142 7216   4.686   6.265   6.986 -0.9219 -1.7658  1.7373
   28MOL   H143 7217   4.215   6.735   7.046  0.8364  0.1068 -0.6206
   28MOL   H144 7218   4.203   6.584   7.112  1.0879 -0.6256 -1.0225
   28MOL   C145 7219   4.328   6.704   7.226 -0.0648 -0.5335  0.5358
   28MOL   N146 7220   4.369   6.593   7.307  0.0609  0.0011 -0.3539
   28MOL   C147 7221   4.486   6.552   7.359 -0.6165  0.2331 -0.2235
   28MOL   O148 7222   4.595   6.592   7.321  0.3043 -0.5010 -0.2663
   28MOL   C149 7223   4.477   6.440   7.466 -0.6011 -0.6289  0.1256
   28MOL   C150 7224   4.229   6.801   7.286  0.5491  0.1492  0.4253
   28MOL   H151 7225   4.415   6.767   7.210 -0.5440  0.3515  1.3835
   28MOL   H152 7226   4.298   6.533   7.346  0.8999  0.3999  1.8807
   28MOL   H153 7227   4.540   6.464   7.552 -0.1035 -1.3905 -0.0215
   28MOL   H154 7228   4.372   6.434   7.493 -0.9610  3.1139 -0.1686
   28MOL   H155 7229   4.515   6.349   7.420 -0.6587  0.5048 -2.2379
   28MOL   H156 7230   4.219   6.892   7.228 -0.1800 -0.2971 -0.1588
   28MOL   H157 7231   4.136   6.744   7.279  0.6228  0.1679 -0.7046
   28MOL   C158 7232   4.237   6.848   7.433  0.5650  0.2532 -0.1249
   28MOL   N159 7233   4.118   6.913   7.488  0.1042  0.3432  0.4648
   28MOL   C160 7234   4.042   7.009   7.424  0.0541 -0.2592  0.0573
   28MOL   O161 7235   4.079   7.065   7.320 -0.4009 -0.1876 -0.4145
   28MOL   C162 7236   3.916   7.056   7.497  0.6814  0.0249  0.2038
   28MOL   C163 7237   4.363   6.943   7.457  0.8104  0.3740 -0.0609
   28MOL   H164 7238   4.247   6.756   7.491  2.3384 -0.3197 -1.2917
   28MOL   H165 7239   4.081   6.883   7.576 -0.2731 -1.8961 -0.4270
   28MOL   H166 7240   3.901   7.156   7.457 -2.0643 -1.0073 -1.4988
   28MOL   H167 7241   3.834   6.990   7.468 -1.1891  2.2723  0.2932
   28MOL   H168 7242   3.931   7.062   7.605 -0.7966 -0.3738  0.4397
   28MOL   H169 7243   4.422   6.952   7.366 -1.9174  1.3844 -1.8098
   28MOL   H170 7244   4.334   7.042   7.493 -1.4553 -0.3201  0.1014
   28MOL   C171 7245   4.451   6.888   7.566  0.0853  0.0896  0.0874
   28MOL   N172 7246   4.386   6.905   7.700 -0.3417 -0.1512 -0.4132
   28MOL   C173 7247   4.367   6.808   7.789  0.2538 -0.1952  0.1456
   28MOL   O174 7248   4.385   6.687   7.764  0.4075 -0.2820 -0.7358
   28MOL   C175 7249   4.321   6.861   0.086  0.2842  0.3083  0.1221
   28MOL   C176 7250   4.591   6.955   7.564 -0.0861  0.0989  0.2426
   28MOL   H177 7251   4.457   6.783   7.536 -0.0098 -0.1795  0.9852
   28MOL   H178 7252   4.376   7.001   7.730  2.5104  0.1866 -0.4110
   28MOL   H179 7253   4.361   6.796   0.163  0.7718  0.8418  0.3195
   28MOL   H180 7254   4.380   6.946   0.121  0.7563  0.7289 -1.6091
   28MOL   H181 7255   4.214   6.883   0.089  0.5115  1.3454  0.6239
   28MOL   H182 7256   4.587   7.063   7.550  0.4354 -0.1207 -1.8260
   28MOL   H183 7257   4.644   6.934   7.657 -1.4639 -0.0330  1.0148
   28MOL   C184 7258   4.689   6.901   7.452  0.0192 -0.5169  0.4001
   28MOL   N185 7259   4.736   6.760   7.484  0.0167 -0.6293  0.0554
   28MOL   C186 7260   4.841   6.721   7.555  0.0683  0.8606 -0.6240
   28MOL   O187 7261   4.914   6.802   7.612  0.1800  0.1339 -0.8500
   28MOL   C188 7262   4.878   6.569   7.541  0.1230 -0.4816 -0.4084
   28MOL   C189 7263   4.805   6.995   7.403 -0.8779  0.2949 -0.4603
   28MOL   H190 7264   4.638   6.881   7.357 -1.0363 -1.2504  1.1094
   28MOL   H191 7265   4.677   6.688   7.445 -0.3222 -0.7633  0.7990
   28MOL   H192 7266   4.791   6.510   7.513  2.1851 -3.9729  0.2541
   28MOL   H193 7267   4.959   6.551   7.470  0.0766 -1.2833 -0.2602
   28MOL   H194 7268   4.907   6.520   7.634  2.2956  0.1248 -0.7355
   28MOL   H195 7269   4.845   7.043   7.492  4.7895  3.2261 -4.2631
   28MOL   H196 7270   4.882   6.929   7.363 -1.8498 -1.5820  0.7171
   28MOL   C197 7271   4.761   7.103   7.300 -0.4453  0.2821 -0.0558
   28MOL   N198 7272   4.727   7.028   7.173  0.4717 -0.3185  0.1854
   28MOL   C199 7273   4.622   7.052   7.100  0.1731  0.0997 -0.0320
   28MOL   O200 7274   4.540   7.140   7.125  0.3920  0.4307  0.0460
   28MOL   C201 7275   4.606   6.959   6.981 -0.0703 -0.0907  0.2225
   28MOL   C202 7276   4.856   7.221   7.274  0.1208  0.5334  0.1936
   28MOL   H203 7277   4.670   7.154   7.331  0.1954  0.9647  0.7186
   28MOL   H204 7278   4.790   6.955   7.145  0.6124 -0.5120  0.9994
   28MOL   H205 7279   4.609   6.859   7.024 -0.2978 -0.2115 -0.0451
   28MOL   H206 7280   4.518   6.978   6.920  1.0419 -2.1925 -2.1455
   28MOL   H207 7281   4.694   6.972   6.917  0.1492  0.1091  0.5578
   28MOL   H208 7282   4.848   7.263   7.174  1.4068  0.4625  0.0500
   28MOL   H209 7283   4.828   7.301   7.342 -1.6541  0.7833 -0.7996
   28MOL   C210 7284   5.006   7.199   7.325 -0.0777  0.1054  0.3047
   28MOL   N211 7285   5.072   7.329   7.320  0.6574 -0.1371 -0.0673
   28MOL   C212 7286   5.119   7.389   7.425 -0.6999  0.2551  0.0253
   28MOL   O213 7287   5.129   7.350   7.544  0.3519  0.3710 -0.6087
   28MOL   C214 7288   5.180   7.525   7.400 -0.1468 -0.3250 -0.2730
   28MOL   C215 7289   5.085   7.093   7.243  0.5239  0.3066 -0.8162
   28MOL   H216 7290   4.999   7.161   7.427 -0.4500 -0.8980 -0.0928
   28MOL   H217 7291   5.079   7.378   7.232  1.9993 -1.1189 -0.5278
   28MOL   H218 7292   5.271   7.530   7.459  0.2350 -0.6526 -0.8329
   28MOL   H219 7293   5.218   7.547   7.300 -0.2658 -0.5824 -0.3753
   28MOL   H220 7294   5.119   7.613   7.422 -2.8061 -1.8146 -1.4485
   28MOL   H221 7295   5.026   7.010   7.205  1.2601  0.4328 -2.3077
   28MOL   H222 7296   5.125   7.138   7.152  1.1987 -1.8218 -1.6077
   28MOL   C223 7297   5.218   7.035   7.308 -0.2218 -0.2821 -0.5368
   28MOL   N224 7298   5.324   6.992   7.218  0.5255  0.1711  0.3037
   28MOL   C225 7299   5.438   7.060   7.192  0.2337  0.1798 -0.2309
   28MOL   O226 7300   5.457   7.171   7.238  0.4907  0.2645 -0.2090
   28MOL   C227 7301   5.549   6.994   7.105 -0.6119  0.1533  0.0544
   28MOL   C228 7302   5.184   6.925   7.414 -0.3221  0.4547  0.3720
   28MOL   H229 7303   5.270   7.108   7.370  0.1484  0.6444 -1.8948
   28MOL   H230 7304   5.322   6.905   7.166  4.7564 -1.1421  2.0718
   28MOL   H231 7305   5.578   6.893   7.132  1.8448  0.4026 -1.5289
   28MOL   H232 7306   5.519   6.991   7.000 -0.1009 -1.0553 -0.0635
   28MOL   H233 7307   5.634   7.061   7.105 -1.5226  1.3495 -2.1306
   28MOL   H234 7308   5.095   6.949   7.473 -1.3538 -1.6415 -0.2931
   28MOL   H235 7309   5.165   6.833   7.359  0.4567 -0.6060  1.8233
   28MOL   C236 7310   5.299   6.872   7.511  0.1990  0.3856  0.0796
   28MOL   N237 7311   5.243   6.760   7.586  0.5742 -0.2485  0.4071
   28MOL   C238 7312   5.276   6.631   7.566  0.0115 -0.5336  0.4348
   28MOL   O239 7313   5.368   6.594   7.493  0.4931 -0.0699  0.3233
   28MOL   C240 7314   5.196   6.529   7.646  0.1458 -0.0407 -0.2242
   28MOL   C241 7315   5.350   6.985   7.606 -0.0444 -0.3019  1.0194
   28MOL   H242 7316   5.385   6.830   7.459  0.2399 -0.4591  0.8283
   28MOL   H243 7317   5.174   6.779   7.658 -0.4280 -0.2953 -0.5280
   28MOL   H244 7318   5.159   6.456   7.574  1.1479 -1.8466  1.0571
   28MOL   H245 7319   5.249   6.489   7.732 -0.2876 -2.7261 -1.1400
   28MOL   H246 7320   5.118   6.583   7.698 -0.6546 -0.6774 -0.7510
   28MOL   H247 7321   5.416   6.937   7.678  0.2617  0.1485  1.0410
   28MOL   H248 7322   5.427   7.049   7.563 -1.6329  1.1523  0.2573
   28MOL   C249 7323   5.249   7.070   7.692 -0.0130  0.1694  0.3212
   28MOL   N250 7324   5.301   7.201   7.720 -0.3149  0.2677  0.0157
   28MOL   C251 7325   5.417   7.230   7.783 -1.4724 -0.2361 -0.2934
   28MOL   O252 7326   5.498   7.149   7.825 -0.0385 -0.6511 -0.4937
   28MOL   C253 7327   5.443   7.386   7.804 -0.7379  0.4377  0.3249
   28MOL   C254 7328   5.203   6.994   7.822 -0.4734  0.0667  0.4198
   28MOL   H255 7329   5.157   7.102   7.643  0.2952 -4.3908 -3.5499
   28MOL   H256 7330   5.251   7.278   7.677 -0.1847  0.4068  0.1117
   28MOL   H257 7331   5.501   7.413   7.716 -1.0418  0.6750  0.1971
   28MOL   H258 7332   5.356   7.450   7.788 -0.4285  0.2943 -2.0870
   28MOL   H259 7333   5.493   7.416   0.057 -0.4850  0.7646  0.0795
   28MOL   H260 7334   5.283   6.963   0.049 -0.9750  0.6989  1.3232
   28MOL   H261 7335   5.146   7.059   0.049 -0.8698  0.1918 -0.0372
   28MOL   H262 7336   5.139   6.907   7.800  1.0807 -0.3843 -2.5052
   29MOL     C1 7337   1.102   2.191   1.001 -0.2896  0.5100 -0.4154
   29MOL     N2 7338   1.109   2.066   1.073 -0.3784 -0.8543  0.4443
   29MOL     C3 7339   1.144   1.949   1.017 -0.0736 -0.7781  0.1055
   29MOL     O4 7340   1.132   1.932   0.898  0.0525  0.0347 -0.3495
   29MOL     C5 7341   1.190   1.830   1.101 -0.2620 -0.1455  0.7157
   29MOL     C6 7342   1.246   2.255   0.985  0.3662 -0.4988  0.7279
   29MOL     H7 7343   1.054   2.177   0.904  0.0436 -1.3693 -0.3280
   29MOL     H8 7344   1.125   2.080   1.172  3.0245  1.0065 -0.3163
   29MOL     H9 7345   1.267   1.864   1.171 -0.0035  1.8967 -0.5291
   29MOL    H10 7346   1.113   1.770   1.150 -1.4889  2.0417  1.4954
   29MOL    H11 7347   1.251   1.761   1.042  1.3655  1.6557  0.2457
   29MOL    H12 7348   1.267   2.320   1.069  0.7455 -1.8060  1.6673
   29MOL    H13 7349   1.329   2.185   0.997  0.7201  0.0324  1.3983
   29MOL    H14 7350   1.038   2.264   1.049 -0.8740  0.6908 -1.4438
   29MOL    C15 7351   1.267   2.334   0.855  0.3183  0.1335  0.4121
   29MOL    N16 7352   1.166   2.437   0.836  0.6668 -0.3493  0.0866
   29MOL    C17 7353   1.173   2.566   0.861  0.1432  0.5326  0.0694
   29MOL    O18 7354   1.278   2.614   0.905  0.7020  0.7266 -0.1543
   29MOL    C19 7355   1.056   2.653   0.830 -0.1328  0.0138  0.2853
   29MOL    C20 7356   1.273   2.226   0.743  0.1080 -0.2487  0.5683
   29MOL    H21 7357   1.369   2.369   0.865  0.1797  0.4665  0.6854
   29MOL    H22 7358   1.083   2.405   0.789  1.2893  1.9578 -2.7558
   29MOL    H23 7359   0.990   2.657   0.917  0.4081 -1.6813  0.7834
   29MOL    H24 7360   1.107   2.748   0.815 -0.8256  0.0874 -1.9008
   29MOL    H25 7361   0.997   2.630   0.741  0.5884  0.4693 -0.3232
   29MOL    H26 7362   1.295   2.133   0.794 -0.6977  0.6442  2.6094
   29MOL    H27 7363   1.174   2.209   0.701  0.3532 -0.0196 -0.1127
   29MOL    C28 7364   1.372   2.259   0.626 -0.8875  0.8331 -0.1338
   29MOL    N29 7365   1.321   2.366   0.548  0.4078 -0.3008  0.1899
   29MOL    C30 7366   1.389   2.486   0.538 -0.1568  0.3252 -0.4256
   29MOL    O31 7367   1.507   2.509   0.583  0.1559 -0.1422  0.3515
   29MOL    C32 7368   1.316   2.594   0.458  0.1714  0.3373 -0.0923
   29MOL    C33 7369   1.397   2.133   0.531 -0.4832 -0.1652  0.0247
   29MOL    H34 7370   1.468   2.284   0.672 -0.5472 -0.7181  0.0231
   29MOL    H35 7371   1.228   2.359   0.508 -0.0543  2.3061  0.6924
   29MOL    H36 7372   1.234   2.616   0.527  0.6873  0.3292  0.5372
   29MOL    H37 7373   1.387   2.676   0.446  0.1886  0.7496  2.4380
   29MOL    H38 7374   1.271   2.559   0.366 -2.5782 -0.6832  1.5779
   29MOL    H39 7375   1.395   2.045   0.596  1.5758  0.6011  1.1904
   29MOL    H40 7376   1.319   2.122   0.455 -0.9763  1.3335  0.2971
   29MOL    C41 7377   1.535   2.112   0.466 -0.4849 -0.0134 -0.3134
   29MOL    N42 7378   1.629   2.083   0.576 -1.5147 -0.4482 -0.3401
   29MOL    C43 7379   1.694   1.966   0.590 -0.4884  0.9760  0.6313
   29MOL    O44 7380   1.703   1.885   0.504  0.3178  0.3546  0.6546
   29MOL    C45 7381   1.770   1.937   0.714 -0.5748 -0.4320  0.3557
   29MOL    C46 7382   1.601   2.212   0.372  0.6000 -0.2949 -0.6083
   29MOL    H47 7383   1.526   2.025   0.401 -1.7015  2.0199 -2.9453
   29MOL    H48 7384   1.623   2.138   0.660 -0.0869  1.4767 -1.4595
   29MOL    H49 7385   1.869   1.983   0.718 -0.6922 -0.2898  1.7240
   29MOL    H50 7386   1.711   1.979   0.795 -1.0530 -0.2977 -0.0565
   29MOL    H51 7387   1.773   1.829   0.731 -0.5013 -0.2957  1.2066
   29MOL    H52 7388   1.599   2.311   0.419  1.7145 -0.1595 -0.8246
   29MOL    H53 7389   1.704   2.177   0.365  1.2818  1.3084  0.9069
   29MOL    C54 7390   1.543   2.229   0.229  0.2759 -0.2313  0.0912
   29MOL    N55 7391   1.659   2.232   0.130 -0.6435  0.5494 -0.3081
   29MOL    C56 7392   1.676   2.156   0.018 -0.9392  0.4380 -0.2031
   29MOL    O57 7393   1.613   2.049   7.832 -0.3433 -0.3559 -0.4088
   29MOL    C58 7394   1.760   2.225   7.751  0.4398 -0.0698  0.1207
   29MOL    C59 7395   1.465   2.362   0.209 -0.6442 -0.2973  0.1386
   29MOL    H60 7396   1.478   2.142   0.216 -0.8552  0.4004  1.3158
   29MOL    H61 7397   1.705   2.322   0.126  0.4524  0.1238  1.6343
   29MOL    H62 7398   1.689   2.292   7.703 -1.3412 -0.6790  1.8264
   29MOL    H63 7399   1.853   2.275   7.779  0.9070 -1.7344  1.6592
   29MOL    H64 7400   1.799   2.148   7.685  1.3282 -0.4138  1.0178
   29MOL    H65 7401   1.409   2.382   0.300  1.3199  0.2784  1.2380
   29MOL    H66 7402   1.530   2.448   0.196 -0.4523 -0.3397  0.8057
   29MOL    C67 7403   1.359   2.357   0.096  0.6259  0.0494  0.4820
   29MOL    N68 7404   1.321   2.497   0.067  0.5978 -0.1706 -0.1730
   29MOL    C69 7405   1.393   2.583   7.834 -0.1229 -0.1027 -0.0694
   29MOL    O70 7406   1.504   2.556   7.778 -0.0575  0.1361 -0.2001
   29MOL    C71 7407   1.344   2.717   7.815 -0.0991 -0.1377  0.1509
   29MOL    C72 7408   1.228   2.286   0.122 -0.4517  0.7323 -0.6376
   29MOL    H73 7409   1.420   2.321   0.013 -0.8610  0.5574 -0.8504
   29MOL    H74 7410   1.240   2.544   0.105  0.3669 -1.4972  0.9718
   29MOL    H75 7411   1.262   2.734   7.746  0.1612  1.7796  0.2869
   29MOL    H76 7412   1.317   2.759   0.072  1.0298 -1.6062  1.1453
   29MOL    H77 7413   1.426   2.771   7.769 -0.0625 -1.7043 -1.6759
   29MOL    H78 7414   1.251   2.220   0.206  2.6487  1.4135 -0.8991
   29MOL    H79 7415   1.146   2.355   0.142 -1.2513 -0.5006  0.4408
   29MOL    C80 7416   1.168   2.197   0.020  0.1464 -0.4624 -0.5652
   29MOL    N81 7417   1.262   2.092   7.821  0.0505 -0.3853  0.7890
   29MOL    C82 7418   1.267   1.969   0.029 -0.0330  0.9228 -0.4129
   29MOL    O83 7419   1.210   1.937   0.135 -0.4921  0.9182 -0.0805
   29MOL    C84 7420   1.333   1.858   7.787  0.3341  0.2416  0.3131
   29MOL    C85 7421   1.101   2.269   7.731  0.2455  0.0997 -0.5242
   29MOL    H86 7422   1.085   2.151   0.073  0.1280  2.4054  2.0231
   29MOL    H87 7423   1.305   2.107   7.731 -1.4195 -0.0423  0.1266
   29MOL    H88 7424   1.364   1.896   7.690 -0.8649  2.9993  0.9383
   29MOL    H89 7425   1.428   1.836   7.837  0.9460  2.1802  0.0620
   29MOL    H90 7426   1.269   1.770   7.786 -0.4509  0.7990  0.7932
   29MOL    H91 7427   1.172   2.339   7.686  1.2028 -0.1696  0.5410
   29MOL    H92 7428   1.100   2.190   7.656  1.9997 -0.5967  0.1751
   29MOL    C93 7429   0.959   2.325   7.745  0.5463 -0.5211 -0.5659
   29MOL    N94 7430   0.861   2.213   7.721 -0.5340 -0.7204  0.2476
   29MOL    C95 7431   0.762   2.180   7.804 -0.1533  0.8128 -0.8745
   29MOL    O96 7432   0.754   2.216   0.081 -0.4244 -1.0158 -0.0279
   29MOL    C97 7433   0.657   2.095   7.741 -0.2162 -0.3697 -0.4239
   29MOL    C98 7434   0.929   2.435   7.644  0.5373  0.2663  0.7432
   29MOL    H99 7435   0.948   2.366   0.006 -0.0837  3.0861 -2.0324
   29MOL   H100 7436   0.861   2.167   7.632  0.7828 -0.9264  0.3553
   29MOL   H101 7437   0.561   2.079   7.790 -0.4867  0.0908 -0.8033
   29MOL   H102 7438   0.638   2.145   7.646 -1.7524  2.6571  1.4236
   29MOL   H103 7439   0.702   2.001   7.708 -2.2172 -0.0652 -4.2725
   29MOL   H104 7440   0.937   2.390   7.545 -2.2752  1.1920  0.0684
   29MOL   H105 7441   0.823   2.459   7.647 -0.0873 -2.4752  2.9703
   29MOL   C106 7442   1.012   2.569   7.655  0.5246 -0.0979 -0.1154
   29MOL   N107 7443   0.941   2.662   7.743 -0.0408 -0.8424  0.0960
   29MOL   C108 7444   0.967   2.685   0.036  0.0046  0.3479  0.1882
   29MOL   O109 7445   1.050   2.609   0.091 -0.0296  0.7939  0.5407
   29MOL   C110 7446   0.904   2.793   0.113  0.1348 -0.6185 -0.4025
   29MOL   C111 7447   1.025   2.639   7.516  0.2047  0.1675  0.1211
   29MOL   H112 7448   1.111   2.556   7.696 -0.2512 -0.6846  1.6075
   29MOL   H113 7449   0.872   2.724   7.704 -0.2571 -1.4034 -0.4183
   29MOL   H114 7450   0.919   2.789   0.221 -0.3393  0.1791 -0.3072
   29MOL   H115 7451   0.940   2.884   0.066 -1.9373  0.1418 -0.5617
   29MOL   H116 7452   0.800   2.780   0.083 -0.2533 -0.3996  0.8208
   29MOL   H117 7453   0.924   2.640   7.476 -1.0499 -1.8852  3.0550
   29MOL   H118 7454   1.055   2.743   7.527 -0.5819  0.3767  0.2798
   29MOL   C119 7455   1.113   2.572   7.406  0.1962 -0.8572 -0.2576
   29MOL   N120 7456   1.240   2.517   7.461 -0.2615  0.1306 -0.1477
   29MOL   C121 7457   1.279   2.387   7.460  0.4435 -0.4167 -0.0176
   29MOL   O122 7458   1.211   2.299   7.413 -0.4911 -0.0570 -0.0885
   29MOL   C123 7459   1.420   2.361   7.507 -0.3595 -0.4798  0.3738
   29MOL   C124 7460   1.138   2.679   7.297  0.3361  0.2499 -0.2986
   29MOL   H125 7461   1.047   2.492   7.373  0.1318 -1.6003  1.5754
   29MOL   H126 7462   1.308   2.584   7.496  0.7763 -0.3204 -1.2674
   29MOL   H127 7463   1.408   2.292   7.591  1.4410 -1.2244  0.0555
   29MOL   H128 7464   1.478   2.298   7.440 -0.0942  1.0724 -0.8643
   29MOL   H129 7465   1.453   2.459   7.540 -2.7894  0.3373  0.4947
   29MOL   H130 7466   1.164   2.771   7.349 -2.1540 -0.2710  1.9629
   29MOL   H131 7467   1.228   2.655   7.241  1.3623  2.3360  0.3859
   29MOL   C132 7468   1.015   2.713   7.213 -0.2024 -0.6817  0.1936
   29MOL   N133 7469   0.970   2.600   7.131  0.3992 -0.0816 -0.3112
   29MOL   C134 7470   0.848   2.565   7.077 -0.8579 -0.4034 -0.5637
   29MOL   O135 7471   0.747   2.633   7.092 -0.6039 -0.0312 -0.4009
   29MOL   C136 7472   0.844   2.428   7.009 -0.0870 -0.1453  0.3495
   29MOL   C137 7473   1.060   2.829   7.118 -0.1724 -0.1309  0.3331
   29MOL   H138 7474   0.936   2.751   7.278  1.9525  1.8510  1.4212
   29MOL   H139 7475   1.046   2.536   7.111  0.5044  0.7408 -2.6511
   29MOL   H140 7476   0.742   2.390   7.007  0.4177 -1.4496 -1.7817
   29MOL   H141 7477   0.885   2.430   6.908 -2.2203 -0.7496 -0.5549
   29MOL   H142 7478   0.892   2.358   7.079 -0.8461  2.5008  3.6549
   29MOL   H143 7479   1.148   2.879   7.158  1.5601 -2.8181  0.0147
   29MOL   H144 7480   1.093   2.781   7.026 -0.4754  2.2069 -1.0278
   29MOL   C145 7481   0.950   2.931   7.078 -0.3046  0.2155 -0.0262
   29MOL   N146 7482   0.974   3.015   6.964 -0.1552 -0.5185  0.3591
   29MOL   C147 7483   1.093   3.068   6.918  0.6345 -0.8451  0.5005
   29MOL   O148 7484   1.196   3.068   6.984  0.2857  0.0215  0.2278
   29MOL   C149 7485   1.084   3.150   6.784 -0.6593 -0.0580  0.6784
   29MOL   C150 7486   0.924   3.016   7.197  0.1612 -0.2179 -0.5813
   29MOL   H151 7487   0.871   2.858   7.064  1.5278 -2.2844  2.3009
   29MOL   H152 7488   0.899   3.029   6.897  1.2545  0.3992 -1.0762
   29MOL   H153 7489   1.183   3.181   6.752 -1.3308  1.4503  0.0396
   29MOL   H154 7490   1.041   3.081   6.711  1.2672 -1.7029  1.0588
   29MOL   H155 7491   1.035   3.245   6.805 -0.6724  0.2003 -0.4546
   29MOL   H156 7492   0.936   2.962   7.291 -0.8609 -0.3189 -0.5046
   29MOL   H157 7493   1.005   3.089   7.204 -0.4260  0.3724  0.2207
   29MOL   C158 7494   0.785   3.091   7.206 -0.2860 -0.5332 -0.0053
   29MOL   N159 7495   0.781   3.199   7.297  0.2765 -0.5522 -0.1344
   29MOL   C160 7496   0.785   3.326   7.269  0.2239 -0.0335  0.3718
   29MOL   O161 7497   0.809   3.380   7.159 -0.1707  0.4995  0.5439
   29MOL   C162 7498   0.744   3.418   7.389 -0.2668  0.3682 -0.8249
   29MOL   C163 7499   0.660   3.008   7.216  0.3087 -0.1562  0.1003
   29MOL   H164 7500   0.773   3.141   7.110  0.1881  0.2751  0.3437
   29MOL   H165 7501   0.784   3.181   7.396 -3.9894  1.2645  0.4340
   29MOL   H166 7502   0.773   3.371   7.483  2.9061  0.7469 -1.5758
   29MOL   H167 7503   0.801   3.511   7.381 -1.1615  1.0331  0.2646
   29MOL   H168 7504   0.637   3.438   7.397  0.1597  1.3765  3.2565
   29MOL   H169 7505   0.578   3.073   7.187  0.2776  0.6931  1.9991
   29MOL   H170 7506   0.655   2.945   7.128  1.3087  0.5947 -0.5030
   29MOL   C171 7507   0.631   2.934   7.344 -0.4185  0.0826 -0.0534
   29MOL   N172 7508   0.632   2.787   7.322  0.2664 -0.1686 -0.5978
   29MOL   C173 7509   0.637   2.701   7.424  0.4542 -0.0787 -0.2703
   29MOL   O174 7510   0.674   2.740   7.542  0.1059 -0.4923  0.3988
   29MOL   C175 7511   0.595   2.555   7.411 -0.1607  0.0349 -0.2482
   29MOL   C176 7512   0.487   2.979   7.404  1.0162 -0.3924 -0.4943
   29MOL   H177 7513   0.702   2.958   7.423  0.2752 -0.6314 -0.4554
   29MOL   H178 7514   0.621   2.749   7.229  0.6268 -0.4990 -0.5051
   29MOL   H179 7515   0.675   2.489   7.443  2.4597  3.5988  0.8865
   29MOL   H180 7516   0.506   2.538   7.472  1.0095  0.2863  1.5741
   29MOL   H181 7517   0.571   2.541   7.306 -1.0918 -4.1863  0.4684
   29MOL   H182 7518   0.409   2.965   7.329  0.2840 -0.4730  0.2796
   29MOL   H183 7519   0.463   2.908   7.483 -0.1842 -0.2915 -0.7629
   29MOL   C184 7520   0.481   3.120   7.466  0.2407  0.5872 -0.4284
   29MOL   N185 7521   0.529   3.118   7.607 -0.3394  0.3045 -0.3430
   29MOL   C186 7522   0.649   3.132   7.651  0.6705  0.3905 -0.6789
   29MOL   O187 7523   0.752   3.129   7.581 -0.0898  0.6959  0.1802
   29MOL   C188 7524   0.650   3.125   7.802 -0.5957  0.3866 -1.0086
   29MOL   C189 7525   0.334   3.161   7.482 -0.0797 -0.2858 -0.4364
   29MOL   H190 7526   0.531   3.195   7.405  1.9370  1.2496  1.7212
   29MOL   H191 7527   0.460   3.121   7.680  1.0171  2.3445  0.8984
   29MOL   H192 7528   0.733   3.184   0.001  2.0238 -2.7953 -1.5687
   29MOL   H193 7529   0.562   3.177   0.000  0.2696  1.9725 -1.1378
   29MOL   H194 7530   0.656   3.025   0.006 -1.1594  1.2181  1.0476
   29MOL   H195 7531   0.288   3.088   7.550  0.0631 -1.8937 -2.0393
   29MOL   H196 7532   0.339   3.256   7.536  0.1446 -1.0743  0.9533
   29MOL   C197 7533   0.253   3.180   7.354  1.1310  0.3369 -0.2629
   29MOL   N198 7534   0.335   3.253   7.250  0.2897  0.7485 -0.4202
   29MOL   C199 7535   0.336   3.228   7.121 -0.0198 -0.1746 -0.3406
   29MOL   O200 7536   0.275   3.132   7.076 -0.3441 -0.0722 -0.1625
   29MOL   C201 7537   0.391   3.337   7.036  0.4513 -0.1090 -0.2781
   29MOL   C202 7538   0.111   3.246   7.357 -0.0429 -1.0648 -0.1152
   29MOL   H203 7539   0.236   3.078   7.319  1.8103 -0.1512  0.7816
   29MOL   H204 7540   0.379   3.339   7.280 -0.6239  1.6843 -1.6825
   29MOL   H205 7541   0.383   3.301   6.934 -0.1365 -2.2169  0.4834
   29MOL   H206 7542   0.339   3.431   7.058  0.7722 -0.1281  0.5913
   29MOL   H207 7543   0.496   3.353   7.062  0.7608 -3.8602  1.0436
   29MOL   H208 7544   0.119   3.354   7.364  1.5449 -1.2795  1.7857
   29MOL   H209 7545   0.071   3.233   7.256 -1.4672 -0.4676  0.3595
   29MOL   C210 7546   0.016   3.189   7.469  0.6031  0.0984  0.9543
   29MOL   N211 7547   7.756   3.099   7.405 -0.6944 -0.5184 -0.1840
   29MOL   C212 7548   7.777   2.975   7.365 -0.4897  0.2145  0.2047
   29MOL   O213 7549   0.039   2.906   7.401  0.3823  0.0996 -0.1748
   29MOL   C214 7550   7.676   2.926   7.271 -0.4347  0.7884  0.0320
   29MOL   C215 7551   7.788   3.294   7.560 -0.0656 -0.0803  0.6934
   29MOL   H216 7552   0.082   3.135   7.536  0.6713  2.9582  3.3192
   29MOL   H217 7553   7.670   3.139   7.370 -0.7509 -1.7727 -1.4865
   29MOL   H218 7554   7.575   2.942   7.309  0.5355  0.7593  2.7619
   29MOL   H219 7555   7.693   2.966   7.172 -0.1045  0.9785  0.1647
   29MOL   H220 7556   7.688   2.820   7.247 -1.4219  1.3240 -2.9470
   29MOL   H221 7557   7.740   3.368   7.497  0.3375 -1.7478 -1.6171
   29MOL   H222 7558   7.693   3.250   7.591 -1.2051  1.0003 -1.1692
   29MOL   C223 7559   0.031   3.333   7.682 -0.0950  0.7174 -0.7612
   29MOL   N224 7560   0.013   3.230   7.788 -0.6311  0.1845  0.4426
   29MOL   C225 7561   0.109   3.162   0.014 -0.6278  0.3762  0.3560
   29MOL   O226 7562   0.226   3.149   7.824 -0.2242  0.0212 -0.0965
   29MOL   C227 7563   0.060   3.072   0.124  0.0081 -0.5498 -0.4323
   29MOL   C228 7564   7.835   3.469   7.742  0.2026 -0.0870 -0.0408
   29MOL   H229 7565   0.134   3.339   7.647  0.0325 -0.4989 -0.6155
   29MOL   H230 7566   7.754   3.224   7.809 -0.6578  2.2381  0.9626
   29MOL   H231 7567   0.136   2.998   0.148 -1.2115 -1.5600  0.3898
   29MOL   H232 7568   0.029   3.131   0.210  0.9277  1.3230 -1.3744
   29MOL   H233 7569   7.805   3.023   0.100 -0.9049  0.3815  1.2131
   29MOL   H234 7570   0.016   3.543   7.665 -0.7459 -0.8629 -1.0658
   29MOL   H235 7571   7.731   3.468   7.774  0.3523  2.7053  0.6167
   29MOL   C236 7572   0.071   3.510   0.038  0.2036 -0.5813 -0.1168
   29MOL   N237 7573   0.021   3.644   0.075 -0.5997  0.7426  0.4319
   29MOL   C238 7574   7.769   3.667   0.170 -0.1809 -0.3074 -0.2029
   29MOL   O239 7575   7.748   3.591   0.264  0.2041  0.0877 -0.5435
   29MOL   C240 7576   7.686   3.791   0.157 -0.1806 -0.1341 -0.0239
   29MOL   C241 7577   0.224   3.517   0.011 -0.2026  1.2221  0.0369
   29MOL   H242 7578   0.050   3.443   0.121 -2.3294 -0.3868 -0.5736
   29MOL   H243 7579   0.031   3.715   0.004 -2.1331  0.3872 -0.1417
   29MOL   H244 7580   7.736   3.887   0.172 -0.2154 -0.0630 -0.3761
   29MOL   H245 7581   7.643   3.800   0.057  0.2456  1.7285 -0.0509
   29MOL   H246 7582   7.611   3.797   0.236 -1.0424 -1.8132 -0.6957
   29MOL   H247 7583   0.256   3.417   7.824 -0.7757  0.7640  1.0305
   29MOL   H248 7584   0.243   3.571   7.758 -1.9960  0.8295 -0.5796
   29MOL   C249 7585   0.316   3.568   0.127  0.2921  0.0928 -0.1530
   29MOL   N250 7586   0.451   3.520   0.101 -0.0256 -0.0462  0.1344
   29MOL   C251 7587   0.551   3.578   0.030  0.0446  0.6482  0.3725
   29MOL   O252 7588   0.534   3.682   7.805 -0.1378 -0.3406 -0.0754
   29MOL   C253 7589   0.691   3.514   0.031  0.1493 -0.5626 -0.4488
   29MOL   C254 7590   0.270   3.510   0.266 -0.2825 -0.2031 -0.3566
   29MOL   H255 7591   0.326   3.677   0.133  2.7166 -0.0475 -0.7679
   29MOL   H256 7592   0.464   3.430   0.145  0.6228 -0.2866 -0.5398
   29MOL   H257 7593   0.713   3.493   7.766  0.7744 -1.3683 -0.1589
   29MOL   H258 7594   0.781   3.563   0.070  0.6987 -1.7060 -0.2525
   29MOL   H259 7595   0.694   3.420   0.086 -1.1618  0.3979  1.3225
   29MOL   H260 7596   0.293   3.404   0.271  3.3530  0.3628 -3.0439
   29MOL   H261 7597   0.333   3.558   0.341 -1.3560  2.3201 -0.9891
   29MOL   H262 7598   0.169   3.527   0.304 -0.3007 -0.1467 -0.4303
   30MOL     C1 7599   7.126   7.335   1.688 -1.0027 -0.3461  0.6661
   30MOL     N2 7600   7.222   7.388   1.588 -0.2447 -0.1059  0.2554
   30MOL     C3 7601   7.306   7.488   1.609  0.2937  0.2807 -0.1245
   30MOL     O4 7602   7.286   7.572   1.700  0.2862 -0.4198  0.1059
   30MOL     C5 7603   7.437   7.491   1.528 -0.5554 -0.1537 -0.0262
   30MOL     C6 7604   7.185   7.272   1.821  0.5786 -0.1344  0.0123
   30MOL     H7 7605   7.073   7.423   1.725  0.2025  0.5591  0.2589
   30MOL     H8 7606   7.246   7.324   1.513  0.3335 -1.0752  1.2353
   30MOL     H9 7607   7.470   7.389   1.506 -1.8191 -0.1130 -2.3261
   30MOL    H10 7608   7.425   7.558   1.443  0.5289 -0.5480 -0.5008
   30MOL    H11 7609   7.509   7.538   1.594  1.1323 -2.0242 -0.4639
   30MOL    H12 7610   7.197   7.349   1.898  1.2825  0.4302 -0.6519
   30MOL    H13 7611   7.097   7.213   1.846  0.9979 -2.0860 -2.9520
   30MOL    H14 7612   7.042   7.283   1.642 -0.8866  1.3540 -1.5602
   30MOL    C15 7613   7.304   7.184   1.788  0.2481 -0.3592  0.1762
   30MOL    N16 7614   7.274   7.094   1.674  0.0580 -0.4627 -0.1376
   30MOL    C17 7615   7.359   7.065   1.574  0.8496 -0.1721 -0.3821
   30MOL    O18 7616   7.474   7.112   1.577  0.9498 -0.4864  0.8549
   30MOL    C19 7617   7.299   6.983   1.460 -0.5176 -0.0070  0.0700
   30MOL    C20 7618   7.345   7.098   1.918  0.2478  0.0703  0.3063
   30MOL    H21 7619   7.395   7.236   1.758 -0.2565  0.0566 -0.6554
   30MOL    H22 7620   7.187   7.042   1.670  0.2296 -0.7959  0.3831
   30MOL    H23 7621   7.231   7.043   1.399  1.8690  0.7832 -1.9309
   30MOL    H24 7622   7.381   6.953   1.394 -0.5149  0.3766 -0.1025
   30MOL    H25 7623   7.231   6.902   1.485 -1.6445  1.2668  1.2377
   30MOL    H26 7624   7.260   7.066   1.977 -0.5755  0.2633 -0.7648
   30MOL    H27 7625   7.399   7.009   1.888 -0.2939 -0.9910  2.3665
   30MOL    C28 7626   7.432   7.180   2.016 -0.1895  0.0697 -0.5724
   30MOL    N29 7627   7.543   7.098   2.076 -0.0384 -1.1536 -0.8081
   30MOL    C30 7628   7.671   7.124   2.100  0.5935  0.1525  0.2194
   30MOL    O31 7629   7.708   7.238   2.084  0.0031 -0.8443 -0.4428
   30MOL    C32 7630   7.778   7.014   2.129  0.0577  0.2210 -0.1452
   30MOL    C33 7631   7.351   7.260   2.125  0.8233 -0.0705  0.2078
   30MOL    H34 7632   7.491   7.246   1.952 -1.1275 -0.3251 -1.8657
   30MOL    H35 7633   7.519   7.000   2.076 -0.4447 -1.0850 -3.0707
   30MOL    H36 7634   0.031   7.055   2.087 -0.9344  1.8239 -0.8011
   30MOL    H37 7635   7.804   6.994   2.233 -2.8211  0.3426  0.6366
   30MOL    H38 7636   7.754   6.924   2.072 -4.4231  1.0977  0.1843
   30MOL    H39 7637   7.245   7.250   2.100  1.2799 -0.7162 -1.5641
   30MOL    H40 7638   7.349   7.199   2.215 -2.0032 -2.3636 -1.3157
   30MOL    C41 7639   7.399   7.404   2.155 -0.3514 -0.4070 -0.4562
   30MOL    N42 7640   7.346   7.470   2.277  0.2491  0.5640 -0.2688
   30MOL    C43 7641   7.216   7.482   2.306  0.8798 -0.0392  0.3118
   30MOL    O44 7642   7.128   7.436   2.239  0.8467 -0.4063  0.0878
   30MOL    C45 7643   7.190   7.562   2.431  0.5161  0.0161  0.3072
   30MOL    C46 7644   7.371   7.506   2.040 -0.5569  0.3028 -0.8346
   30MOL    H47 7645   7.506   7.399   2.172 -0.5839  1.3816  1.7923
   30MOL    H48 7646   7.409   7.507   2.347  1.4324 -0.2909 -0.8643
   30MOL    H49 7647   7.253   7.542   2.518  1.0485  1.4855  0.2713
   30MOL    H50 7648   7.187   7.666   2.400  1.4435 -0.6123 -1.9296
   30MOL    H51 7649   7.089   7.541   2.468 -0.1909  2.0681 -0.3782
   30MOL    H52 7650   7.404   7.470   1.942 -1.1830  0.1055 -0.9698
   30MOL    H53 7651   7.264   7.526   2.040 -0.4014  1.1698 -0.4262
   30MOL    C54 7652   7.444   7.644   2.058 -0.4753  0.0677  0.4460
   30MOL    N55 7653   7.361   7.744   1.987  0.4856  0.6481  0.2147
   30MOL    C56 7654   7.333   0.035   2.017  0.3714  0.1343 -0.4550
   30MOL    O57 7655   7.390   0.099   2.113  0.4027  0.2162  0.3797
   30MOL    C58 7656   7.243   0.110   1.918  0.5765  0.5512  0.1082
   30MOL    C59 7657   7.594   7.644   2.019  0.1029 -0.7594 -0.1781
   30MOL    H60 7658   7.450   7.674   2.162  2.2531  0.3506  0.2367
   30MOL    H61 7659   7.296   7.701   1.922 -1.6796 -0.2490  2.8501
   30MOL    H62 7660   7.205   0.206   1.954  0.1870  1.6239 -3.0183
   30MOL    H63 7661   7.291   0.107   1.821 -1.7628 -2.5159 -1.0428
   30MOL    H64 7662   7.148   0.057   1.910  0.2041  0.6868  3.1215
   30MOL    H65 7663   7.622   7.539   2.014  3.2309 -0.0648  1.6271
   30MOL    H66 7664   7.605   7.677   1.916  2.6280 -0.7473  0.0645
   30MOL    C67 7665   7.700   7.705   2.125 -0.2384 -0.3226  0.2376
   30MOL    N68 7666   7.667   0.005   2.150  0.0885 -0.2598  0.2549
   30MOL    C69 7667   7.697   0.075   2.262 -0.3133  0.7052  0.0987
   30MOL    O70 7668   7.779   0.034   2.349 -0.0809 -0.5499  0.3061
   30MOL    C71 7669   7.623   0.209   2.274  0.4129  0.8948  0.0998
   30MOL    C72 7670   0.010   7.694   2.087 -0.0003  0.2732  0.7054
   30MOL    H73 7671   7.693   7.658   2.222 -0.3075  1.4586  1.1217
   30MOL    H74 7672   7.616   0.059   2.081 -0.1303 -0.6476  0.1077
   30MOL    H75 7673   7.603   0.233   2.170  0.4546  0.7415  0.0555
   30MOL    H76 7674   7.527   0.189   2.322  0.6404 -0.5538 -0.0125
   30MOL    H77 7675   7.679   0.288   2.323  1.4896  2.7093 -3.8959
   30MOL    H78 7676   0.033   7.746   1.994 -1.7881  0.3326  0.2870
   30MOL    H79 7677   0.074   7.732   2.167  0.1013  2.0780 -0.1915
   30MOL    C80 7678   0.071   7.549   2.081 -0.0277 -0.6560 -0.2095
   30MOL    N81 7679   0.007   7.457   1.982 -0.0694 -0.7078  0.4152
   30MOL    C82 7680   0.034   7.442   1.854 -0.2659  0.3097  0.0458
   30MOL    O83 7681   0.105   7.515   1.792  0.1282 -0.8647  0.0646
   30MOL    C84 7682   7.811   7.329   1.780  0.1931 -0.1716  0.6416
   30MOL    C85 7683   0.056   7.482   2.226  0.5208 -0.1561  0.6143
   30MOL    H86 7684   0.176   7.564   2.058 -0.1173  2.0067  0.9935
   30MOL    H87 7685   7.787   7.384   2.018 -1.9673 -0.3831 -1.9869
   30MOL    H88 7686   0.016   7.239   1.821 -1.4931 -1.0105  0.6598
   30MOL    H89 7687   7.704   7.341   1.800 -0.4941 -2.1667 -1.6212
   30MOL    H90 7688   7.827   7.321   1.672  1.5682 -2.9089  1.0035
   30MOL    H91 7689   7.789   7.485   2.250 -0.5212 -0.3173 -3.5961
   30MOL    H92 7690   0.078   7.376   2.215  0.6792  0.1111 -1.8052
   30MOL    C93 7691   0.153   7.525   2.336  0.5233  0.9081  0.1945
   30MOL    N94 7692   0.288   7.487   2.286  0.5139 -0.4009  0.0537
   30MOL    C95 7693   0.398   7.558   2.310  0.3917  0.0969 -0.3787
   30MOL    O96 7694   0.390   7.660   2.374  0.2845  0.0060 -0.2568
   30MOL    C97 7695   0.534   7.519   2.250  0.0592  0.1300 -0.6654
   30MOL    C98 7696   0.118   7.448   2.467  0.4306 -0.4104  0.4125
   30MOL    H99 7697   0.140   7.630   2.360 -0.8541  0.3658  1.9423
   30MOL   H100 7698   0.300   7.398   2.238  0.7418  0.5832 -1.7770
   30MOL   H101 7699   0.602   7.500   2.333 -1.7404 -0.6671  0.6388
   30MOL   H102 7700   0.535   7.423   2.199  1.7841 -1.0082  1.4150
   30MOL   H103 7701   0.570   7.601   2.188  0.3067  0.5445  0.0255
   30MOL   H104 7702   0.143   7.342   2.457 -0.2503 -0.3657 -1.9409
   30MOL   H105 7703   0.185   7.495   2.539  1.5219  0.6147 -1.2438
   30MOL   C106 7704   7.808   7.441   2.519  0.1776  0.4704 -0.4368
   30MOL   N107 7705   7.741   7.572   2.529  0.1819  0.6127  0.1619
   30MOL   C108 7706   7.610   7.580   2.508 -0.4302 -0.5765 -0.0357
   30MOL   O109 7707   7.547   7.485   2.470 -0.2799  0.8153 -0.3059
   30MOL   C110 7708   7.541   7.713   2.527  0.4864  0.3577  0.3130
   30MOL   C111 7709   7.807   7.366   2.655  0.3970  0.3834  0.2375
   30MOL   H112 7710   7.758   7.381   2.443 -2.7536  0.5936  1.3023
   30MOL   H113 7711   7.797   7.655   2.542  1.1475  0.1283 -0.9120
   30MOL   H114 7712   7.471   7.708   2.611  0.1708 -1.3459 -0.0251
   30MOL   H115 7713   7.608   7.787   2.571  0.5401  1.0132 -0.8689
   30MOL   H116 7714   7.498   7.742   2.432 -2.1256 -2.0920  0.6851
   30MOL   H117 7715   0.061   7.374   2.710  0.0677  2.4960  0.5167
   30MOL   H118 7716   7.736   7.413   2.723  1.1089  1.3538  0.3169
   30MOL   C119 7717   7.762   7.217   2.635  0.5630 -0.7245 -0.8640
   30MOL   N120 7718   7.633   7.221   2.582  0.1595 -0.2850  0.3391
   30MOL   C121 7719   7.586   7.142   2.487  0.5237  0.1094 -0.0691
   30MOL   O122 7720   7.644   7.046   2.434  0.5990 -0.0096  0.1356
   30MOL   C123 7721   7.445   7.171   2.448  0.2073  0.8852 -0.5245
   30MOL   C124 7722   7.766   7.140   2.764  0.5427  0.1158  0.5859
   30MOL   H125 7723   7.818   7.181   2.549 -0.6819 -0.5877 -1.7404
   30MOL   H126 7724   7.571   7.298   2.605  0.8375  0.1615  0.6899
   30MOL   H127 7725   7.399   7.089   2.391  0.6460  0.4390 -0.2368
   30MOL   H128 7726   7.379   7.200   2.529  0.2135 -1.7572  0.4891
   30MOL   H129 7727   7.445   7.261   2.387  0.2121  1.5876  0.5134
   30MOL   H130 7728   7.692   7.183   2.832 -0.5814  1.0717 -1.1913
   30MOL   H131 7729   7.719   7.042   2.753  0.2098  0.2428  0.8609
   30MOL   C132 7730   0.068   7.122   2.839 -0.2016  0.5875 -0.1851
   30MOL   N133 7731   0.176   7.066   2.748 -0.1850 -0.1923  0.8247
   30MOL   C134 7732   0.266   7.138   2.680  0.1484  0.1621  0.0164
   30MOL   O135 7733   0.275   7.261   2.686 -0.4022 -0.2465  0.3794
   30MOL   C136 7734   0.359   7.048   2.595 -0.0940 -0.2943 -0.0067
   30MOL   C137 7735   0.062   7.055   2.976  0.0694  0.6492  0.9180
   30MOL   H138 7736   0.098   7.226   2.854  4.5565 -0.7858  0.6959
   30MOL   H139 7737   0.177   6.966   2.734  3.9050 -0.0998 -0.0183
   30MOL   H140 7738   0.419   6.980   2.656  0.3120  0.3381  0.3079
   30MOL   H141 7739   0.309   6.989   2.518  1.2266  0.2417 -1.3050
   30MOL   H142 7740   0.427   7.107   2.534 -2.0759  2.0585 -0.0005
   30MOL   H143 7741   0.145   7.104   3.026  0.9471 -0.8006  0.9228
   30MOL   H144 7742   7.818   7.086   3.039 -1.0695 -2.7695  1.2033
   30MOL   C145 7743   0.064   6.903   2.996  0.1581  0.4383  0.6081
   30MOL   N146 7744   0.194   6.846   2.947 -0.4788 -0.0268  0.6034
   30MOL   C147 7745   0.293   6.800   3.026 -0.0176 -0.0049  0.6208
   30MOL   O148 7746   0.296   6.811   3.145  0.6174 -0.5494 -0.4752
   30MOL   C149 7747   0.405   6.719   2.956 -0.2183 -0.2016 -0.6637
   30MOL   C150 7748   7.781   6.843   2.925 -1.1936  0.1806  0.2482
   30MOL   H151 7749   0.053   6.886   3.103  0.9170  0.8368  0.7555
   30MOL   H152 7750   0.184   6.814   2.851  0.6636  0.9013  0.1549
   30MOL   H153 7751   0.487   6.790   2.945  0.3605 -0.4698  1.5969
   30MOL   H154 7752   0.440   6.636   3.017 -0.9622  1.0252  1.5050
   30MOL   H155 7753   0.378   6.682   2.857 -0.2947 -1.7053 -0.0906
   30MOL   H156 7754   7.809   6.837   2.820 -0.8970 -1.6714  0.4133
   30MOL   H157 7755   7.782   6.736   2.946  1.4637  0.9173  4.3421
   30MOL   C158 7756   7.638   6.900   2.963  0.2473  0.7919 -0.2647
   30MOL   N159 7757   7.616   6.888   3.107 -0.2495  0.2150 -0.2626
   30MOL   C160 7758   7.577   6.986   3.189 -0.0156 -0.0040 -0.6971
   30MOL   O161 7759   7.563   7.102   3.147 -0.0726  0.5828 -0.7311
   30MOL   C162 7760   7.554   6.936   3.338  0.0119  0.4921  0.1059
   30MOL   C163 7761   7.529   6.812   2.896  0.6242  0.6190  0.7151
   30MOL   H164 7762   7.624   7.006   2.941 -1.3430  0.6184 -0.1845
   30MOL   H165 7763   7.643   6.799   3.145 -1.4306 -0.4955 -1.0823
   30MOL   H166 7764   7.520   7.026   3.389  0.9213 -0.2416  2.0625
   30MOL   H167 7765   7.495   6.846   3.353 -0.5619  0.6388 -1.1793
   30MOL   H168 7766   7.654   6.919   3.380 -0.3846  0.9864  1.2643
   30MOL   H169 7767   7.525   6.705   2.911 -1.5971  0.6654  0.6421
   30MOL   H170 7768   7.442   6.854   2.948 -1.5995 -1.3718 -1.2823
   30MOL   C171 7769   7.501   6.842   2.742 -0.0252  0.6126 -0.0902
   30MOL   N172 7770   7.356   6.853   2.722  0.0161  0.0871 -0.1775
   30MOL   C173 7771   7.287   6.961   2.751  0.3287  0.5661  0.6001
   30MOL   O174 7772   7.171   6.971   2.716 -0.0240  0.0836 -0.3819
   30MOL   C175 7773   7.357   7.070   2.832 -0.1386  0.2496 -0.3736
   30MOL   C176 7774   7.552   6.721   2.651 -0.8319  0.1390 -0.0841
   30MOL   H177 7775   7.557   6.932   2.718 -1.2776  1.4968  0.2430
   30MOL   H178 7776   7.315   6.769   2.683 -0.2957  0.1262  0.0648
   30MOL   H179 7777   7.454   7.101   2.793 -0.5454  0.6626 -1.0732
   30MOL   H180 7778   7.294   7.158   2.819  1.7254  1.5068 -1.0230
   30MOL   H181 7779   7.380   7.058   2.938  1.5654  0.5361 -0.6907
   30MOL   H182 7780   7.658   6.709   2.677 -0.3192  0.5628 -1.9086
   30MOL   H183 7781   7.498   6.631   2.681  0.2082  0.1555  1.9909
   30MOL   C184 7782   7.553   6.735   2.499 -0.0142 -0.2011 -0.1801
   30MOL   N185 7783   7.425   6.773   2.430 -0.3658 -0.3739 -1.2952
   30MOL   C186 7784   7.311   6.711   2.449  0.4503  0.8043 -0.1661
   30MOL   O187 7785   7.288   6.627   2.539 -0.5171 -0.5498 -0.3068
   30MOL   C188 7786   7.196   6.751   2.351  0.0583  0.3087 -0.2446
   30MOL   C189 7787   7.626   6.619   2.418  0.3759 -0.3851 -1.0607
   30MOL   H190 7788   7.615   6.824   2.485 -1.2146  0.8537  1.1611
   30MOL   H191 7789   7.445   6.831   2.350  0.8812  0.9235 -0.0563
   30MOL   H192 7790   7.216   6.836   2.286 -1.9144  2.4094  1.8112
   30MOL   H193 7791   7.167   6.667   2.288 -0.9268 -0.7341  1.5526
   30MOL   H194 7792   7.108   6.785   2.405  0.0643 -1.4076  0.8819
   30MOL   H195 7793   7.558   6.534   2.424 -0.1867  0.0712 -1.0080
   30MOL   H196 7794   7.612   6.657   2.317 -0.1797  0.3626 -0.7070
   30MOL   C197 7795   7.774   6.595   2.448 -0.0530 -0.6987  0.6682
   30MOL   N198 7796   7.837   6.552   2.322  0.9660 -0.3705 -0.2572
   30MOL   C199 7797   0.099   6.605   2.260 -1.3023  0.5829  0.0067
   30MOL   O200 7798   0.124   6.723   2.263 -0.4339 -0.6984  0.4591
   30MOL   C201 7799   0.184   6.503   2.186  0.1929 -0.6450  0.1015
   30MOL   C202 7800   7.802   6.492   2.563  0.0704  0.4270  0.7520
   30MOL   H203 7801   7.813   6.691   2.481 -0.4586 -0.2043 -0.2951
   30MOL   H204 7802   7.826   6.454   2.300  0.1662  0.3256 -3.0689
   30MOL   H205 7803   0.285   6.534   2.162 -0.1694  1.9413  1.7401
   30MOL   H206 7804   0.179   6.413   2.248 -3.1179 -2.0002 -1.9843
   30MOL   H207 7805   0.131   6.488   2.092  0.8748 -3.0824  0.0721
   30MOL   H208 7806   7.715   6.436   2.596  0.5473  0.8854  2.8414
   30MOL   H209 7807   0.021   6.406   2.530 -1.0405  0.3053 -0.9903
   30MOL   C210 7808   0.046   6.551   2.681  1.0220  0.0671  0.9777
   30MOL   N211 7809   0.183   6.569   2.631  0.7778 -0.4184  0.2169
   30MOL   C212 7810   0.257   6.681   2.632 -0.1112 -0.0887  0.8371
   30MOL   O213 7811   0.213   6.784   2.678 -0.0401 -0.1061  0.3797
   30MOL   C214 7812   0.390   6.677   2.558  0.1924 -0.3917 -0.2624
   30MOL   C215 7813   0.055   6.465   2.814  0.0845 -0.1383 -0.5605
   30MOL   H216 7814   0.011   6.652   2.706  0.1877 -0.1393  0.6524
   30MOL   H217 7815   0.218   6.490   2.579 -0.3976 -0.7385 -0.0994
   30MOL   H218 7816   0.419   6.572   2.550  0.7872 -0.0503 -3.3797
   30MOL   H219 7817   0.372   6.714   2.457  2.8018  1.3725 -0.1173
   30MOL   H220 7818   0.461   6.740   2.612 -1.0971 -0.1303  1.1551
   30MOL   H221 7819   0.116   6.380   2.782  0.2296  0.9250 -3.2821
   30MOL   H222 7820   0.107   6.527   2.886 -0.7061  0.6325 -0.6484
   30MOL   C223 7821   7.757   6.406   2.872  0.1791  0.1234  0.9745
   30MOL   N224 7822   7.765   6.388   3.019  0.4295 -0.2106 -0.1006
   30MOL   C225 7823   7.710   6.470   3.107 -0.5318 -0.2424 -0.7178
   30MOL   O226 7824   7.647   6.569   3.071  0.2139 -0.4800  0.2800
   30MOL   C227 7825   7.741   6.449   3.254 -0.0509 -0.6376 -0.0201
   30MOL   C228 7826   7.738   6.265   2.816  0.5509 -0.8722 -0.0601
   30MOL   H229 7827   7.680   6.478   2.845  0.5373  0.0052 -0.3635
   30MOL   H230 7828   7.826   6.313   3.049  0.0268 -0.5520 -0.1249
   30MOL   H231 7829   7.670   6.389   3.311 -0.8001 -0.7150 -1.0098
   30MOL   H232 7830   7.839   6.403   3.263  0.2973 -0.2647 -1.6919
   30MOL   H233 7831   7.736   6.543   3.309 -1.7788 -1.6281  1.5682
   30MOL   H234 7832   7.783   6.260   2.717  2.1272  1.3175  0.5085
   30MOL   H235 7833   7.786   6.184   2.871 -2.2398 -2.3882  0.2425
   30MOL   C236 7834   7.589   6.218   2.802 -0.4376  0.3232 -0.5121
   30MOL   N237 7835   7.602   6.069   2.786 -0.4658  0.0881 -0.3511
   30MOL   C238 7836   7.514   5.977   2.828 -0.8699  0.0354 -0.4343
   30MOL   O239 7837   7.406   6.004   2.885  0.0647 -0.2912 -0.2185
   30MOL   C240 7838   7.549   5.833   2.810 -0.5642 -0.7935  0.1959
   30MOL   C241 7839   7.510   6.271   2.682  0.8783 -0.0625  0.3125
   30MOL   H242 7840   7.545   6.239   2.900  0.3548 -0.2950 -0.0184
   30MOL   H243 7841   7.692   6.043   2.748 -0.4500  0.6584 -0.7109
   30MOL   H244 7842   7.500   5.762   2.876  1.2582 -2.8094 -0.5531
   30MOL   H245 7843   7.532   5.798   2.708 -0.9418  0.0023 -0.0201
   30MOL   H246 7844   7.656   5.818   2.819 -0.8002 -0.7441  3.6060
   30MOL   H247 7845   7.526   6.379   2.683 -1.2514  0.2650  1.8850
   30MOL   H248 7846   7.552   6.226   2.592 -3.7564 -0.6994 -1.6312
   30MOL   C249 7847   7.362   6.244   2.661 -0.2828 -0.1401  0.3297
   30MOL   N250 7848   7.326   6.320   2.540  0.5687  0.2294  0.5397
   30MOL   C251 7849   7.322   6.261   2.412  0.4207  0.0623 -0.3460
   30MOL   O252 7850   7.313   6.140   2.403  0.0844  0.3659  0.0614
   30MOL   C253 7851   7.318   6.350   2.292 -0.1514 -0.4597  0.7189
   30MOL   C254 7852   7.272   6.284   2.774 -0.3664 -1.0086 -0.4689
   30MOL   H255 7853   7.358   6.136   2.653  0.3042 -0.3986  2.9456
   30MOL   H256 7854   7.302   6.417   2.549 -1.7621 -0.2789  0.1039
   30MOL   H257 7855   7.323   6.311   2.190 -0.9586  0.5657  0.2803
   30MOL   H258 7856   7.258   6.440   2.307  1.6141  1.1696 -1.5930
   30MOL   H259 7857   7.417   6.396   2.291 -0.8712  1.1249 -0.8139
   30MOL   H260 7858   7.287   6.389   2.798  0.5594 -0.9118 -1.4540
   30MOL   H261 7859   7.167   6.264   2.752 -0.8665  1.4360 -0.4505
   30MOL   H262 7860   7.293   6.235   2.869 -0.8083 -3.1773 -1.4561
   31MOL     C1 7861   2.925   5.636   5.517 -0.1972  0.2904  0.4177
   31MOL     N2 7862   3.070   5.641   5.534 -0.0991  0.1242  0.3209
   31MOL     C3 7863   3.155   5.608   5.434  0.1034 -0.7354 -0.6165
   31MOL     O4 7864   3.132   5.594   5.314 -0.0344 -0.1394  0.1307
   31MOL     C5 7865   3.298   5.607   5.478  1.1337  0.3642  0.5000
   31MOL     C6 7866   2.881   5.782   5.509  0.2358 -0.2819  0.5655
   31MOL     H7 7867   2.890   5.575   5.433  1.8026 -0.5673  0.1815
   31MOL     H8 7868   3.099   5.656   5.630 -0.5687 -0.1799  0.5180
   31MOL     H9 7869   3.347   5.520   5.434  1.3780  0.6460  0.2156
   31MOL    H10 7870   3.347   5.698   5.441 -0.3693  0.8170 -0.3820
   31MOL    H11 7871   3.315   5.604   5.586 -0.2289  2.1690  0.7882
   31MOL    H12 7872   2.925   5.838   5.591  0.9247 -1.7335  1.2065
   31MOL    H13 7873   2.927   5.821   5.419 -0.7519  0.8952  0.5702
   31MOL    H14 7874   2.880   5.601   5.610 -0.0713 -0.1689  0.3056
   31MOL    C15 7875   2.725   5.809   5.512  0.2497  0.4111  0.8582
   31MOL    N16 7876   2.650   5.714   5.432  0.1443  0.8894 -0.1101
   31MOL    C17 7877   2.548   5.637   5.476  0.0394  0.4881 -0.3334
   31MOL    O18 7878   2.511   5.624   5.592  0.0785  0.5204 -0.0692
   31MOL    C19 7879   2.484   5.554   5.373 -0.4265  0.4189  0.2391
   31MOL    C20 7880   2.688   5.952   5.467  0.0824 -0.6895  0.0069
   31MOL    H21 7881   2.688   5.799   5.614 -0.6223  1.6525  0.6680
   31MOL    H22 7882   2.668   5.705   5.333  0.0858 -0.6937  0.0207
   31MOL    H23 7883   2.562   5.520   5.304 -0.9066  0.4354 -0.3131
   31MOL    H24 7884   2.452   5.468   5.433  0.2813  1.7962  2.6382
   31MOL    H25 7885   2.399   5.600   5.324 -2.5641 -2.5109  1.0815
   31MOL    H26 7886   2.769   6.020   5.495 -1.6234  1.2691  0.2493
   31MOL    H27 7887   2.681   5.953   5.359  1.1766  0.6922 -0.0719
   31MOL    C28 7888   2.555   6.002   5.517  0.2443 -0.1237  0.0401
   31MOL    N29 7889   2.495   6.096   5.424 -0.2765 -0.4521 -0.5016
   31MOL    C30 7890   2.376   6.093   5.372  0.6545 -0.2593  0.2746
   31MOL    O31 7891   2.312   5.992   5.393 -0.0587  0.5773 -0.0809
   31MOL    C32 7892   2.322   6.219   5.302 -0.0387  0.0596 -0.0550
   31MOL    C33 7893   2.568   6.065   5.659  0.0297 -0.2105  0.4156
   31MOL    H34 7894   2.505   5.905   5.521  1.8566 -1.0187 -0.8867
   31MOL    H35 7895   2.543   6.183   5.405  1.9824 -1.9150 -1.6807
   31MOL    H36 7896   2.340   6.308   5.363  0.6011  0.0013 -0.1615
   31MOL    H37 7897   2.385   6.230   5.214 -0.6792  2.0588 -0.2717
   31MOL    H38 7898   2.215   6.218   5.281  0.1998 -0.3524 -1.2639
   31MOL    H39 7899   2.663   6.036   5.702  0.0865 -0.1109  0.3566
   31MOL    H40 7900   2.582   6.172   5.650 -0.3123  0.0734  2.8726
   31MOL    C41 7901   2.458   6.046   5.763 -0.8160 -0.2177  0.1816
   31MOL    N42 7902   2.327   6.060   5.694  0.8881 -0.3195  0.0569
   31MOL    C43 7903   2.212   6.015   5.741 -1.1237  0.7532  0.5674
   31MOL    O44 7904   2.196   5.963   5.847 -0.0734  0.2671  0.2654
   31MOL    C45 7905   2.101   6.041   5.649  0.2193  0.3228  0.1699
   31MOL    C46 7906   2.467   6.156   5.872  0.0426 -0.4637 -0.7260
   31MOL    H47 7907   2.467   5.944   5.801 -2.4775 -0.5531 -0.2728
   31MOL    H48 7908   2.324   6.091   5.598 -1.4153  0.9995  0.5177
   31MOL    H49 7909   2.124   6.110   5.568 -0.1089  0.2727  0.0326
   31MOL    H50 7910   2.085   5.943   5.602  0.9080 -0.4165  1.4629
   31MOL    H51 7911   2.015   6.082   5.702  0.3449  1.3020 -0.3757
   31MOL    H52 7912   2.512   6.248   5.835 -0.0635  0.4648  1.3769
   31MOL    H53 7913   2.366   6.178   5.907 -0.1517 -3.4235  0.7990
   31MOL    C54 7914   2.553   6.116   5.989  0.8314  0.5746 -0.2004
   31MOL    N55 7915   2.465   6.056   6.086 -0.0241 -0.7097  0.2170
   31MOL    C56 7916   2.504   6.009   6.203  0.2492 -0.2274  0.0652
   31MOL    O57 7917   2.620   5.988   6.236 -0.3680 -0.4642  0.1172
   31MOL    C58 7918   2.396   5.996   6.302  0.5887  0.8947  0.0191
   31MOL    C59 7919   2.620   6.248   6.051 -0.6223 -0.3192  0.7706
   31MOL    H60 7920   2.628   6.047   5.950 -0.3480 -0.6727 -0.2646
   31MOL    H61 7921   2.368   6.057   6.058 -0.0253  0.3053  0.2214
   31MOL    H62 7922   2.370   6.091   6.347  1.5528  0.4420  1.5785
   31MOL    H63 7923   2.302   5.966   6.256 -0.5994  2.3017  1.4528
   31MOL    H64 7924   2.421   5.928   6.384 -1.2837 -0.5353 -0.5608
   31MOL    H65 7925   2.543   6.325   6.046  0.0800  0.3390  0.1653
   31MOL    H66 7926   2.637   6.234   6.158  0.2712  0.0696  0.6828
   31MOL    C67 7927   2.752   6.300   5.986 -0.1852  0.1392 -0.2476
   31MOL    N68 7928   2.847   6.188   5.968 -0.9886 -0.7230 -0.1238
   31MOL    C69 7929   2.888   6.134   5.850 -0.0236  0.4257 -0.5280
   31MOL    O70 7930   2.868   6.183   5.740  0.0134  0.1085 -0.5406
   31MOL    C71 7931   2.979   6.018   5.862  0.2980  0.7018 -0.5768
   31MOL    C72 7932   2.810   6.416   6.067  0.2993 -0.2881 -0.2883
   31MOL    H73 7933   2.722   6.331   5.886 -0.3900 -0.9245 -0.5252
   31MOL    H74 7934   2.897   6.154   6.049  0.2495  0.1067 -0.5165
   31MOL    H75 7935   3.066   6.032   5.926 -0.0570  1.4926 -0.2558
   31MOL    H76 7936   2.920   5.943   5.916 -0.3688  0.8824 -1.0455
   31MOL    H77 7937   3.004   5.977   5.764  0.1258  1.1476 -0.8108
   31MOL    H78 7938   2.729   6.486   6.089  1.1960  0.1107  1.8770
   31MOL    H79 7939   2.832   6.375   6.166  0.5315 -1.0491 -0.6517
   31MOL    C80 7940   2.926   6.490   5.999  0.1384  0.0717  0.5606
   31MOL    N81 7941   2.939   6.470   5.855 -0.3149  0.2033 -0.1354
   31MOL    C82 7942   2.982   6.559   5.768  0.0454 -0.4746 -0.5985
   31MOL    O83 7943   3.005   6.675   5.797 -0.1500 -0.2978 -0.0386
   31MOL    C84 7944   2.993   6.523   5.624  0.2105  0.4488  0.6149
   31MOL    C85 7945   3.059   6.472   6.075  0.1953  0.2889 -0.1673
   31MOL    H86 7946   2.897   6.595   6.001  1.0414  0.3349  0.2441
   31MOL    H87 7947   2.945   6.371   5.835  2.0590  0.4867 -1.0033
   31MOL    H88 7948   3.096   6.517   5.590  0.8386  0.5380  2.4433
   31MOL    H89 7949   2.932   6.435   5.604  0.6153  0.6200 -1.4688
   31MOL    H90 7950   2.941   6.608   5.580  0.3288  0.3906  0.3607
   31MOL    H91 7951   3.042   6.461   6.182 -2.9173 -1.2278 -0.7864
   31MOL    H92 7952   3.096   6.372   6.052 -0.0072  0.0073  0.7164
   31MOL    C93 7953   3.167   6.578   6.080  0.3172  0.6473 -0.2463
   31MOL    N94 7954   3.116   6.710   6.039 -0.3383 -0.0138  0.3776
   31MOL    C95 7955   3.130   6.827   6.103  0.3729  0.2912  0.4016
   31MOL    O96 7956   3.194   6.840   6.206 -0.0784 -0.3971 -0.7783
   31MOL    C97 7957   3.041   6.945   6.043  0.6727 -0.7060  0.2832
   31MOL    C98 7958   3.293   6.541   6.001  0.3390  0.3065  0.1430
   31MOL    H99 7959   3.208   6.582   6.181 -2.3297 -2.0094  1.0027
   31MOL   H100 7960   3.060   6.717   5.955 -0.0856 -0.5827  0.1576
   31MOL   H101 7961   3.046   6.942   5.934 -1.4024 -0.8299  0.1697
   31MOL   H102 7962   2.937   6.923   6.068  0.3924  1.1218  0.7506
   31MOL   H103 7963   3.057   7.046   6.080  0.0179  0.1855 -1.7970
   31MOL   H104 7964   3.268   6.486   5.910  1.2160 -1.5378  0.9714
   31MOL   H105 7965   3.347   6.629   5.966  0.2027  0.1211 -0.5474
   31MOL   C106 7966   3.405   6.460   6.067  0.1348 -0.1908 -0.5325
   31MOL   N107 7967   3.526   6.489   5.988  0.5540 -0.1823 -0.0955
   31MOL   C108 7968   3.646   6.457   6.037  0.0007 -0.0086 -0.4140
   31MOL   O109 7969   3.656   6.417   6.155  0.4304  0.2284 -0.1413
   31MOL   C110 7970   3.772   6.492   5.955 -0.3139  0.5012  0.2299
   31MOL   C111 7971   3.373   6.309   6.082 -0.4004 -0.2426 -0.1449
   31MOL   H112 7972   3.427   6.509   6.161 -2.2397  1.2351 -0.6798
   31MOL   H113 7973   3.516   6.521   5.893 -4.3153 -0.5035  0.1883
   31MOL   H114 7974   3.736   6.502   5.853  0.2625 -1.6378 -0.2167
   31MOL   H115 7975   3.807   6.590   5.989 -0.1185  0.2264  0.8335
   31MOL   H116 7976   3.851   6.419   5.974 -0.1873  0.8949  1.2397
   31MOL   H117 7977   3.302   6.286   6.002 -0.5354 -1.0816  0.2149
   31MOL   H118 7978   3.460   6.249   6.054  0.4327  0.1349  1.5752
   31MOL   C119 7979   3.324   6.258   6.224 -0.5730  0.1521 -0.6084
   31MOL   N120 7980   3.382   6.340   6.331  0.2672 -0.7475  0.3984
   31MOL   C121 7981   3.321   6.364   6.444  1.1425 -1.0044 -0.4360
   31MOL   O122 7982   3.221   6.311   6.479 -0.2600  0.2341 -0.3065
   31MOL   C123 7983   3.388   6.460   6.532 -0.5041  0.1535 -0.2368
   31MOL   C124 7984   3.367   6.115   6.252 -0.5958  0.2715 -0.4775
   31MOL   H125 7985   3.216   6.261   6.233 -0.8178  0.2199 -3.1910
   31MOL   H126 7986   3.468   6.387   6.306 -0.4497  0.5791  0.3749
   31MOL   H127 7987   3.382   6.562   6.495 -0.3341 -0.1994 -1.2543
   31MOL   H128 7988   3.361   6.449   6.637 -1.9311  0.4589 -0.5708
   31MOL   H129 7989   3.496   6.443   6.536  0.2239  3.8130 -1.7542
   31MOL   H130 7990   3.474   6.116   6.233 -0.1011 -0.0217  2.1429
   31MOL   H131 7991   3.364   6.096   6.359  2.3013  2.5848  0.0718
   31MOL   C132 7992   3.289   6.005   6.162 -0.1258 -0.4482 -0.1627
   31MOL   N133 7993   3.172   5.932   6.231 -0.3880 -0.0245  0.3747
   31MOL   C134 7994   3.044   5.974   6.225 -0.1851  0.2030  0.5557
   31MOL   O135 7995   3.010   6.085   6.181 -0.0069  0.4375 -0.4506
   31MOL   C136 7996   2.933   5.880   6.275 -0.7322  0.5381  0.2009
   31MOL   C137 7997   3.379   5.895   6.091 -0.4197  0.0154  0.5431
   31MOL   H138 7998   3.239   6.062   6.083  0.1144 -1.1637 -0.8282
   31MOL   H139 7999   3.185   5.836   6.257  1.4421  0.5682  1.8212
   31MOL   H140 8000   2.966   5.778   6.299 -0.3580  0.6530  0.1767
   31MOL   H141 8001   2.895   5.917   6.370 -1.9226 -2.2159  0.8529
   31MOL   H142 8002   2.852   5.877   6.203  0.1673  2.9387 -0.9648
   31MOL   H143 8003   3.469   5.951   6.064 -0.5633 -0.8222 -1.7758
   31MOL   H144 8004   3.421   5.817   6.154  0.7605 -1.1605 -1.6623
   31MOL   C145 8005   3.326   5.827   5.961 -0.3918  0.1030 -0.6491
   31MOL   N146 8006   3.243   5.712   5.999  0.0777  0.2975  0.1137
   31MOL   C147 8007   3.150   5.665   5.916 -0.3095  0.4539  0.1813
   31MOL   O148 8008   3.138   5.705   5.799  0.3503  0.3050 -0.6303
   31MOL   C149 8009   3.057   5.553   5.973 -0.3819 -0.2521 -0.4387
   31MOL   C150 8010   3.431   5.784   5.863  0.6497  0.1219  0.4048
   31MOL   H151 8011   3.256   5.893   5.910 -1.4302 -0.7671 -0.3586
   31MOL   H152 8012   3.247   5.668   6.089 -0.1842 -1.7257 -0.8271
   31MOL   H153 8013   3.040   5.568   6.079  0.6089 -1.3980 -0.1175
   31MOL   H154 8014   2.962   5.550   5.920  0.3810 -3.2873 -1.7558
   31MOL   H155 8015   3.112   5.460   5.969 -1.3111 -0.8197 -0.1161
   31MOL   H156 8016   3.508   5.731   5.918  1.6320 -0.9405 -1.9201
   31MOL   H157 8017   3.401   5.716   5.783  1.2617 -0.5036  0.7086
   31MOL   C158 8018   3.492   5.901   5.784  0.4187  1.1632 -0.1234
   31MOL   N159 8019   3.378   5.956   5.703  0.4694  0.5203 -0.0891
   31MOL   C160 8020   3.347   6.085   5.704 -0.1666  0.8128  0.2941
   31MOL   O161 8021   3.410   6.172   5.755  0.3483 -0.5289 -0.2068
   31MOL   C162 8022   3.227   6.119   5.614  0.4266 -0.0467 -0.0640
   31MOL   C163 8023   3.605   5.867   5.681  0.4250 -0.2634 -0.5306
   31MOL   H164 8024   3.527   5.983   5.847  0.1721  0.8756  0.3864
   31MOL   H165 8025   3.338   5.894   5.635  3.3209  1.6533 -2.9507
   31MOL   H166 8026   3.254   6.191   5.537 -1.1270  0.8083  0.1533
   31MOL   H167 8027   3.182   6.034   5.564 -0.1925  0.8345 -1.0298
   31MOL   H168 8028   3.148   6.165   5.674  0.0229  1.6679 -1.8514
   31MOL   H169 8029   3.566   5.804   5.601 -3.0078  3.4257 -1.9225
   31MOL   H170 8030   3.638   5.958   5.631  2.0563  0.0429  1.0329
   31MOL   C171 8031   3.728   5.808   5.756 -0.9660 -0.6449 -0.2683
   31MOL   N172 8032   3.775   5.898   5.867 -0.7916  0.5220 -0.7196
   31MOL   C173 8033   3.786   5.854   5.994  1.2517  0.5717 -0.7409
   31MOL   O174 8034   3.756   5.746   6.039  0.1511  0.0412  0.5218
   31MOL   C175 8035   3.823   5.963   6.091  0.1536  0.0331  0.0233
   31MOL   C176 8036   3.842   5.794   5.645 -0.1881  0.3730  0.3679
   31MOL   H177 8037   3.700   5.707   5.785  2.9012 -2.6159 -2.9687
   31MOL   H178 8038   3.793   5.996   5.850  1.0428  0.1724 -0.8912
   31MOL   H179 8039   3.825   5.936   6.196  1.3587  0.5164  0.1301
   31MOL   H180 8040   3.927   5.991   6.077  0.4205  0.0628  1.8846
   31MOL   H181 8041   3.754   6.045   6.070 -0.6656 -0.4371  0.8232
   31MOL   H182 8042   3.792   5.775   5.551 -0.3957 -1.0098  0.7539
   31MOL   H183 8043   3.878   5.894   5.618 -0.1411  0.5008  0.8944
   31MOL   C184 8044   3.962   5.699   5.677  0.0877 -0.1468 -0.6189
   31MOL   N185 8045   4.064   5.728   5.575  0.4277 -0.3892 -0.3709
   31MOL   C186 8046   4.195   5.749   5.603 -0.1695 -0.0676 -0.2392
   31MOL   O187 8047   4.247   5.771   5.710  0.2987  0.0833 -0.1976
   31MOL   C188 8048   4.284   5.735   5.476 -0.2241  0.1713  0.0414
   31MOL   C189 8049   3.934   5.543   5.674  0.5782 -0.1493 -0.5816
   31MOL   H190 8050   4.011   5.724   5.772 -1.1134  0.2131 -0.0806
   31MOL   H191 8051   4.047   5.718   5.476  2.8342  0.0526 -0.8572
   31MOL   H192 8052   4.302   5.821   5.413  1.2941 -0.1413  0.0184
   31MOL   H193 8053   4.376   5.681   5.501 -0.3392 -1.1525 -2.2481
   31MOL   H194 8054   4.245   5.669   5.400 -2.1824 -0.3819  1.4886
   31MOL   H195 8055   4.026   5.491   5.702 -1.4541 -2.3526  2.2380
   31MOL   H196 8056   3.864   5.520   5.754 -0.0066  0.3341 -0.9541
   31MOL   C197 8057   3.884   5.474   5.545  0.2868 -0.9516  0.0759
   31MOL   N198 8058   3.777   5.370   5.578 -0.1288 -0.0035  0.0366
   31MOL   C199 8059   3.643   5.395   5.578  0.3544  0.3572 -0.7281
   31MOL   O200 8060   3.597   5.507   5.563  0.8141  0.2673 -0.1874
   31MOL   C201 8061   3.551   5.274   5.581  0.4836 -0.0002  0.2222
   31MOL   C202 8062   3.997   5.409   5.464  0.1569  0.7664 -0.3455
   31MOL   H203 8063   3.849   5.552   5.478 -2.2805 -3.2979 -1.4165
   31MOL   H204 8064   3.816   5.277   5.580  0.2227  0.1606  1.2653
   31MOL   H205 8065   3.519   5.235   5.678  0.3876  2.1777  1.0909
   31MOL   H206 8066   3.458   5.288   5.526  1.6951  1.8478 -1.3869
   31MOL   H207 8067   3.615   5.193   5.546 -2.5277 -2.1341 -0.5701
   31MOL   H208 8068   4.076   5.482   5.446 -0.7077  1.5562 -0.9546
   31MOL   H209 8069   4.036   5.323   5.518 -1.9953 -0.1318 -0.1824
   31MOL   C210 8070   3.955   5.358   5.326 -0.2091  0.5937 -0.8943
   31MOL   N211 8071   3.880   5.235   5.337  0.2019  0.1173 -0.0486
   31MOL   C212 8072   3.768   5.214   5.267  0.3645 -0.0724  0.4765
   31MOL   O213 8073   3.710   5.297   5.195  0.3576  0.1356  0.7578
   31MOL   C214 8074   3.693   5.082   5.289  0.0358 -0.1603  0.4167
   31MOL   C215 8075   4.079   5.333   5.235  0.1268 -0.6777 -0.3920
   31MOL   H216 8076   3.898   5.441   5.285  1.5078  2.3118  0.0841
   31MOL   H217 8077   3.912   5.168   5.405 -0.9036  0.2055  0.5654
   31MOL   H218 8078   3.702   5.011   5.206 -0.4003  1.5320 -1.0980
   31MOL   H219 8079   3.702   5.042   5.390 -1.5801  1.2401  1.1127
   31MOL   H220 8080   3.585   5.091   5.284 -0.0367 -2.0243 -2.7802
   31MOL   H221 8081   4.149   5.259   5.274  1.4422  0.2437 -0.9594
   31MOL   H222 8082   4.046   5.281   5.146 -0.6534  1.6083 -1.4789
   31MOL   C223 8083   4.151   5.458   5.185  0.0681 -0.1783 -0.5144
   31MOL   N224 8084   4.067   5.553   5.116  0.0900 -0.2371 -0.2586
   31MOL   C225 8085   4.018   5.664   5.168  0.4869 -0.5061 -0.3107
   31MOL   O226 8086   4.035   5.698   5.292  0.2410  0.3498  0.2249
   31MOL   C227 8087   3.945   5.760   5.076 -0.2359 -0.1177 -0.0567
   31MOL   C228 8088   4.264   5.410   5.093  0.4496 -0.3414 -0.1321
   31MOL   H229 8089   4.199   5.499   5.274  0.5739  1.6604 -1.6082
   31MOL   H230 8090   4.045   5.546   5.018 -0.2362  1.5624 -0.3330
   31MOL   H231 8091   3.909   5.853   5.119 -1.6626 -0.6059 -0.1555
   31MOL   H232 8092   3.996   5.781   4.982 -0.1465  0.3169  0.0890
   31MOL   H233 8093   3.847   5.716   5.057 -0.0361  0.4494 -2.6129
   31MOL   H234 8094   4.309   5.313   5.114 -2.3293 -1.7540 -0.5129
   31MOL   H235 8095   4.231   5.395   4.990  2.5760 -3.5177 -0.4448
   31MOL   C236 8096   4.382   5.512   5.085  0.1630 -0.1907  0.1710
   31MOL   N237 8097   4.333   5.647   5.072  0.4495  0.1413  0.3367
   31MOL   C238 8098   4.389   5.755   5.118  0.1066 -0.1742 -0.7050
   31MOL   O239 8099   4.482   5.749   5.198 -0.0576 -0.1732 -0.0623
   31MOL   C240 8100   4.320   5.885   5.095 -0.5920  0.2304  0.0299
   31MOL   C241 8101   4.503   5.481   4.984  0.3457  0.1289 -0.2207
   31MOL   H242 8102   4.438   5.506   5.178 -0.7075  0.1845  0.7235
   31MOL   H243 8103   4.256   5.658   5.009 -0.9687  0.3876  2.0858
   31MOL   H244 8104   4.386   5.964   5.061 -0.6966 -0.4256 -1.7810
   31MOL   H245 8105   4.231   5.871   5.033 -0.5594 -2.4266  0.5217
   31MOL   H246 8106   4.292   5.911   5.197  1.8910 -0.7306  0.9858
   31MOL   H247 8107   4.459   5.475   4.884  0.6238  0.0612 -0.3395
   31MOL   H248 8108   4.575   5.563   4.985 -0.8725  1.2070  0.1384
   31MOL   C249 8109   4.570   5.341   5.016 -0.6533 -0.3596 -0.5072
   31MOL   N250 8110   4.717   5.353   5.032  1.4517  0.0805  0.6409
   31MOL   C251 8111   4.776   5.411   5.138  0.1770 -0.4634 -0.0238
   31MOL   O252 8112   4.718   5.470   5.229 -0.7375 -0.3389  0.1026
   31MOL   C253 8113   4.927   5.423   5.132 -0.2554 -0.3922 -0.6627
   31MOL   C254 8114   4.535   5.235   4.914 -0.3426 -0.8282 -0.0068
   31MOL   H255 8115   4.533   5.303   5.112  0.3866  1.3130  0.5878
   31MOL   H256 8116   4.775   5.303   4.966  0.4798 -0.1450 -0.0544
   31MOL   H257 8117   4.957   5.386   5.034  1.3412  2.3582 -1.2805
   31MOL   H258 8118   4.969   5.519   5.164 -1.2436  0.4514 -1.8221
   31MOL   H259 8119   4.962   5.355   5.209 -0.1212 -0.1285 -0.4866
   31MOL   H260 8120   4.594   5.248   4.824  0.7913 -1.3100  0.6518
   31MOL   H261 8121   4.581   5.144   4.952 -0.2168 -1.1087 -0.8211
   31MOL   H262 8122   4.429   5.215   4.897 -0.9314  2.0622  0.1014
   32MOL     C1 8123   5.741   5.499   1.812  0.1577  0.3794 -0.5526
   32MOL     N2 8124   5.742   5.468   1.949 -0.1799 -0.2373  0.0171
   32MOL     C3 8125   5.839   5.498   2.036  0.2875  0.0711  0.1875
   32MOL     O4 8126   5.947   5.551   1.995 -0.3402 -0.4210  0.5342
   32MOL     C5 8127   5.820   5.463   2.187 -0.0423 -0.4121  0.3454
   32MOL     C6 8128   5.703   5.648   1.793 -0.9955  0.5313 -0.2498
   32MOL     H7 8129   5.840   5.478   1.772  0.5688  0.5564  0.3535
   32MOL     H8 8130   5.651   5.454   1.992 -0.1306  1.7704  0.8184
   32MOL     H9 8131   5.909   5.502   2.238  0.4855 -1.3543  0.1605
   32MOL    H10 8132   5.732   5.513   2.226 -1.2319 -1.9668 -0.2837
   32MOL    H11 8133   5.820   5.354   2.197 -1.7323 -0.3718  0.8783
   32MOL    H12 8134   5.595   5.654   1.802 -1.2232 -0.3832 -2.1645
   32MOL    H13 8135   5.734   5.702   1.883 -2.1674 -0.9150  1.0609
   32MOL    H14 8136   5.678   5.435   1.749 -0.0484  0.0569 -0.0250
   32MOL    C15 8137   5.755   5.706   1.659  0.4596 -0.1581  0.5865
   32MOL    N16 8138   5.761   5.846   1.656  0.1630  0.4264  0.0198
   32MOL    C17 8139   5.655   5.928   1.678 -0.0600 -0.0341 -0.0194
   32MOL    O18 8140   5.541   5.897   1.711 -0.2955  0.4021  0.0250
   32MOL    C19 8141   5.684   6.078   1.676  0.1496  0.4033  0.0659
   32MOL    C20 8142   5.662   5.656   1.539  0.2965  0.4495  0.1356
   32MOL    H21 8143   5.861   5.684   1.648  0.6329  1.1962 -0.6712
   32MOL    H22 8144   5.849   5.878   1.618  1.4144 -2.0623  0.7579
   32MOL    H23 8145   5.746   6.112   1.759 -0.2328  2.3738 -0.4333
   32MOL    H24 8146   5.722   6.124   1.585 -0.8537  3.1662  0.9973
   32MOL    H25 8147   5.587   6.127   1.674  1.0640  2.1979 -1.3939
   32MOL    H26 8148   5.562   5.633   1.575  0.4306 -0.0223  0.2074
   32MOL    H27 8149   5.649   5.745   1.478  1.3905  0.0072 -0.7677
   32MOL    C28 8150   5.711   5.540   1.458  0.5960 -0.2631  0.1740
   32MOL    N29 8151   5.843   5.570   1.400 -0.2010  0.1560  0.8823
   32MOL    C30 8152   5.960   5.526   1.436  0.2129  0.4726  0.7463
   32MOL    O31 8153   5.981   5.467   1.540 -0.0023 -0.2208 -0.4900
   32MOL    C32 8154   6.065   5.535   1.326  0.5732  0.0046 -0.4221
   32MOL    C33 8155   5.603   5.513   1.347 -0.5018 -0.1082 -0.2912
   32MOL    H34 8156   5.716   5.458   1.530 -1.4660 -0.8377 -0.3141
   32MOL    H35 8157   5.835   5.605   1.306  1.0663 -1.3225  0.2075
   32MOL    H36 8158   6.037   5.489   1.231  1.8988 -0.4026 -0.6174
   32MOL    H37 8159   6.078   5.641   1.305  1.6578 -0.2147 -0.8839
   32MOL    H38 8160   6.162   5.503   1.364  0.1974  0.3148  0.8140
   32MOL    H39 8161   5.508   5.509   1.400 -0.0416  1.1252  0.6277
   32MOL    H40 8162   5.593   5.593   1.273  0.4559  0.7536  0.5100
   32MOL    C41 8163   5.626   5.379   1.273  0.3556 -0.3290  0.0627
   32MOL    N42 8164   5.725   5.394   1.170 -0.5149 -0.2441 -0.1801
   32MOL    C43 8165   5.838   5.322   1.164 -0.1902  0.3159 -0.6378
   32MOL    O44 8166   5.879   5.248   1.256  0.2797  0.3084  0.0322
   32MOL    C45 8167   5.909   5.329   1.031 -0.3095  0.0456  0.2666
   32MOL    C46 8168   5.489   5.349   1.210  0.5004 -0.3417 -0.0767
   32MOL    H47 8169   5.655   5.304   1.346  4.1184  1.5811  0.6934
   32MOL    H48 8170   5.695   5.445   1.088 -2.0179 -2.0443 -0.7889
   32MOL    H49 8171   5.859   5.256   0.968  2.5513 -3.1070  1.4574
   32MOL    H50 8172   5.906   5.432   0.994  0.1846 -0.0736 -0.0978
   32MOL    H51 8173   6.014   5.304   1.049  0.1939  0.3127 -2.1492
   32MOL    H52 8174   5.419   5.339   1.293  0.3964 -2.5157 -0.3840
   32MOL    H53 8175   5.449   5.429   1.148 -1.2355 -1.3377 -0.2685
   32MOL    C54 8176   5.480   5.215   1.137  0.4168  0.7293  0.4173
   32MOL    N55 8177   5.507   5.225   0.991  0.2149 -0.0790 -0.0940
   32MOL    C56 8178   5.571   5.131   0.922 -0.2023  0.2175 -0.1723
   32MOL    O57 8179   5.627   5.033   0.973 -0.0926 -0.4789  0.3925
   32MOL    C58 8180   5.581   5.147   0.769  0.3260  0.0038  0.2292
   32MOL    C59 8181   5.341   5.142   1.144  0.5608 -0.0035 -0.0497
   32MOL    H60 8182   5.548   5.147   1.188  1.3239  0.3553 -1.2312
   32MOL    H61 8183   5.470   5.308   0.947  1.4352  1.9127  2.5249
   32MOL    H62 8184   5.514   5.219   0.724 -1.0052 -1.3866 -0.0640
   32MOL    H63 8185   5.685   5.167   0.743  0.3608 -0.1253  0.2667
   32MOL    H64 8186   5.565   5.048   0.725  0.7350  0.6011 -1.2955
   32MOL    H65 8187   5.352   5.041   1.105 -0.5669  1.5583 -4.7701
   32MOL    H66 8188   5.324   5.117   1.249  1.7836  0.3438  0.2305
   32MOL    C67 8189   5.219   5.199   1.069 -0.4399  0.7173  0.4187
   32MOL    N68 8190   5.179   5.323   1.129 -0.0324 -0.2725 -0.3421
   32MOL    C69 8191   5.130   5.427   1.059  0.0417  0.0034  0.0230
   32MOL    O70 8192   5.130   5.427   0.934 -0.2443 -0.0431  0.5589
   32MOL    C71 8193   5.074   5.543   1.145  0.3348 -0.2418 -0.0789
   32MOL    C72 8194   5.099   5.110   1.064  0.3516  0.6666  0.5618
   32MOL    H73 8195   5.253   5.214   0.966 -0.6003 -0.8781  0.1192
   32MOL    H74 8196   5.161   5.333   1.228 -1.5930  1.7368 -0.7994
   32MOL    H75 8197   5.076   5.509   1.249  0.5841 -2.6480 -0.8345
   32MOL    H76 8198   5.123   5.640   1.133 -2.7546  1.1920 -1.6607
   32MOL    H77 8199   4.968   5.547   1.123  0.6123  0.0302 -1.4124
   32MOL    H78 8200   5.086   5.067   1.163  0.1446 -1.7107 -0.4716
   32MOL    H79 8201   5.008   5.168   1.047  1.2594  1.6942 -0.9606
   32MOL    C80 8202   5.094   4.993   0.955 -0.3371 -0.4411  0.2520
   32MOL    N81 8203   5.113   5.056   0.821  1.1627 -0.3083  0.9482
   32MOL    C82 8204   5.220   5.044   0.737  0.2979 -0.4543  0.9018
   32MOL    O83 8205   5.321   4.983   0.760 -0.9814  0.0425 -0.2418
   32MOL    C84 8206   5.216   5.121   0.605 -0.3766  0.7264 -0.7397
   32MOL    C85 8207   4.967   4.931   0.956  0.1679 -0.6179  0.3108
   32MOL    H86 8208   5.172   4.920   0.975  1.0099  0.2330 -2.2943
   32MOL    H87 8209   5.040   5.111   0.780  0.0777 -0.1944  2.9717
   32MOL    H88 8210   5.231   5.057   0.518  3.5836 -1.9004  1.7317
   32MOL    H89 8211   5.121   5.172   0.590  0.1403  1.6981 -0.7170
   32MOL    H90 8212   5.294   5.197   0.609 -0.6873  1.0600 -1.0010
   32MOL    H91 8213   4.888   5.000   0.925 -0.4251 -1.7849 -0.8434
   32MOL    H92 8214   4.965   4.863   0.871 -0.0250  0.9062 -0.9351
   32MOL    C93 8215   4.922   4.867   1.095  0.6961 -0.0646  0.3479
   32MOL    N94 8216   5.003   4.748   1.114 -0.5508  0.3212  0.3529
   32MOL    C95 8217   5.096   4.735   1.208  0.6474  0.0131  0.5050
   32MOL    O96 8218   5.147   4.828   1.270  0.2089 -0.1352  0.0784
   32MOL    C97 8219   5.145   4.600   1.246 -0.1216 -0.0656 -0.1597
   32MOL    C98 8220   4.770   4.828   1.102 -0.9174  0.6898  0.5806
   32MOL    H99 8221   4.936   4.932   1.182  1.5269 -1.2154  1.0916
   32MOL   H100 8222   4.970   4.662   1.073 -1.8716  1.8570 -1.9980
   32MOL   H101 8223   5.107   4.579   1.346  1.2134  0.7438  0.5349
   32MOL   H102 8224   5.113   4.517   1.183  2.0446 -0.1670 -1.1972
   32MOL   H103 8225   5.254   4.591   1.253 -0.1898  1.0936  2.8969
   32MOL   H104 8226   4.721   4.902   1.038 -0.4393  0.3972 -0.1273
   32MOL   H105 8227   4.761   4.729   1.057  2.4741 -0.1291  1.5658
   32MOL   C106 8228   4.712   4.811   1.245 -0.4102 -0.4180  0.3160
   32MOL   N107 8229   4.789   4.706   1.320  0.8645  0.4850 -0.2126
   32MOL   C108 8230   4.830   4.723   1.447  0.0207  0.1046  0.2577
   32MOL   O109 8231   4.814   4.821   1.512  0.0137 -0.1086  0.7015
   32MOL   C110 8232   4.877   4.599   1.515  0.5436 -0.2399  0.1755
   32MOL   C111 8233   4.555   4.768   1.243 -0.6310 -0.5856  0.5694
   32MOL   H112 8234   4.709   4.906   1.298 -2.5424 -0.9512  1.2112
   32MOL   H113 8235   4.812   4.616   1.282  0.5683  0.0813  0.5463
   32MOL   H114 8236   4.833   4.515   1.461  0.1109 -0.3381  0.6789
   32MOL   H115 8237   4.985   4.605   1.502  0.2258  1.1542 -2.0043
   32MOL   H116 8238   4.842   4.600   1.618  0.1288 -1.8537  0.0727
   32MOL   H117 8239   4.541   4.672   1.192 -2.8353 -1.0062  1.8974
   32MOL   H118 8240   4.530   4.744   1.346 -0.1916  1.0598  1.0600
   32MOL   C119 8241   4.465   4.877   1.175  0.4743  0.5846  0.2796
   32MOL   N120 8242   4.447   4.992   1.259 -0.9511  0.5213 -0.4035
   32MOL   C121 8243   4.405   5.001   1.387  0.7153 -0.2414  0.1500
   32MOL   O122 8244   4.340   4.916   1.443 -0.1510 -0.4377 -0.0049
   32MOL   C123 8245   4.437   5.138   1.453  0.3687 -0.4103  0.8198
   32MOL   C124 8246   4.332   4.824   1.138 -0.2230 -0.2914 -0.5315
   32MOL   H125 8247   4.504   4.928   1.087  0.1686 -0.1980 -0.3166
   32MOL   H126 8248   4.497   5.071   1.222  1.4198 -1.4960 -1.6929
   32MOL   H127 8249   4.533   5.186   1.436  0.8063 -1.1072  1.3009
   32MOL   H128 8250   4.359   5.205   1.418 -0.4629 -1.6933  0.1972
   32MOL   H129 8251   4.418   5.143   1.561 -0.2315 -0.0438  0.7001
   32MOL   H130 8252   4.288   4.778   1.227  0.3412  0.8495  0.3658
   32MOL   H131 8253   4.270   4.910   1.111 -0.0997  0.3380  1.1212
   32MOL   C132 8254   4.326   4.722   1.020  0.7393  0.1891 -0.3919
   32MOL   N133 8255   4.391   4.800   0.904 -0.4494  0.4251 -0.4431
   32MOL   C134 8256   4.472   4.740   0.811 -0.9277 -0.2371 -0.1655
   32MOL   O135 8257   4.513   4.625   0.824  0.1736  0.7871  0.0290
   32MOL   C136 8258   4.531   4.833   0.706  0.2400 -0.3800  0.1797
   32MOL   C137 8259   4.178   4.688   1.008  0.6613 -0.0051 -0.5603
   32MOL   H138 8260   4.377   4.628   1.042  0.1228  0.1301  0.7934
   32MOL   H139 8261   4.373   4.899   0.900 -1.2409  0.2916 -0.3155
   32MOL   H140 8262   4.456   4.889   0.650 -0.9868  0.0619  2.2048
   32MOL   H141 8263   4.601   4.898   0.759  2.6763 -1.2804 -1.8309
   32MOL   H142 8264   4.598   4.782   0.637  0.2884  0.4351 -0.3844
   32MOL   H143 8265   4.156   4.620   1.090 -0.9645  2.2577  0.9026
   32MOL   H144 8266   4.115   4.776   1.018 -0.2633 -0.6209 -0.8547
   32MOL   C145 8267   4.134   4.617   0.885  1.2796  0.6478  0.3579
   32MOL   N146 8268   4.225   4.507   0.844  0.3152 -0.1022  0.2017
   32MOL   C147 8269   4.197   4.378   0.854 -0.0536  0.2458 -0.5209
   32MOL   O148 8270   4.087   4.342   0.896 -0.6005 -0.0885 -0.3711
   32MOL   C149 8271   4.297   4.275   0.815  0.0992 -0.1537  0.0452
   32MOL   C150 8272   4.091   4.710   0.767 -0.0789  0.2188  0.2376
   32MOL   H151 8273   4.043   4.570   0.922  1.3367 -0.2339 -0.6031
   32MOL   H152 8274   4.315   4.543   0.814  0.3608 -0.2437  0.1658
   32MOL   H153 8275   4.245   4.188   0.775  0.3079  0.2432 -1.1042
   32MOL   H154 8276   4.360   4.321   0.739  0.7216  0.8494  1.1506
   32MOL   H155 8277   4.360   4.238   0.897 -0.0228  0.2993  0.3435
   32MOL   H156 8278   4.027   4.784   0.817 -0.3309 -1.1806  2.0599
   32MOL   H157 8279   4.183   4.758   0.734 -0.3155 -0.4142 -1.3560
   32MOL   C158 8280   4.010   4.652   0.648 -0.3096  0.3654 -0.5342
   32MOL   N159 8281   3.953   4.767   0.573  0.2854 -0.4215  0.4638
   32MOL   C160 8282   4.023   4.859   0.503  0.2675 -0.5296  0.8703
   32MOL   O161 8283   4.143   4.849   0.490  0.2409 -0.1628 -0.3368
   32MOL   C162 8284   3.955   4.979   0.438 -0.6158  0.1506 -0.3804
   32MOL   C163 8285   3.891   4.559   0.695 -0.5037 -0.1677  0.1778
   32MOL   H164 8286   4.077   4.598   0.581 -1.8049  0.5660 -2.2618
   32MOL   H165 8287   3.853   4.783   0.564  0.4184  0.1177 -0.1270
   32MOL   H166 8288   3.869   5.011   0.498 -0.4773  1.1726 -0.7122
   32MOL   H167 8289   4.023   5.063   0.433 -0.1505 -0.2192 -0.2580
   32MOL   H168 8290   3.927   4.968   0.333  0.4457  1.4844 -0.8182
   32MOL   H169 8291   3.918   4.476   0.760  0.7015  0.2413  0.2156
   32MOL   H170 8292   3.831   4.631   0.751 -1.1947  1.7851 -2.9810
   32MOL   C171 8293   3.815   4.494   0.581 -0.1614  0.4191 -1.0853
   32MOL   N172 8294   3.679   4.475   0.626  0.3714 -0.1909 -0.4811
   32MOL   C173 8295   3.573   4.554   0.611  0.1254  0.3679  0.3020
   32MOL   O174 8296   3.571   4.670   0.562 -0.0832  0.5610  0.1972
   32MOL   C175 8297   3.446   4.486   0.655 -0.4909 -0.4569  1.0197
   32MOL   C176 8298   3.868   4.348   0.541  0.4790  1.1176 -0.0702
   32MOL   H177 8299   3.797   4.561   0.497 -0.7551  0.3686 -0.9989
   32MOL   H178 8300   3.655   4.386   0.667 -1.8569  1.1574  1.2418
   32MOL   H179 8301   3.367   4.560   0.648 -0.2331 -0.1008  1.7654
   32MOL   H180 8302   3.428   4.393   0.602  0.4913 -0.0182 -0.1256
   32MOL   H181 8303   3.456   4.458   0.760  1.3605 -0.4042  0.8901
   32MOL   H182 8304   3.894   4.307   0.638  0.7410 -1.6738 -1.2772
   32MOL   H183 8305   3.788   4.292   0.493  0.6195  0.7407  0.1329
   32MOL   C184 8306   3.983   4.355   0.432  0.5304  0.2374 -0.3289
   32MOL   N185 8307   3.963   4.252   0.326  0.0707  0.7582 -0.0155
   32MOL   C186 8308   3.882   4.257   0.214  0.0688  0.1171  0.3065
   32MOL   O187 8309   3.833   4.360   0.180  0.4318 -0.3247 -0.3192
   32MOL   C188 8310   3.865   4.137   0.126  0.0646 -0.1459  0.2496
   32MOL   C189 8311   4.122   4.325   0.490 -0.4533 -0.8727 -0.2291
   32MOL   H190 8312   3.982   4.453   0.385 -0.1177  0.8841  1.0011
   32MOL   H191 8313   4.031   4.178   0.332  0.7218  1.5412  3.4908
   32MOL   H192 8314   3.941   4.153   0.049  1.1653  2.2966  1.8264
   32MOL   H193 8315   3.875   4.043   0.180  0.3383 -0.1107  0.2581
   32MOL   H194 8316   3.759   4.140   0.101  0.0359  1.6813  0.5899
   32MOL   H195 8317   4.145   4.388   0.576 -1.9483  0.4416 -0.7675
   32MOL   H196 8318   4.112   4.232   0.546  0.0585 -0.0611  1.2514
   32MOL   C197 8319   4.244   4.336   0.397 -0.1537 -0.4846 -0.1710
   32MOL   N198 8320   4.339   4.226   0.410 -0.1411 -0.1721  0.4217
   32MOL   C199 8321   4.313   4.100   0.372  0.2408  0.3773 -0.2822
   32MOL   O200 8322   4.195   4.062   0.357  0.0783  0.6160  0.1602
   32MOL   C201 8323   4.433   4.006   0.334  0.2554  0.5175  0.3961
   32MOL   C202 8324   4.315   4.474   0.416 -0.0460  0.0434 -0.0841
   32MOL   H203 8325   4.201   4.334   0.297 -0.8649  1.0447  0.0940
   32MOL   H204 8326   4.434   4.246   0.437 -0.0910 -0.6157  0.5683
   32MOL   H205 8327   4.418   3.968   0.233 -0.4373  0.9257  0.3414
   32MOL   H206 8328   4.532   4.051   0.343  0.5585  0.1546 -1.0735
   32MOL   H207 8329   4.420   3.912   0.389  0.4748  0.5253  0.4617
   32MOL   H208 8330   4.234   4.546   0.413 -0.8990 -0.9495 -1.6708
   32MOL   H209 8331   4.361   4.478   0.515 -0.7734  1.4397  0.2100
   32MOL   C210 8332   4.437   4.519   0.325 -0.9287 -0.3151  0.4431
   32MOL   N211 8333   4.441   4.669   0.323  0.1277  0.1990 -0.7507
   32MOL   C212 8334   4.546   4.741   0.289 -0.2443  0.4237  0.2892
   32MOL   O213 8335   4.642   4.698   0.228 -0.6134 -0.4014  0.0408
   32MOL   C214 8336   4.547   4.886   0.335 -0.5814 -0.2704 -0.6655
   32MOL   C215 8337   4.426   4.472   0.172  0.3296 -0.3199 -0.0351
   32MOL   H216 8338   4.529   4.485   0.371 -0.7143  2.5054  2.2183
   32MOL   H217 8339   4.356   4.719   0.347  0.5166  0.1099  0.9106
   32MOL   H218 8340   4.607   4.953   0.273  0.5453  0.3167  1.0206
   32MOL   H219 8341   4.446   4.924   0.350  0.4498  1.7752  1.5436
   32MOL   H220 8342   4.602   4.883   0.430 -1.9573 -2.5376  0.1068
   32MOL   H221 8343   4.320   4.454   0.156  0.2182  1.2649 -1.2244
   32MOL   H222 8344   4.448   4.556   0.105  1.2642 -0.5416 -0.0116
   32MOL   C223 8345   4.532   4.362   0.132 -0.4128  0.7093  0.2610
   32MOL   N224 8346   4.667   4.416   0.164 -0.0139  0.4699  0.3698
   32MOL   C225 8347   4.769   4.348   0.215  0.1159 -0.6614  0.5283
   32MOL   O226 8348   4.762   4.231   0.248  0.3447 -0.4032  0.5622
   32MOL   C227 8349   4.888   4.435   0.247 -0.4952 -0.7008  0.6797
   32MOL   C228 8350   4.515   4.326   7.819 -0.6617  0.8059 -0.4891
   32MOL   H229 8351   4.510   4.270   0.188 -0.9370 -1.5336 -3.4660
   32MOL   H230 8352   4.676   4.516   0.176 -0.6357  0.5208  0.4446
   32MOL   H231 8353   4.903   4.514   0.173  1.1436 -1.4875  0.1502
   32MOL   H232 8354   4.868   4.468   0.349 -1.5193  0.7932  0.0066
   32MOL   H233 8355   4.980   4.378   0.261  0.3729  0.3543 -0.6091
   32MOL   H234 8356   4.410   4.333   7.792 -0.5092 -0.7721 -1.6150
   32MOL   H235 8357   4.569   4.401   7.761  0.6823  0.1262 -0.1376
   32MOL   C236 8358   4.585   4.201   7.761  0.1844  0.7564  0.4227
   32MOL   N237 8359   4.585   4.214   7.611 -0.6798  0.1918  0.0614
   32MOL   C238 8360   4.698   4.214   7.535  0.0333  0.0607 -0.8784
   32MOL   O239 8361   4.809   4.221   7.582 -0.0686 -0.1045 -0.2152
   32MOL   C240 8362   4.685   4.230   7.384 -1.1333 -0.4474 -0.1957
   32MOL   C241 8363   4.514   4.066   7.798 -0.4274 -0.2773 -0.3200
   32MOL   H242 8364   4.686   4.179   7.796  0.1373 -2.0040 -1.0297
   32MOL   H243 8365   4.500   4.211   7.558 -0.5695  2.3203 -0.3157
   32MOL   H244 8366   4.578   4.220   7.361 -2.0366  2.2900  2.5154
   32MOL   H245 8367   4.711   4.331   7.354  1.2634 -0.3763  1.9962
   32MOL   H246 8368   4.753   4.160   7.336 -0.3218 -0.3168  0.7547
   32MOL   H247 8369   4.530   4.064   0.066 -3.5334 -0.5228  0.2033
   32MOL   H248 8370   4.406   4.072   7.785 -0.3360 -1.0257 -1.5084
   32MOL   C249 8371   4.561   3.933   7.731  0.0818  0.0701  0.9150
   32MOL   N250 8372   4.505   3.914   7.598  0.4593  0.3446 -0.4486
   32MOL   C251 8373   4.576   3.895   7.483  0.5845 -0.3634 -0.5410
   32MOL   O252 8374   4.696   3.909   7.481 -0.0291  0.2156 -0.1541
   32MOL   C253 8375   4.491   3.866   7.358 -0.1452  0.0547 -0.6619
   32MOL   C254 8376   4.532   3.818   7.830  0.5557 -0.1701  0.0188
   32MOL   H255 8377   4.670   3.929   7.720  0.1781  2.4127  0.6417
   32MOL   H256 8378   4.405   3.916   7.581  0.0831 -1.1727  1.4210
   32MOL   H257 8379   4.526   3.896   7.259  0.1378  0.7642 -0.3509
   32MOL   H258 8380   4.477   3.758   7.352 -0.2534 -0.0012  0.4639
   32MOL   H259 8381   4.391   3.910   7.359 -0.2373 -0.1415 -1.1416
   32MOL   H260 8382   4.427   3.819   0.020  0.6606 -0.4020  0.3993
   32MOL   H261 8383   4.565   3.724   7.785 -1.1843 -1.1379  0.7098
   32MOL   H262 8384   4.589   3.825   0.083  0.8871 -1.7832 -0.0480
   33MOL     C1 8385   3.525   2.009   3.560 -1.0783  0.6573 -0.2194
   33MOL     N2 8386   3.483   2.135   3.622 -0.6824  0.6662  0.7586
   33MOL     C3 8387   3.486   2.163   3.754 -0.5223 -0.0105  0.3103
   33MOL     O4 8388   3.538   2.081   3.830  0.3892 -0.2786 -0.2523
   33MOL     C5 8389   3.433   2.302   3.795  0.1087 -0.4544  0.5916
   33MOL     C6 8390   3.407   1.929   3.489  0.2682 -0.2513  0.0381
   33MOL     H7 8391   3.605   2.038   3.492  0.3954 -2.1480  0.2397
   33MOL     H8 8392   3.441   2.207   3.565  1.4506  1.0433 -0.3733
   33MOL     H9 8393   3.429   2.365   3.706  2.2879 -0.7291  0.2717
   33MOL    H10 8394   3.329   2.299   3.830 -0.0190  0.8467  0.3509
   33MOL    H11 8395   3.479   2.344   3.885  0.2294 -1.4015  0.9819
   33MOL    H12 8396   3.339   1.895   3.566 -0.5262 -0.1589 -0.6167
   33MOL    H13 8397   3.356   1.990   3.415 -1.0645 -0.1238  1.0549
   33MOL    H14 8398   3.579   1.944   3.630 -1.3282 -1.5604 -2.0456
   33MOL    C15 8399   3.458   1.808   3.411  0.7561  0.2510 -0.0727
   33MOL    N16 8400   3.539   1.850   3.300 -0.4179  0.1008 -0.2468
   33MOL    C17 8401   3.670   1.838   3.296  0.1272  0.5154 -0.9125
   33MOL    O18 8402   3.736   1.818   3.399  0.5400  0.1825 -0.3760
   33MOL    C19 8403   3.745   1.840   3.165 -0.2375 -0.1509  0.5207
   33MOL    C20 8404   3.340   1.716   3.379  0.0316  0.3613 -0.3195
   33MOL    H21 8405   3.515   1.746   3.481  1.1931 -0.0784 -0.7223
   33MOL    H22 8406   3.492   1.863   3.212 -0.7908  1.6426  0.1737
   33MOL    H23 8407   3.848   1.805   3.168  0.8336  2.5126 -2.6498
   33MOL    H24 8408   3.694   1.770   3.098 -0.2886  3.3428 -3.2444
   33MOL    H25 8409   3.741   1.937   3.116  1.1517  0.1500  0.9731
   33MOL    H26 8410   3.302   1.673   3.472 -1.2521  1.5805 -0.2678
   33MOL    H27 8411   3.258   1.774   3.336 -0.9951 -1.5802 -1.0401
   33MOL    C28 8412   3.379   1.594   3.295  0.2064  0.2590  0.7650
   33MOL    N29 8413   3.392   1.639   3.154  0.8511 -0.3409 -0.2492
   33MOL    C30 8414   3.481   1.609   3.063 -0.5325  0.1371  0.2948
   33MOL    O31 8415   3.581   1.544   3.094  0.0985 -0.6922  0.5459
   33MOL    C32 8416   3.461   1.673   2.931  0.2314 -0.0676  0.2745
   33MOL    C33 8417   3.278   1.474   3.287  0.1874 -1.1127  0.2430
   33MOL    H34 8418   3.475   1.560   3.336  0.0617 -1.1952 -0.0490
   33MOL    H35 8419   3.307   1.680   3.120  0.2488 -0.8449  0.6246
   33MOL    H36 8420   3.452   1.782   2.931  0.4653  0.0774 -4.6670
   33MOL    H37 8421   3.544   1.648   2.866 -1.4021 -2.2782 -1.0486
   33MOL    H38 8422   3.382   1.629   2.870  1.5592 -1.1880 -0.6338
   33MOL    H39 8423   3.194   1.507   3.226  0.6935  0.5192  0.4162
   33MOL    H40 8424   3.322   1.392   3.230 -0.7076  0.0996 -2.2516
   33MOL    C41 8425   3.209   1.424   3.403 -0.6173 -0.1580 -0.1286
   33MOL    N42 8426   3.291   1.310   3.459  0.7155  0.3252  0.0294
   33MOL    C43 8427   3.396   1.319   3.546 -0.3354 -0.2535 -0.1519
   33MOL    O44 8428   3.425   1.430   3.594  0.2601  0.2370  0.1663
   33MOL    C45 8429   3.460   1.192   3.603  0.2261  0.8290  0.4327
   33MOL    C46 8430   3.066   1.363   3.381 -0.4442  0.4682  0.6819
   33MOL    H47 8431   3.203   1.492   3.488  0.5537 -0.5085  0.2457
   33MOL    H48 8432   3.265   1.218   3.424  0.0490  0.3720  0.3993
   33MOL    H49 8433   3.488   1.137   3.514 -0.1256 -1.1333  1.5061
   33MOL    H50 8434   3.550   1.211   3.662 -1.0524  3.3297  1.6402
   33MOL    H51 8435   3.396   1.131   3.667  1.4204 -2.3535 -1.2953
   33MOL    H52 8436   3.076   1.283   3.308  1.4264 -0.0806  1.4898
   33MOL    H53 8437   3.038   1.316   3.476  0.0277 -0.7741  0.2083
   33MOL    C54 8438   2.956   1.458   3.330  0.0066 -1.1829 -0.2131
   33MOL    N55 8439   2.972   1.591   3.396 -0.3651  0.1286  0.2059
   33MOL    C56 8440   2.963   1.611   3.525 -0.2793 -0.6921  0.1044
   33MOL    O57 8441   2.952   1.529   3.617  0.1659 -0.2432  0.4671
   33MOL    C58 8442   2.959   1.759   3.556  0.3333  0.1116 -0.4677
   33MOL    C59 8443   2.809   1.408   3.323 -0.2427 -0.3730 -0.4725
   33MOL    H60 8444   2.976   1.495   3.230 -0.2909  1.0267  0.5275
   33MOL    H61 8445   2.958   1.673   3.338  1.5587  0.1957 -0.2029
   33MOL    H62 8446   3.023   1.771   3.643  0.4467 -0.4548 -0.4695
   33MOL    H63 8447   3.012   1.819   3.482 -0.4996 -0.2015 -1.3273
   33MOL    H64 8448   2.856   1.788   3.577  0.0592  0.0320 -1.6816
   33MOL    H65 8449   2.787   1.365   3.421  3.0897  1.4588  1.2131
   33MOL    H66 8450   2.745   1.496   3.319  0.2570  0.2234  3.0897
   33MOL    C67 8451   2.765   1.326   3.197  0.3381  0.5623  0.2109
   33MOL    N68 8452   2.612   1.337   3.178  0.0933 -0.6639  0.1760
   33MOL    C69 8453   2.548   1.414   3.079 -0.2753  0.3936 -0.1510
   33MOL    O70 8454   2.599   1.461   2.978  0.3166  0.4041 -0.0675
   33MOL    C71 8455   2.405   1.457   3.098  0.2007 -0.3735 -0.1062
   33MOL    C72 8456   2.803   1.181   3.214  0.4651 -0.3761 -0.2867
   33MOL    H73 8457   2.814   1.367   3.109  0.3123  1.0850  0.4378
   33MOL    H74 8458   2.554   1.324   3.259  1.4666  1.5537  1.5820
   33MOL    H75 8459   2.350   1.389   3.163 -0.8672  1.6240  1.0910
   33MOL    H76 8460   2.402   1.548   3.158 -1.1305  0.0922 -0.8595
   33MOL    H77 8461   2.340   1.460   3.011 -0.7973 -1.2198  0.5928
   33MOL    H78 8462   2.896   1.160   3.268  0.0856  0.5106  0.7225
   33MOL    H79 8463   2.735   1.144   3.291 -0.2869  2.2473  0.3362
   33MOL    C80 8464   2.791   1.097   3.079 -0.0520  0.7009  0.3263
   33MOL    N81 8465   2.787   0.952   3.115 -0.0372 -0.1701 -0.1608
   33MOL    C82 8466   2.675   0.878   3.119 -0.8008  0.6955  0.2130
   33MOL    O83 8467   2.562   0.906   3.095 -0.0792  0.2126  0.6090
   33MOL    C84 8468   2.699   0.732   3.156 -0.4476 -0.6512  0.2420
   33MOL    C85 8469   2.884   1.143   2.962 -0.4621 -0.1022  0.9176
   33MOL    H86 8470   2.693   1.128   3.043 -0.1021  0.1688 -0.0118
   33MOL    H87 8471   2.876   0.907   3.131 -0.1447 -1.0830 -1.9900
   33MOL    H88 8472   2.639   0.664   3.096 -0.8839  0.4956 -0.6499
   33MOL    H89 8473   2.801   0.709   3.125 -0.6466  1.2242 -1.9132
   33MOL    H90 8474   2.687   0.718   3.263 -0.5464  0.9283  0.4434
   33MOL    H91 8475   2.869   1.068   2.884 -1.0292 -0.7062  1.5929
   33MOL    H92 8476   2.847   1.234   2.917  0.8413  0.0303  0.0689
   33MOL    C93 8477   3.032   1.163   2.984  0.1698 -0.7212  0.0970
   33MOL    N94 8478   3.102   1.178   2.856 -0.3672 -0.3702  0.5559
   33MOL    C95 8479   3.149   1.297   2.818 -0.1411  0.3301 -0.6296
   33MOL    O96 8480   3.143   1.396   2.891 -0.0928 -0.1368  0.3308
   33MOL    C97 8481   3.204   1.297   2.680  0.1501 -0.0213  0.6058
   33MOL    C98 8482   3.099   1.050   3.058 -0.1764  0.4782 -0.0773
   33MOL    H99 8483   3.042   1.249   3.049  0.9418  0.6745 -1.8465
   33MOL   H100 8484   3.075   1.114   2.783  0.9426  0.8412 -1.0368
   33MOL   H101 8485   3.259   1.209   2.647 -0.6157 -0.1072 -0.4582
   33MOL   H102 8486   3.115   1.320   2.621  2.0497  0.5254 -2.1201
   33MOL   H103 8487   3.270   1.383   2.671  2.6901 -1.9272  0.6528
   33MOL   H104 8488   3.063   1.063   3.160 -0.2605  2.8375 -0.3743
   33MOL   H105 8489   3.055   0.963   3.010  0.9460 -0.9028  1.3384
   33MOL   C106 8490   3.244   1.025   3.057  0.1825 -0.5660 -0.2833
   33MOL   N107 8491   3.291   0.908   3.134 -0.7347 -0.2515  0.4616
   33MOL   C108 8492   3.303   0.894   3.269 -0.2975 -0.7269 -0.3349
   33MOL   O109 8493   3.249   0.976   3.348  1.0129 -0.0046 -0.5226
   33MOL   C110 8494   3.393   0.779   3.314  0.2735 -0.2494  0.0117
   33MOL   C111 8495   3.327   1.150   3.109  0.3781 -0.3561  0.3575
   33MOL   H112 8496   3.281   1.005   2.956  2.9184 -0.1610  0.6043
   33MOL   H113 8497   3.340   0.848   3.069  0.8684  3.2313 -1.6419
   33MOL   H114 8498   3.321   0.714   3.364  0.0244  1.1363  1.5079
   33MOL   H115 8499   3.458   0.729   3.241 -0.8291  1.0756 -1.9317
   33MOL   H116 8500   3.467   0.808   3.389  0.9124 -0.6776 -0.4423
   33MOL   H117 8501   3.280   1.246   3.086  0.9052 -0.0989  0.3640
   33MOL   H118 8502   3.328   1.146   3.218 -0.8262  0.3993  0.4082
   33MOL   C119 8503   3.466   1.155   3.057 -0.0781 -0.4984 -0.7179
   33MOL   N120 8504   3.553   1.230   3.153 -0.2950  0.0258  0.1138
   33MOL   C121 8505   3.622   1.179   3.254 -0.4488  0.1266 -0.2988
   33MOL   O122 8506   3.613   1.064   3.289  0.9800  0.2340 -0.6398
   33MOL   C123 8507   3.717   1.277   3.328  0.0669 -0.2566 -0.6491
   33MOL   C124 8508   3.481   1.208   2.912 -0.2077 -0.2105  0.0520
   33MOL   H125 8509   3.506   1.054   3.064 -0.1359 -0.3579  2.3636
   33MOL   H126 8510   3.564   1.330   3.143  0.4606  0.1589  2.1384
   33MOL   H127 8511   3.807   1.304   3.272  1.2728 -1.0360  0.8571
   33MOL   H128 8512   3.665   1.369   3.352 -1.5933 -1.5639  0.8931
   33MOL   H129 8513   3.751   1.243   3.426 -0.5791  2.3262  0.5006
   33MOL   H130 8514   3.433   1.136   2.846 -1.3989 -0.6100  1.3297
   33MOL   H131 8515   3.435   1.306   2.904 -1.7985 -1.0235 -0.8455
   33MOL   C132 8516   3.629   1.215   2.852  0.2365 -0.1054  0.0289
   33MOL   N133 8517   3.709   1.328   2.904  0.2154  0.2328 -0.1094
   33MOL   C134 8518   3.835   1.323   2.949  0.5102  0.3583 -0.0052
   33MOL   O135 8519   3.899   1.219   2.950 -0.0053  0.0093 -0.2334
   33MOL   C136 8520   3.912   1.457   2.994  0.0256  0.3639 -0.0182
   33MOL   C137 8521   3.627   1.241   2.698  0.0186  0.4342 -0.2484
   33MOL   H138 8522   3.680   1.128   2.891  0.8809  0.1516 -0.2416
   33MOL   H139 8523   3.661   1.416   2.919  0.2106 -0.2557  3.1958
   33MOL   H140 8524   4.017   1.444   3.021 -0.1604  1.3886  1.2687
   33MOL   H141 8525   3.916   1.528   2.912 -0.8059  0.3945 -0.0373
   33MOL   H142 8526   3.875   1.487   3.092 -1.6863 -1.1868 -0.1650
   33MOL   H143 8527   3.561   1.318   2.658 -0.3573  0.4942  0.4716
   33MOL   H144 8528   3.727   1.274   2.672  0.9031 -1.6713  0.3563
   33MOL   C145 8529   3.602   1.124   2.603 -0.2483  0.1571  0.0544
   33MOL   N146 8530   3.610   0.992   2.664 -0.1389 -0.1590 -0.6188
   33MOL   C147 8531   3.509   0.915   2.691 -0.1163  0.1267 -0.1356
   33MOL   O148 8532   3.391   0.953   2.693 -0.1381  0.3807 -0.1576
   33MOL   C149 8533   3.546   0.772   2.726  0.2604  0.1963  0.2837
   33MOL   C150 8534   3.686   1.135   2.479  0.1853 -0.4916 -0.0298
   33MOL   H151 8535   3.504   1.130   2.557 -0.9702 -1.7617  1.2733
   33MOL   H152 8536   3.698   0.944   2.676  0.8440  1.7687  0.1357
   33MOL   H153 8537   3.485   0.705   2.666 -0.8357  0.9794  0.5158
   33MOL   H154 8538   3.644   0.747   2.684 -0.2683 -1.1425 -0.1591
   33MOL   H155 8539   3.550   0.746   2.832 -0.0668  0.2592  0.3124
   33MOL   H156 8540   3.791   1.146   2.506  0.3625  1.6241 -1.4893
   33MOL   H157 8541   3.665   1.044   2.423  0.6362 -2.1408  2.3857
   33MOL   C158 8542   3.659   1.254   2.389  0.0953  0.9016  0.1212
   33MOL   N159 8543   3.534   1.230   2.314 -0.0176 -0.1360  0.4007
   33MOL   C160 8544   3.431   1.315   2.299 -0.4047  0.4924  0.6259
   33MOL   O161 8545   3.425   1.410   2.370 -0.8857  0.6129 -0.4211
   33MOL   C162 8546   3.325   1.287   2.189  0.3736 -0.1900 -0.8143
   33MOL   C163 8547   3.775   1.272   2.285 -0.1512  0.5910 -0.3470
   33MOL   H164 8548   3.651   1.344   2.451 -0.3533  1.4922 -0.7724
   33MOL   H165 8549   3.522   1.145   2.262 -2.3652  1.0106 -1.0502
   33MOL   H166 8550   3.242   1.247   2.246  1.4073  0.9392  1.5716
   33MOL   H167 8551   3.318   1.375   2.124  2.7837 -0.8734 -2.0694
   33MOL   H168 8552   3.362   1.203   2.130 -0.7394 -2.3004  1.4094
   33MOL   H169 8553   3.871   1.277   2.336 -0.1463  2.8256 -0.5439
   33MOL   H170 8554   3.785   1.186   2.219  1.1852  0.2820  0.2323
   33MOL   C171 8555   3.758   1.403   2.206 -0.0751  0.2555 -0.2673
   33MOL   N172 8556   3.785   1.385   2.064  0.1461 -0.3854 -0.5555
   33MOL   C173 8557   3.689   1.384   1.970  0.1097 -0.0568 -0.3059
   33MOL   O174 8558   3.566   1.397   1.992  1.2776 -0.1436  0.0642
   33MOL   C175 8559   3.744   1.346   1.828 -0.5937  0.0196  0.1369
   33MOL   C176 8560   3.866   1.502   2.264 -0.4234 -0.0657 -0.0998
   33MOL   H177 8561   3.661   1.450   2.222  0.5152  1.8024 -1.1038
   33MOL   H178 8562   3.880   1.363   2.039  0.6563 -0.6781  1.5604
   33MOL   H179 8563   3.724   1.239   1.828  1.4646 -0.3841  0.8555
   33MOL   H180 8564   3.679   1.378   1.746  0.5040 -0.1477 -0.8192
   33MOL   H181 8565   3.851   1.368   1.821 -0.2749 -1.2834  0.8096
   33MOL   H182 8566   3.960   1.456   2.235 -0.8086 -0.5720 -0.5839
   33MOL   H183 8567   3.871   1.590   2.200 -1.1608  0.1309  0.1056
   33MOL   C184 8568   3.865   1.544   2.413 -0.7024  0.0494  0.4518
   33MOL   N185 8569   3.731   1.600   2.439  0.4878  0.4847 -0.6472
   33MOL   C186 8570   3.673   1.605   2.559 -0.5803  0.0136 -0.4916
   33MOL   O187 8571   3.730   1.561   2.654 -0.1292 -0.5144 -0.6298
   33MOL   C188 8572   3.532   1.653   2.559 -0.1489  0.3184  0.2906
   33MOL   C189 8573   3.985   1.632   2.456 -0.5795  0.6419 -0.1833
   33MOL   H190 8574   3.874   1.449   2.466 -0.8810  0.0472  0.4800
   33MOL   H191 8575   3.679   1.619   2.355 -0.9196  3.2207  0.7631
   33MOL   H192 8576   3.468   1.583   2.613  0.1513 -1.0660 -1.1161
   33MOL   H193 8577   3.524   1.754   2.600 -1.4469  0.4970 -0.3606
   33MOL   H194 8578   3.490   1.645   2.458 -0.8541  0.6433  0.5499
   33MOL   H195 8579   4.040   1.660   2.366  1.2601 -3.4850 -0.4246
   33MOL   H196 8580   3.949   1.730   2.488  0.4089  0.0774  2.8162
   33MOL   C197 8581   4.075   1.557   2.557  0.5732 -0.0224 -0.1674
   33MOL   N198 8582   4.175   1.649   2.621  0.1266 -0.3658 -0.2955
   33MOL   C199 8583   4.137   1.733   2.718 -0.4024  0.0947  0.5641
   33MOL   O200 8584   4.028   1.743   2.765 -0.4713 -0.1858  0.2351
   33MOL   C201 8585   4.241   1.836   2.752 -0.6970  0.5471 -0.6073
   33MOL   C202 8586   4.163   1.440   2.495  0.0182 -0.0113  0.9703
   33MOL   H203 8587   4.010   1.519   2.635 -0.6232  0.6843 -0.8107
   33MOL   H204 8588   4.269   1.655   2.585  0.4722  1.1719  0.8293
   33MOL   H205 8589   4.209   1.940   2.749  0.9145  1.0321 -1.8139
   33MOL   H206 8590   4.270   1.822   2.856 -0.4261  0.3158 -0.7120
   33MOL   H207 8591   4.336   1.823   2.700 -0.7795  2.8134 -1.3684
   33MOL   H208 8592   4.101   1.367   2.444 -2.0415  1.1612  1.7333
   33MOL   H209 8593   4.228   1.490   2.423 -1.0039 -0.0084  0.0359
   33MOL   C210 8594   4.238   1.352   2.598  0.1549 -0.2446  0.2053
   33MOL   N211 8595   4.369   1.319   2.536  0.3061  0.3530 -0.3567
   33MOL   C212 8596   4.470   1.399   2.495  0.4691  0.0236 -0.7082
   33MOL   O213 8597   4.476   1.515   2.532  0.3524  0.2050 -0.0193
   33MOL   C214 8598   4.588   1.341   2.424  0.2732 -0.0092  0.0741
   33MOL   C215 8599   4.157   1.232   2.649 -0.8083  0.5609  0.2624
   33MOL   H216 8600   4.255   1.416   2.685 -2.1201  0.8554 -0.1532
   33MOL   H217 8601   4.380   1.219   2.531  0.2978  0.3605 -0.5398
   33MOL   H218 8602   4.566   1.238   2.395  1.1878  0.2037 -1.4110
   33MOL   H219 8603   4.609   1.396   2.332 -0.5950 -2.1350 -1.4376
   33MOL   H220 8604   4.675   1.340   2.489 -0.2283 -1.4830  0.7405
   33MOL   H221 8605   4.058   1.269   2.677 -0.9670 -0.5215  1.1500
   33MOL   H222 8606   4.143   1.166   2.563 -1.6664 -1.3815  1.8703
   33MOL   C223 8607   4.196   1.138   2.763  0.0724 -0.1058  0.5771
   33MOL   N224 8608   4.076   1.056   2.788 -0.6975  0.0874  0.0885
   33MOL   C225 8609   4.042   0.939   2.731  0.1317 -0.5966  0.3431
   33MOL   O226 8610   4.107   0.885   2.640 -0.4029  0.0473  0.1563
   33MOL   C227 8611   3.922   0.878   2.781 -0.1987 -0.0732 -0.7066
   33MOL   C228 8612   4.226   1.217   2.884  0.4255  0.3025 -0.7202
   33MOL   H229 8613   4.275   1.073   2.724  1.2388  1.8154 -0.3327
   33MOL   H230 8614   4.021   1.083   2.869  0.4489 -0.7347  1.1746
   33MOL   H231 8615   3.855   0.844   2.702 -1.0617  0.6238 -0.2763
   33MOL   H232 8616   3.945   0.796   2.849 -1.1650  1.9733  2.1571
   33MOL   H233 8617   3.865   0.945   2.846 -1.6092 -1.5261 -0.4094
   33MOL   H234 8618   4.311   1.281   2.862  1.2484  0.0651  1.5985
   33MOL   H235 8619   4.149   1.292   2.908  1.1274  1.0581 -0.8134
   33MOL   C236 8620   4.254   1.140   3.016 -0.0751 -0.2000 -0.5080
   33MOL   N237 8621   4.221   1.232   3.125  0.0237 -0.0369  0.7467
   33MOL   C238 8622   4.157   1.199   3.236  0.7844 -0.5704 -0.1581
   33MOL   O239 8623   4.151   1.080   3.265  0.8048 -0.2930  0.1686
   33MOL   C240 8624   4.120   1.317   3.321 -0.3037 -0.9347 -0.8796
   33MOL   C241 8625   4.398   1.107   3.026  0.0510  0.5524 -0.7272
   33MOL   H242 8626   4.196   1.048   3.006 -0.0725 -0.4052  1.2023
   33MOL   H243 8627   4.232   1.331   3.106 -0.0043 -0.0370  0.7305
   33MOL   H244 8628   4.207   1.382   3.332  1.6347 -3.4689 -0.6702
   33MOL   H245 8629   4.037   1.375   3.280  0.1870  0.3515 -0.0752
   33MOL   H246 8630   4.082   1.288   3.419 -0.7713  0.5372 -0.6153
   33MOL   H247 8631   4.418   1.046   2.937 -1.0078  0.5224 -0.9514
   33MOL   H248 8632   4.456   1.199   3.015 -0.0930  0.4968 -2.1393
   33MOL   C249 8633   4.440   1.015   3.145  0.0561  0.6644  0.7381
   33MOL   N250 8634   4.355   0.905   3.183  0.3629  0.4667 -0.2372
   33MOL   C251 8635   4.387   0.789   3.235 -0.4407  1.0269 -0.2493
   33MOL   O252 8636   4.508   0.762   3.261  0.8019  0.0783  0.3468
   33MOL   C253 8637   4.278   0.697   3.266  0.9212  0.6146  0.4884
   33MOL   C254 8638   4.488   1.099   3.270  0.3508 -0.6354  0.1957
   33MOL   H255 8639   4.533   0.971   3.108  0.7871  1.8764  1.1073
   33MOL   H256 8640   4.259   0.936   3.177  0.4911  0.9329  0.0635
   33MOL   H257 8641   4.242   0.639   3.182  0.3677  1.2244  0.3059
   33MOL   H258 8642   4.325   0.621   3.330  1.7056  0.1356 -0.6396
   33MOL   H259 8643   4.189   0.746   3.304  0.9624  1.3089 -0.3012
   33MOL   H260 8644   4.416   1.130   3.344  0.0306  0.2132 -0.4670
   33MOL   H261 8645   4.559   1.036   3.323  0.1074 -0.0520  1.2144
   33MOL   H262 8646   4.550   1.177   3.225 -0.0362  0.5766  1.7319
   34MOL     C1 8647   5.253   2.181   4.184  0.3426  0.2778  0.0932
   34MOL     N2 8648   5.389   2.219   4.191 -0.1463  0.1412 -0.3200
   34MOL     C3 8649   5.473   2.151   4.271  0.2363  0.4634  0.7813
   34MOL     O4 8650   5.432   2.068   4.351 -0.6249  0.3960 -0.0060
   34MOL     C5 8651   5.620   2.178   4.265 -0.0780  0.8114  0.4558
   34MOL     C6 8652   5.162   2.264   4.279  0.1812  0.3238 -0.2012
   34MOL     H7 8653   5.230   2.192   4.078 -1.1439 -0.6754  0.3080
   34MOL     H8 8654   5.421   2.287   4.124 -1.5058 -1.1604 -2.3469
   34MOL     H9 8655   5.675   2.115   4.195 -0.1204  1.3776 -0.0889
   34MOL    H10 8656   5.633   2.276   4.219  2.7689 -0.6673 -2.1268
   34MOL    H11 8657   5.671   2.180   4.361  0.1504 -1.0632  0.3961
   34MOL    H12 8658   5.179   2.228   4.380  1.0015 -0.5958 -0.6517
   34MOL    H13 8659   5.207   2.363   4.283  4.4173 -1.4160 -1.9457
   34MOL    H14 8660   5.254   2.074   4.201  2.4648  0.0087 -1.3933
   34MOL    C15 8661   5.009   2.271   4.250 -0.1589 -0.6133 -1.1334
   34MOL    N16 8662   4.949   2.344   4.357  0.5800 -0.2923  0.0342
   34MOL    C17 8663   4.826   2.403   4.359  0.3554 -0.1235  0.7833
   34MOL    O18 8664   4.749   2.407   4.264  0.9029  0.1985 -0.0664
   34MOL    C19 8665   4.795   2.486   4.483 -0.1376  0.5865  0.0583
   34MOL    C20 8666   4.941   2.139   4.227  0.0735 -0.4422  0.1326
   34MOL    H21 8667   4.987   2.339   4.168 -0.9811 -0.7869 -1.0519
   34MOL    H22 8668   5.001   2.364   4.442  1.6059 -0.9287 -0.4404
   34MOL    H23 8669   4.791   2.594   4.463  0.3973  0.3549 -1.3608
   34MOL    H24 8670   4.707   2.460   4.541  0.0147 -3.7439 -1.5170
   34MOL    H25 8671   4.880   2.476   4.551 -1.2662  0.5107  1.4911
   34MOL    H26 8672   4.987   2.074   4.301  0.1188 -0.3202  0.2127
   34MOL    H27 8673   4.838   2.138   4.262  0.2492  1.5926  0.8087
   34MOL    C28 8674   4.949   2.082   4.085 -0.1137 -0.3507  0.2150
   34MOL    N29 8675   4.862   2.159   4.000  0.3345  0.5349 -0.2176
   34MOL    C30 8676   4.895   2.263   3.923  0.0367 -0.3749  0.1758
   34MOL    O31 8677   5.009   2.299   3.914 -0.3332  0.4298  0.4069
   34MOL    C32 8678   4.780   2.341   3.857  0.5441  0.1184  0.0221
   34MOL    C33 8679   4.916   1.930   4.076 -0.2444 -0.3570 -0.1713
   34MOL    H34 8680   5.050   2.098   4.046  0.5305 -0.7627  1.6899
   34MOL    H35 8681   4.766   2.127   3.996  0.6024 -0.2104 -0.9983
   34MOL    H36 8682   4.682   2.295   3.844 -0.1552  2.0048 -1.7452
   34MOL    H37 8683   4.763   2.423   3.925 -0.0224 -0.7654  0.9546
   34MOL    H38 8684   4.808   2.382   3.759  0.7021 -0.7225 -0.2931
   34MOL    H39 8685   4.818   1.907   4.117  0.4856 -1.0892  1.1803
   34MOL    H40 8686   4.897   1.909   3.970 -0.3193 -1.0375 -0.0283
   34MOL    C41 8687   5.019   1.822   4.132 -0.1679  0.0711 -0.0736
   34MOL    N42 8688   5.140   1.825   4.054 -0.2527 -0.6620 -0.2389
   34MOL    C43 8689   5.259   1.786   4.095  0.2255  0.2923 -0.0681
   34MOL    O44 8690   5.276   1.727   4.202  0.3923 -0.1233  0.7844
   34MOL    C45 8691   5.381   1.833   4.021 -0.9212 -0.1097  0.3113
   34MOL    C46 8692   4.953   1.680   4.153 -0.0634 -0.0377 -0.2029
   34MOL    H47 8693   5.046   1.862   4.230  0.1267  0.4667 -0.3171
   34MOL    H48 8694   5.135   1.867   3.963 -0.0441  0.6773  0.3675
   34MOL    H49 8695   5.367   1.934   3.982 -0.6070 -0.3550 -0.4683
   34MOL    H50 8696   5.468   1.835   4.087 -1.3015 -2.5986  0.9604
   34MOL    H51 8697   5.403   1.766   3.937  1.0209  2.0193 -0.9539
   34MOL    H52 8698   4.889   1.673   4.066  0.6850  0.1126 -0.7760
   34MOL    H53 8699   5.026   1.602   4.132 -1.2827 -1.4560  0.7240
   34MOL    C54 8700   4.873   1.653   4.285  0.3193 -0.6200  0.0144
   34MOL    N55 8701   4.968   1.677   4.397 -0.2665  0.1901 -0.0175
   34MOL    C56 8702   4.943   1.752   4.502 -0.3955  0.4915  0.2483
   34MOL    O57 8703   4.845   1.818   4.518  0.0532  0.0178  0.6056
   34MOL    C58 8704   5.058   1.768   4.611 -0.2796  0.2645 -0.6987
   34MOL    C59 8705   4.806   1.506   4.279 -0.0438  0.0099 -0.5747
   34MOL    H60 8706   4.798   1.731   4.281 -0.6014 -1.5658 -1.6568
   34MOL    H61 8707   5.048   1.615   4.394 -1.0196 -0.7337 -1.6938
   34MOL    H62 8708   5.159   1.740   4.580 -0.2415 -1.1081  0.6699
   34MOL    H63 8709   5.071   1.875   4.628 -1.3878  0.3850 -0.5858
   34MOL    H64 8710   5.020   1.718   4.699 -0.0100  1.8762  0.3490
   34MOL    H65 8711   4.742   1.506   4.191  1.2729 -0.7719 -1.5572
   34MOL    H66 8712   4.895   1.443   4.266  1.9587  2.6924 -0.1587
   34MOL    C67 8713   4.721   1.464   4.405  0.2400  0.3230  0.5993
   34MOL    N68 8714   4.667   1.324   4.383 -0.3385 -0.2402 -0.3972
   34MOL    C69 8715   4.702   1.204   4.428  0.5233  0.3188 -0.4176
   34MOL    O70 8716   4.786   1.193   4.515  0.0991 -0.2994 -0.0684
   34MOL    C71 8717   4.620   1.078   4.386  0.7481 -0.4176 -0.7819
   34MOL    C72 8718   4.613   1.557   4.461  0.0117  0.4584  0.5428
   34MOL    H73 8719   4.801   1.455   4.478 -0.1279 -0.0517  0.9531
   34MOL    H74 8720   4.589   1.332   4.319 -0.3301  1.2420 -0.2189
   34MOL    H75 8721   4.534   1.065   4.452 -0.1892 -1.0347 -2.1061
   34MOL    H76 8722   4.584   1.080   4.283  0.5116 -3.3517 -0.7939
   34MOL    H77 8723   4.681   0.988   4.383 -0.8824 -1.5692  0.2233
   34MOL    H78 8724   4.659   1.656   4.467 -1.6561  1.5441 -2.7321
   34MOL    H79 8725   4.544   1.576   4.378 -0.2525  0.4009  0.7502
   34MOL    C80 8726   4.544   1.510   4.589 -0.1225 -0.7202 -0.9254
   34MOL    N81 8727   4.405   1.548   4.592  0.1074 -0.3024  0.5421
   34MOL    C82 8728   4.306   1.466   4.614  0.0473  0.3173  0.1040
   34MOL    O83 8729   4.331   1.353   4.646 -0.0340  0.1286  0.5232
   34MOL    C84 8730   4.164   1.524   4.613 -0.5104  0.0985 -0.0579
   34MOL    C85 8731   4.625   1.565   4.715  0.5170  0.8151 -0.1455
   34MOL    H86 8732   4.559   1.403   4.603  2.8043 -0.1996  0.3387
   34MOL    H87 8733   4.378   1.643   4.576  1.1775 -0.5132 -2.8826
   34MOL    H88 8734   4.119   1.502   4.710  1.1855 -1.5036  0.3845
   34MOL    H89 8735   4.165   1.629   4.582 -0.0352  0.7473  2.0481
   34MOL    H90 8736   4.103   1.463   4.547 -0.3344 -0.3745  0.2127
   34MOL    H91 8737   4.703   1.495   4.747 -0.8020 -0.3547  0.5983
   34MOL    H92 8738   4.687   1.650   4.687  1.5376  0.2570  0.3953
   34MOL    C93 8739   4.551   1.591   4.850 -0.2177 -0.2393  0.3274
   34MOL    N94 8740   4.479   1.473   4.892 -0.0703  0.6338 -0.0812
   34MOL    C95 8741   4.470   1.435   5.020 -0.1863  0.1768 -0.6307
   34MOL    O96 8742   4.518   1.503   5.110  0.1667 -0.0746  0.0571
   34MOL    C97 8743   4.388   1.312   5.039  0.1970 -0.7034 -0.4279
   34MOL    C98 8744   4.454   1.715   4.854 -0.1794  0.1949 -0.8301
   34MOL    H99 8745   4.624   1.617   4.927  0.0437 -0.7711  0.2614
   34MOL   H100 8746   4.419   1.433   4.821 -1.4670  0.2803  1.2583
   34MOL   H101 8747   4.402   1.238   4.961  1.4772 -1.6010  0.6339
   34MOL   H102 8748   4.424   1.268   5.132 -0.3282  0.5034  0.3547
   34MOL   H103 8749   4.286   1.348   5.055  0.3599  1.1553 -3.2329
   34MOL   H104 8750   4.387   1.705   4.768  0.3284 -0.2458 -1.1801
   34MOL   H105 8751   4.395   1.702   4.944  1.7208 -1.1534  0.2618
   34MOL   C106 8752   4.524   1.853   4.854 -0.3145 -0.6941  0.1094
   34MOL   N107 8753   4.609   1.858   4.970 -0.5493 -0.3168 -0.8884
   34MOL   C108 8754   4.725   1.925   4.985 -0.2498  0.4084 -0.0112
   34MOL   O109 8755   4.763   2.021   4.916  0.0853 -0.6578 -0.1395
   34MOL   C110 8756   4.814   1.880   5.100  0.1906  0.3032  0.2043
   34MOL   C111 8757   4.430   1.969   4.874 -0.4330  0.0091  0.0056
   34MOL   H112 8758   4.595   1.860   4.772 -1.9123  1.4056 -1.1469
   34MOL   H113 8759   4.599   1.779   5.033 -2.1982  1.2652  0.8869
   34MOL   H114 8760   4.851   1.780   5.078 -1.0277 -0.1756  0.3071
   34MOL   H115 8761   4.895   1.952   5.113 -0.4400  0.9731  0.4119
   34MOL   H116 8762   4.751   1.870   5.189  0.9538 -0.4714  0.6720
   34MOL   H117 8763   4.379   1.949   4.968 -0.5970 -0.2084 -0.1290
   34MOL   H118 8764   4.477   2.064   4.900  0.5332 -1.3088  3.2523
   34MOL   C119 8765   4.329   1.993   4.759  0.1639 -0.4131 -1.3705
   34MOL   N120 8766   4.394   2.024   4.638  0.3816  1.0458  0.1929
   34MOL   C121 8767   4.391   1.940   4.535  0.2540 -0.3913 -0.4644
   34MOL   O122 8768   4.335   1.834   4.533  0.1161  0.0880  0.0601
   34MOL   C123 8769   4.467   1.994   4.407 -0.1784  0.6565 -0.9470
   34MOL   C124 8770   4.228   2.111   4.792 -0.0927 -0.3928  1.0300
   34MOL   H125 8771   4.264   1.906   4.748 -1.8521  0.8204  0.3250
   34MOL   H126 8772   4.435   2.116   4.627 -0.2453  1.2419 -0.5475
   34MOL   H127 8773   4.519   1.912   4.358  1.3988 -0.0242  1.7252
   34MOL   H128 8774   4.383   2.035   4.351  0.7477  2.0815 -1.3125
   34MOL   H129 8775   4.535   2.074   4.435 -0.6579 -0.0768  2.5585
   34MOL   H130 8776   4.287   2.202   4.800  0.3886 -0.5870 -0.1805
   34MOL   H131 8777   4.160   2.115   4.707  2.8968  1.4566 -1.3873
   34MOL   C132 8778   4.153   2.116   4.931 -1.2010 -0.0292  0.2384
   34MOL   N133 8779   4.049   2.020   4.930 -0.3595  0.5309  0.1700
   34MOL   C134 8780   4.056   1.895   4.975  0.4754 -0.2981 -0.5470
   34MOL   O135 8781   4.160   1.846   5.017 -0.3949  0.0088  0.4724
   34MOL   C136 8782   3.921   1.819   4.956  0.4439  0.4124 -1.2544
   34MOL   C137 8783   4.093   2.254   4.973  0.3803  0.0302  0.1978
   34MOL   H138 8784   4.220   2.084   5.011 -0.5331  0.2174 -0.2156
   34MOL   H139 8785   3.965   2.046   4.881 -0.4970  0.9212  0.6123
   34MOL   H140 8786   3.835   1.884   4.939 -0.6798 -0.4242  1.1209
   34MOL   H141 8787   3.925   1.740   4.881  1.3216 -0.8319  0.0945
   34MOL   H142 8788   3.891   1.772   5.049 -0.5899 -1.8162 -2.6624
   34MOL   H143 8789   4.185   2.309   4.990  0.9932 -0.6407 -0.8859
   34MOL   H144 8790   4.049   2.303   4.886 -0.5269  1.1026  1.2445
   34MOL   C145 8791   4.014   2.265   5.110  0.5249  0.5422 -0.4950
   34MOL   N146 8792   3.880   2.215   5.078 -0.5403 -0.5591  0.2357
   34MOL   C147 8793   3.806   2.166   5.178  0.1789  0.0149  0.2990
   34MOL   O148 8794   3.846   2.156   5.290  0.0415 -0.0252 -0.0205
   34MOL   C149 8795   3.667   2.110   5.143 -0.2020  0.4224 -0.2955
   34MOL   C150 8796   4.012   2.409   5.170 -0.0800  0.3055  0.1844
   34MOL   H151 8797   4.066   2.193   5.174  0.5452 -0.8965 -2.0535
   34MOL   H152 8798   3.844   2.235   4.986  1.1474 -2.0981 -0.7932
   34MOL   H153 8799   3.668   2.013   5.093 -0.5448  1.3576 -2.1678
   34MOL   H154 8800   3.615   2.088   5.236  0.2499 -2.9869 -0.8076
   34MOL   H155 8801   3.612   2.180   5.079 -0.9232  0.2434  0.1230
   34MOL   H156 8802   3.947   2.472   5.109 -0.6112 -0.0359  0.3882
   34MOL   H157 8803   3.965   2.398   5.268 -0.8353  1.1161 -0.0734
   34MOL   C158 8804   4.150   2.476   5.212  0.2221  0.3142  0.1684
   34MOL   N159 8805   4.242   2.384   5.274  0.0608  0.2131 -0.3758
   34MOL   C160 8806   4.372   2.371   5.253 -0.2885  0.2229  0.5061
   34MOL   O161 8807   4.433   2.456   5.191  0.0201 -0.2925  0.6426
   34MOL   C162 8808   4.437   2.263   5.339 -1.1163  0.5788  0.2907
   34MOL   C163 8809   4.124   2.590   5.312 -0.2152  0.1076  0.4008
   34MOL   H164 8810   4.204   2.523   5.130 -0.3729  1.5076  0.4473
   34MOL   H165 8811   4.204   2.303   5.321  0.5417 -0.3583 -0.9669
   34MOL   H166 8812   4.382   2.169   5.351 -0.1460  0.2284  2.2468
   34MOL   H167 8813   4.525   2.227   5.286 -0.2078  2.0664  0.7732
   34MOL   H168 8814   4.466   2.300   5.438  2.0684  2.0657 -1.1364
   34MOL   H169 8815   4.088   2.544   5.405 -0.5619  2.1663  1.2976
   34MOL   H170 8816   4.218   2.641   5.333  1.0674 -2.1266  0.3740
   34MOL   C171 8817   4.024   2.696   5.265 -0.3358  0.4828  0.3765
   34MOL   N172 8818   4.077   2.789   5.168  0.0313  0.2388 -0.0999
   34MOL   C173 8819   4.066   2.778   5.037  0.4885 -0.1607 -0.3620
   34MOL   O174 8820   3.993   2.696   4.981 -0.0016  0.0084  0.2985
   34MOL   C175 8821   4.144   2.875   4.948 -0.4897  0.0019 -0.5200
   34MOL   C176 8822   3.970   2.789   5.379  0.7313 -0.7236  0.2076
   34MOL   H177 8823   3.933   2.656   5.219  1.7992 -0.5004 -3.1354
   34MOL   H178 8824   4.147   2.853   5.203  0.1827 -0.3252  0.6434
   34MOL   H179 8825   4.136   2.978   4.983 -2.4890 -0.6844  1.1880
   34MOL   H180 8826   4.247   2.840   4.948 -0.4751  0.0423 -0.1897
   34MOL   H181 8827   4.104   2.866   4.847 -1.6578  1.0871 -0.1643
   34MOL   H182 8828   3.924   2.734   5.461 -0.7988  2.0866  1.3060
   34MOL   H183 8829   4.050   2.849   5.421  1.9999 -0.7137 -2.1917
   34MOL   C184 8830   3.862   2.895   5.350 -0.4354  0.9706 -0.2749
   34MOL   N185 8831   3.791   2.937   5.468 -0.1837 -0.3233 -0.1171
   34MOL   C186 8832   3.840   3.009   5.564 -0.5406  0.0274  0.2187
   34MOL   O187 8833   3.959   3.025   5.577  0.2099 -0.3224 -0.0898
   34MOL   C188 8834   3.742   3.049   5.683  0.2434 -0.0747 -0.1189
   34MOL   C189 8835   3.756   2.855   5.246 -0.5890  0.7753  0.4682
   34MOL   H190 8836   3.911   2.981   5.306  1.6670 -0.4327 -0.7321
   34MOL   H191 8837   3.691   2.925   5.472 -0.0356 -1.2477  1.4150
   34MOL   H192 8838   3.677   3.121   5.634  1.2943  0.9640  0.0011
   34MOL   H193 8839   3.693   2.955   5.709  3.5953 -1.7799  0.3879
   34MOL   H194 8840   3.796   3.100   5.763 -1.2165  0.4563  0.5412
   34MOL   H195 8841   3.803   2.812   5.158  0.8184 -0.9496  2.0118
   34MOL   H196 8842   3.700   2.770   5.285  1.3330 -0.8616 -0.2120
   34MOL   C197 8843   3.660   2.970   5.198 -0.1744 -1.4232 -0.3800
   34MOL   N198 8844   3.577   3.018   5.307  0.4340  0.1791  0.3860
   34MOL   C199 8845   3.485   2.949   5.380  0.4604 -0.2495  0.4009
   34MOL   O200 8846   3.441   2.840   5.342  0.5428  0.0632 -0.2813
   34MOL   C201 8847   3.406   3.020   5.494 -0.1909  0.5095 -0.2325
   34MOL   C202 8848   3.573   2.924   5.066 -0.6154 -0.3989 -0.1105
   34MOL   H203 8849   3.710   3.063   5.169  0.7303 -1.9983 -0.6788
   34MOL   H204 8850   3.598   3.113   5.335  2.2633 -0.8859  2.8868
   34MOL   H205 8851   3.350   3.098   5.443 -1.7008 -0.2248  0.2821
   34MOL   H206 8852   3.333   2.950   5.534  1.5902 -1.2940 -0.0912
   34MOL   H207 8853   3.453   3.075   5.576  0.7108  0.6286 -0.8198
   34MOL   H208 8854   3.629   2.921   4.972 -0.4876 -0.6899 -0.0253
   34MOL   H209 8855   3.541   2.822   5.088  0.6418 -0.9039 -0.5689
   34MOL   C210 8856   3.446   2.997   5.036 -0.0800 -0.4119 -0.1133
   34MOL   N211 8857   3.365   2.943   4.921  0.3725 -0.0911 -0.0272
   34MOL   C212 8858   3.404   2.906   4.800  0.2055 -1.0481  0.6190
   34MOL   O213 8859   3.524   2.922   4.760  0.2652 -0.3972  0.2252
   34MOL   C214 8860   3.298   2.868   4.698 -0.1308 -0.1367 -1.2065
   34MOL   C215 8861   3.474   3.151   5.008 -0.2687 -0.1599 -0.1400
   34MOL   H216 8862   3.385   2.998   5.126 -2.9224 -0.2605 -1.9763
   34MOL   H217 8863   3.267   2.941   4.944  0.3105 -0.9215 -0.3458
   34MOL   H218 8864   3.299   2.938   4.614  2.4868 -0.2758 -1.3357
   34MOL   H219 8865   3.323   2.770   4.658 -0.3181 -0.9876  0.7261
   34MOL   H220 8866   3.200   2.868   4.746  1.0278 -0.7757  1.2261
   34MOL   H221 8867   3.537   3.190   5.087 -0.6867  1.1169 -0.4283
   34MOL   H222 8868   3.537   3.150   4.919  1.8649 -0.1251  1.3402
   34MOL   C223 8869   3.357   3.246   4.965 -0.4498  0.5976 -0.0954
   34MOL   N224 8870   3.422   3.370   4.921  0.1224 -0.4944  0.3174
   34MOL   C225 8871   3.409   3.426   4.806 -0.2700 -0.2067  0.4938
   34MOL   O226 8872   3.343   3.373   4.722  0.1508  0.3715  0.2768
   34MOL   C227 8873   3.484   3.559   4.788 -0.9711 -0.0208  0.9343
   34MOL   C228 8874   3.267   3.273   5.090  0.3538  0.0156 -0.1682
   34MOL   H229 8875   3.300   3.212   4.879  0.3898  1.1573 -0.8761
   34MOL   H230 8876   3.478   3.420   4.989  0.6002 -0.2783 -0.2410
   34MOL   H231 8877   3.524   3.562   4.687 -2.2918 -2.1096  0.3090
   34MOL   H232 8878   3.412   3.635   4.817  0.7379  1.9257  0.1718
   34MOL   H233 8879   3.570   3.558   4.856  0.5561  2.6042 -0.9082
   34MOL   H234 8880   3.244   3.183   5.147  0.7015  0.9011  1.4013
   34MOL   H235 8881   3.336   3.329   5.153 -0.0443 -0.9496  1.1480
   34MOL   C236 8882   3.137   3.353   5.050 -0.1405  0.1032 -0.2898
   34MOL   N237 8883   3.110   3.468   5.141 -0.3388  0.0888 -0.9015
   34MOL   C238 8884   3.140   3.595   5.116  0.3063  0.3801 -0.0159
   34MOL   O239 8885   3.208   3.633   5.023 -0.0218 -0.0344  0.2843
   34MOL   C240 8886   3.075   3.694   5.207  0.3368  0.1423 -1.2964
   34MOL   C241 8887   3.013   3.268   5.040  0.0325  0.7765  0.2775
   34MOL   H242 8888   3.154   3.387   4.948  0.4371  1.5179  0.2691
   34MOL   H243 8889   3.073   3.447   5.232  0.1817  1.1661 -0.4445
   34MOL   H244 8890   3.114   3.795   5.200 -0.3107  0.5384  0.5730
   34MOL   H245 8891   2.974   3.688   5.165 -0.8406 -0.4007  1.4651
   34MOL   H246 8892   3.091   3.658   5.309 -0.3008  0.1731 -1.1780
   34MOL   H247 8893   3.039   3.162   5.030  0.8876  0.7345  2.6796
   34MOL   H248 8894   2.964   3.280   5.136  2.4627  0.5897  1.5892
   34MOL   C249 8895   2.918   3.296   4.923  0.0956  0.2429  0.0053
   34MOL   N250 8896   2.981   3.252   4.797  0.4414 -0.8688 -0.2677
   34MOL   C251 8897   2.934   3.163   4.704 -0.0774 -0.2484 -0.4311
   34MOL   O252 8898   2.825   3.116   4.708  0.1909  0.1689 -0.2706
   34MOL   C253 8899   3.025   3.128   4.583 -0.2667 -0.8520  0.4373
   34MOL   C254 8900   2.867   3.441   4.915  0.1261 -0.6486  0.0341
   34MOL   H255 8901   2.834   3.229   4.940  0.5366 -0.4934 -0.6714
   34MOL   H256 8902   3.074   3.286   4.778  0.0404  0.0900 -0.5541
   34MOL   H257 8903   3.117   3.187   4.590 -1.2594  1.0885 -1.9559
   34MOL   H258 8904   3.041   3.021   4.571  0.9310 -0.6206 -0.1051
   34MOL   H259 8905   2.968   3.166   4.498  0.3880 -1.7880 -0.4185
   34MOL   H260 8906   2.943   3.514   4.889 -2.2013  2.1960  0.9048
   34MOL   H261 8907   2.790   3.453   4.839 -1.2304 -0.7921  1.3642
   34MOL   H262 8908   2.836   3.479   5.013  1.9562 -1.5367  0.9767
   35MOL     C1 8909   0.894   1.163   2.070 -0.1328  0.7577  0.4026
   35MOL     N2 8910   0.777   1.103   2.142 -0.3524  0.2573 -0.3837
   35MOL     C3 8911   0.787   0.990   2.211 -0.2254 -0.3156  0.0768
   35MOL     O4 8912   0.886   0.927   2.221 -0.3254  0.0936  0.1844
   35MOL     C5 8913   0.653   0.934   2.264 -0.7011 -0.3099  0.7295
   35MOL     C6 8914   0.910   1.309   2.114  0.1991  0.5246 -0.7213
   35MOL     H7 8915   0.984   1.112   2.104 -0.7344  0.8360  2.1566
   35MOL     H8 8916   0.687   1.148   2.134 -1.0817 -0.9449  0.8584
   35MOL     H9 8917   0.578   0.947   2.186 -0.4794  2.0402  0.8667
   35MOL    H10 8918   0.654   0.826   2.280  1.3185 -0.7016 -1.6453
   35MOL    H11 8919   0.609   0.983   2.351 -1.2654 -2.8381  1.9220
   35MOL    H12 8920   0.965   1.303   2.208 -0.9311  0.0699 -0.0806
   35MOL    H13 8921   0.981   1.363   2.052 -0.1984  1.2444 -0.5566
   35MOL    H14 8922   0.877   1.156   1.962  1.6321  3.2953 -0.1083
   35MOL    C15 8923   0.774   1.385   2.127 -0.2394  0.2125 -0.0371
   35MOL    N16 8924   0.692   1.378   2.002 -0.4414  0.3292  0.0323
   35MOL    C17 8925   0.580   1.313   1.981 -0.3089 -0.4239  0.0890
   35MOL    O18 8926   0.525   1.225   2.046 -0.3722 -0.2507  0.2311
   35MOL    C19 8927   0.517   1.347   1.845  0.3268 -0.1217 -0.5134
   35MOL    C20 8928   0.802   1.535   2.173  0.2180  0.7438 -0.0824
   35MOL    H21 8929   0.701   1.345   2.197  0.4628  0.1953  0.6984
   35MOL    H22 8930   0.735   1.443   1.938 -1.0750  1.4655  0.7386
   35MOL    H23 8931   0.429   1.409   1.863  0.0669 -0.8469  0.8373
   35MOL    H24 8932   0.588   1.394   1.777 -0.6611 -2.6121 -3.3785
   35MOL    H25 8933   0.494   1.250   1.801  1.4770 -1.6099  2.0464
   35MOL    H26 8934   0.713   1.566   2.228 -0.3028  1.0290 -1.0629
   35MOL    H27 8935   0.871   1.538   2.257  0.3810 -1.1869 -0.1161
   35MOL    C28 8936   0.825   1.646   2.076 -0.4325 -0.0575  0.0373
   35MOL    N29 8937   0.929   1.615   1.981 -0.1106  0.2257 -0.0671
   35MOL    C30 8938   0.910   1.583   1.849 -0.8441 -0.5998 -0.1182
   35MOL    O31 8939   0.797   1.578   1.801 -0.3293  0.5535 -0.0347
   35MOL    C32 8940   1.036   1.544   1.772 -0.3341 -0.3617  0.6222
   35MOL    C33 8941   0.864   1.777   2.146  0.1341  0.4659 -0.4595
   35MOL    H34 8942   0.727   1.657   2.031 -0.5175 -1.2498 -0.0952
   35MOL    H35 8943   1.022   1.634   2.014 -0.3768  0.6054  0.4613
   35MOL    H36 8944   1.026   1.439   1.744 -0.4440 -1.0645  3.1404
   35MOL    H37 8945   1.032   1.603   1.681 -1.3040 -0.4833  0.5851
   35MOL    H38 8946   1.127   1.549   1.833  0.4901 -1.4800 -0.4842
   35MOL    H39 8947   0.830   1.757   2.247 -1.2338 -0.4530 -1.0818
   35MOL    H40 8948   0.972   1.779   2.157 -0.1458  3.0436  2.5920
   35MOL    C41 8949   0.830   1.913   2.077  0.1972  0.2615 -0.7645
   35MOL    N42 8950   0.909   1.944   1.958  0.3253  0.1365  0.2127
   35MOL    C43 8951   0.870   2.032   1.868  0.0762 -0.2976 -0.0075
   35MOL    O44 8952   0.756   2.084   1.864 -0.9252 -0.4448 -0.1444
   35MOL    C45 8953   0.978   2.071   1.773 -0.1256  0.2420 -0.4755
   35MOL    C46 8954   0.841   2.024   2.186 -0.3905 -0.2349  0.7547
   35MOL    H47 8955   0.728   1.911   2.038 -0.3687  0.0892  0.7140
   35MOL    H48 8956   0.998   1.896   1.951  1.2175  2.1064 -2.4940
   35MOL    H49 8957   0.968   2.172   1.732 -1.7336 -0.4778 -1.9569
   35MOL    H50 8958   1.075   2.056   1.820 -0.3547  0.6815  0.1411
   35MOL    H51 8959   0.974   1.995   1.695 -0.4401  1.0583 -1.2686
   35MOL    H52 8960   0.890   1.983   2.274 -1.4952  2.4781  2.6782
   35MOL    H53 8961   0.907   2.103   2.150 -0.8315 -0.0932  0.2401
   35MOL    C54 8962   0.711   2.076   2.239  0.1527 -0.0554  0.4004
   35MOL    N55 8963   0.642   2.151   2.130 -0.4492 -0.2673  0.0630
   35MOL    C56 8964   0.510   2.146   2.111  0.2173 -0.6128 -0.2119
   35MOL    O57 8965   0.430   2.110   2.194  0.1376 -0.4968 -0.1763
   35MOL    C58 8966   0.463   2.218   1.986 -0.2321 -0.0904  0.6644
   35MOL    C59 8967   0.717   2.155   2.372  0.6450  0.4184  0.1190
   35MOL    H60 8968   0.652   1.985   2.256 -1.0776 -0.1645 -3.8656
   35MOL    H61 8969   0.694   2.169   2.045  3.1399 -0.7830  2.0362
   35MOL    H62 8970   0.527   2.198   1.899  0.3141  0.3747  0.9576
   35MOL    H63 8971   0.358   2.195   1.967 -0.5341  1.3915  0.5048
   35MOL    H64 8972   0.457   2.325   2.004 -0.4817  0.0199 -0.0640
   35MOL    H65 8973   0.625   2.204   2.402 -0.1214  0.1619 -1.7171
   35MOL    H66 8974   0.744   2.075   2.441 -0.0371  1.4718  1.6257
   35MOL    C67 8975   0.835   2.261   2.378 -0.2484  0.5324  0.3506
   35MOL    N68 8976   0.884   2.301   2.505  0.2001 -0.1460  0.1841
   35MOL    C69 8977   0.820   2.298   2.623 -0.1414  0.6623 -0.1480
   35MOL    O70 8978   0.709   2.258   2.639 -0.0345 -0.7693 -0.0194
   35MOL    C71 8979   0.903   2.353   2.739 -0.2252  0.1733 -0.2941
   35MOL    C72 8980   0.801   2.386   2.292 -0.5018  0.6938  0.3167
   35MOL    H73 8981   0.929   2.218   2.345 -0.2991  0.8781 -0.2691
   35MOL    H74 8982   0.983   2.314   2.517  0.3047  2.3155 -2.7667
   35MOL    H75 8983   0.844   2.395   2.821  1.2298 -2.8491  2.4128
   35MOL    H76 8984   0.964   2.273   2.781 -0.7044 -0.0747 -0.0645
   35MOL    H77 8985   0.956   2.441   2.704 -1.2122  0.5338 -0.9261
   35MOL    H78 8986   0.721   2.361   2.223  0.4181 -0.1827 -0.4533
   35MOL    H79 8987   0.747   2.468   2.340 -0.2957  1.2106 -0.3288
   35MOL    C80 8988   0.920   2.438   2.212  0.2966 -0.0303  0.2016
   35MOL    N81 8989   1.056   2.426   2.283 -0.9682  0.2271  0.8151
   35MOL    C82 8990   1.101   2.499   2.381  0.2818 -0.0237  0.2598
   35MOL    O83 8991   1.031   2.562   2.454 -0.3540 -0.9790  0.4442
   35MOL    C84 8992   1.251   2.521   2.398 -0.3390 -0.1565 -0.0621
   35MOL    C85 8993   0.906   2.589   2.161 -0.5363  0.2257  0.2107
   35MOL    H86 8994   0.942   2.372   2.127 -1.1884  0.6358 -0.7265
   35MOL    H87 8995   1.129   2.382   2.230 -0.7824 -1.2340  2.2628
   35MOL    H88 8996   1.276   2.592   2.477  0.8289  0.4310 -0.9465
   35MOL    H89 8997   1.302   2.427   2.416  0.3460  0.0303 -0.9951
   35MOL    H90 8998   1.292   2.567   2.308 -3.2489 -0.1865 -1.4595
   35MOL    H91 8999   0.886   2.646   2.252 -0.9766 -0.8284  0.7883
   35MOL    H92 9000   0.999   2.627   2.119  0.8014 -0.6613  2.2741
   35MOL    C93 9001   0.795   2.615   2.062 -0.4821  0.1032 -0.5473
   35MOL    N94 9002   0.845   2.553   1.939  0.2046 -0.7967 -0.4986
   35MOL    C95 9003   0.765   2.509   1.844  0.2206 -0.0740 -0.5089
   35MOL    O96 9004   0.641   2.527   1.839  0.1250 -0.2404 -0.6736
   35MOL    C97 9005   0.821   2.449   1.715 -0.6781  1.2113 -0.1875
   35MOL    C98 9006   0.774   2.770   2.036 -1.1547  0.1117  0.2804
   35MOL    H99 9007   0.698   2.572   2.086 -0.7438  1.4092  0.8384
   35MOL   H100 9008   0.945   2.545   1.927  0.1590  0.5316 -1.8921
   35MOL   H101 9009   0.748   2.387   1.663 -0.5243  0.6647  0.2409
   35MOL   H102 9010   0.856   2.526   1.646 -1.5000  3.1689  1.5203
   35MOL   H103 9011   0.907   2.385   1.736 -1.3335  0.4640  0.2141
   35MOL   H104 9012   0.869   2.820   2.055 -0.5739 -0.8520 -0.0541
   35MOL   H105 9013   0.759   2.790   1.930 -0.7436  0.4291  0.2792
   35MOL   C106 9014   0.649   2.831   2.107 -0.7094  0.5874 -0.0490
   35MOL   N107 9015   0.642   2.982   2.088 -0.2194  0.0906  0.0666
   35MOL   C108 9016   0.538   3.049   2.039  0.0915  0.2116 -0.2214
   35MOL   O109 9017   0.424   2.997   2.020 -0.2778  1.2103  0.0607
   35MOL   C110 9018   0.570   3.193   2.020 -0.0133 -0.7051  0.2879
   35MOL   C111 9019   0.636   2.796   2.265 -0.0673 -0.2236  0.6205
   35MOL   H112 9020   0.558   2.791   2.062  0.4756 -1.0227 -1.0723
   35MOL   H113 9021   0.725   3.035   2.107  0.4864 -0.5627 -1.1049
   35MOL   H114 9022   0.523   3.243   2.104 -0.8134 -2.9764  1.2185
   35MOL   H115 9023   0.677   3.215   2.024  0.5983 -3.8602  3.1050
   35MOL   H116 9024   0.528   3.233   1.927 -1.3093  0.9389  1.5481
   35MOL   H117 9025   0.734   2.768   2.303  0.6145  0.3443 -0.6681
   35MOL   H118 9026   0.635   2.896   2.309 -0.8827  0.5202 -1.0279
   35MOL   C119 9027   0.514   2.720   2.320  0.2609  0.4616 -0.5720
   35MOL   N120 9028   0.392   2.792   2.313  0.3004 -0.7045  0.5630
   35MOL   C121 9029   0.350   2.906   2.373  0.0469 -0.0954 -0.2140
   35MOL   O122 9030   0.416   2.950   2.471 -0.0743  0.1992 -0.8755
   35MOL   C123 9031   0.225   2.974   2.319  0.0503  0.1383  0.5609
   35MOL   C124 9032   0.547   2.667   2.465  0.5507  0.6874 -0.4045
   35MOL   H125 9033   0.496   2.635   2.254 -1.8788 -0.8672  1.6045
   35MOL   H126 9034   0.331   2.760   2.240  0.8019  1.2638 -0.7568
   35MOL   H127 9035   0.186   3.031   2.404 -0.2805 -0.2155  0.6489
   35MOL   H128 9036   0.248   3.056   2.251 -1.9598  0.3866  0.1503
   35MOL   H129 9037   0.149   2.905   2.284  1.2045 -0.4613 -0.7659
   35MOL   H130 9038   0.646   2.622   2.466  0.9144  1.4930 -0.5982
   35MOL   H131 9039   0.542   2.746   2.540 -1.5823  0.3156 -0.1133
   35MOL   C132 9040   0.454   2.564   2.526 -0.6664 -0.1711 -0.2655
   35MOL   N133 9041   0.484   2.538   2.667  0.2851 -0.5589  0.0699
   35MOL   C134 9042   0.394   2.502   2.761  0.2436 -0.1412 -0.2236
   35MOL   O135 9043   0.273   2.498   2.742 -0.3740 -0.1181 -0.4002
   35MOL   C136 9044   0.449   2.478   2.899 -0.0786  0.1241 -0.4311
   35MOL   C137 9045   0.430   2.427   2.450 -0.3955 -0.4407 -0.0234
   35MOL   H138 9046   0.361   2.621   2.527 -0.1101  0.7631 -0.0861
   35MOL   H139 9047   0.581   2.535   2.695  0.8777  4.4037 -1.1075
   35MOL   H140 9048   0.405   2.388   2.942  2.6183 -0.9901  0.1065
   35MOL   H141 9049   0.557   2.492   2.897  0.4033 -2.7160  1.6111
   35MOL   H142 9050   0.397   2.559   2.950  1.1131  0.4639  0.2668
   35MOL   H143 9051   0.483   2.426   2.355  0.2784  2.5354  0.2713
   35MOL   H144 9052   0.480   2.349   2.506  0.9981  1.2155  1.0862
   35MOL   C145 9053   0.284   2.389   2.421 -0.1141  0.7356  0.8933
   35MOL   N146 9054   0.281   2.240   2.417  0.6483  0.0951  0.4287
   35MOL   C147 9055   0.172   2.164   2.443 -0.4829 -0.6736 -0.6311
   35MOL   O148 9056   0.088   2.196   2.525 -0.6799 -0.1491  0.9414
   35MOL   C149 9057   0.153   2.043   2.354 -0.0135  0.4169  0.1869
   35MOL   C150 9058   0.226   2.453   2.294 -0.6553  0.3441 -0.4519
   35MOL   H151 9059   0.217   2.409   2.505 -0.5259 -1.1961  1.0591
   35MOL   H152 9060   0.354   2.192   2.367  0.0383  0.5374 -0.9160
   35MOL   H153 9061   0.244   1.983   2.362  0.0376  0.3984 -0.5545
   35MOL   H154 9062   0.057   2.002   2.386  0.5726  0.3895  1.9696
   35MOL   H155 9063   0.141   2.074   2.250  1.6329  0.3767 -0.0368
   35MOL   H156 9064   0.285   2.534   2.254  1.7586 -1.8980 -1.5900
   35MOL   H157 9065   0.238   2.373   2.221  0.5197  0.2905 -0.2067
   35MOL   C158 9066   0.075   2.501   2.308 -0.7425 -0.8023  0.0338
   35MOL   N159 9067   0.014   2.525   2.183 -1.0359 -0.0316  0.1010
   35MOL   C160 9068   7.804   2.437   2.094  0.4946  0.3543 -0.4484
   35MOL   O161 9069   7.790   2.314   2.114  0.6189 -0.2050 -0.3579
   35MOL   C162 9070   7.727   2.493   1.970  0.4865 -0.2625 -0.0815
   35MOL   C163 9071   0.059   2.626   2.404 -0.2849 -0.1206  0.2675
   35MOL   H164 9072   0.009   2.424   2.347  0.2210 -1.0552  1.1896
   35MOL   H165 9073   7.838   2.621   2.157 -0.6935 -0.0415 -0.1447
   35MOL   H166 9074   7.792   2.562   1.915 -2.5214  0.8310 -2.3656
   35MOL   H167 9075   7.696   2.413   1.903 -1.3122  1.3911 -1.2670
   35MOL   H168 9076   7.638   2.543   2.007  1.3617  0.2098  1.4109
   35MOL   H169 9077   0.110   2.620   2.500  1.6003  1.1380 -0.6066
   35MOL   H170 9078   0.115   2.705   2.352  1.8585 -1.0247  1.1399
   35MOL   C171 9079   7.753   2.662   2.436 -0.1864  0.2135 -0.8254
   35MOL   N172 9080   7.732   2.799   2.411 -0.6264 -0.2922  0.5244
   35MOL   C173 9081   7.725   2.851   2.291 -0.7167  1.0824  0.0419
   35MOL   O174 9082   7.728   2.788   2.183 -0.1480  0.1132 -0.1424
   35MOL   C175 9083   7.712   2.998   2.287  0.3583  0.0059 -0.0317
   35MOL   C176 9084   7.718   2.637   2.585 -0.8606 -0.0884  0.2569
   35MOL   H177 9085   7.685   2.613   2.366 -1.1480 -0.8543  0.8237
   35MOL   H178 9086   7.745   2.862   2.489  0.0289 -0.2526  0.3924
   35MOL   H179 9087   7.604   3.009   2.295  0.0610 -0.8071 -2.4336
   35MOL   H180 9088   7.778   3.039   2.362 -0.9054  1.6745  0.1953
   35MOL   H181 9089   7.739   3.031   2.187  0.4729 -2.4128 -0.8226
   35MOL   H182 9090   7.768   2.711   2.648  2.2220 -0.7624 -1.2879
   35MOL   H183 9091   7.613   2.663   2.592 -1.0003 -1.1285  2.4789
   35MOL   C184 9092   7.760   2.494   2.638  0.4296  0.5102 -0.2911
   35MOL   N185 9093   7.725   2.382   2.560 -0.4123  0.0960  0.1955
   35MOL   C186 9094   7.600   2.350   2.521 -0.2342 -0.2511  0.9298
   35MOL   O187 9095   7.508   2.431   2.519  0.0473  0.2990  0.0879
   35MOL   C188 9096   7.583   2.208   2.477  0.9549  0.2106 -0.0865
   35MOL   C189 9097   7.717   2.469   2.790 -0.1674  0.1847 -0.0791
   35MOL   H190 9098   0.029   2.488   2.645  0.6537  1.6103 -2.5691
   35MOL   H191 9099   7.791   2.306   2.546 -1.2346 -0.9460  1.8059
   35MOL   H192 9100   7.569   2.144   2.565 -0.7581 -0.0583 -0.5474
   35MOL   H193 9101   7.491   2.189   2.423 -0.2134  2.0265  1.2202
   35MOL   H194 9102   7.674   2.172   2.429 -0.0261 -2.2654 -0.1572
   35MOL   H195 9103   7.761   2.551   2.848 -0.9019  0.7317 -0.2915
   35MOL   H196 9104   7.610   2.488   2.780 -0.1361  0.6123  0.3591
   35MOL   C197 9105   7.752   2.338   2.856 -0.0282 -0.2161 -0.5615
   35MOL   N198 9106   7.707   2.333   2.998  0.1907  0.3159 -0.8220
   35MOL   C199 9107   7.644   2.233   3.057  0.0588 -0.2857 -0.7543
   35MOL   O200 9108   7.596   2.135   2.995  0.2417 -0.2338 -0.4413
   35MOL   C201 9109   7.626   2.255   3.207  0.5024  0.0197 -1.0020
   35MOL   C202 9110   0.063   2.299   2.848  0.2941  0.5965  0.6193
   35MOL   H203 9111   7.689   2.270   2.798 -0.3502 -3.2041  3.1464
   35MOL   H204 9112   7.742   2.410   3.053 -0.2729  1.4427 -2.0559
   35MOL   H205 9113   7.708   2.315   3.246  0.8846 -0.3398 -1.2472
   35MOL   H206 9114   7.529   2.301   3.226  0.7015  0.9307 -2.1102
   35MOL   H207 9115   7.624   2.161   3.263 -1.4306  1.4212  1.3879
   35MOL   H208 9116   0.098   2.320   2.747  0.8821  0.1246  0.7269
   35MOL   H209 9117   0.113   2.368   2.915  0.5399  1.6965 -0.6604
   35MOL   C210 9118   0.124   2.156   2.889 -0.4586  0.0296 -0.4648
   35MOL   N211 9119   0.259   2.154   2.837  0.3451  0.2573  0.1937
   35MOL   C212 9120   0.363   2.106   2.912  0.0337 -0.6045  0.4445
   35MOL   O213 9121   0.349   2.074   3.030  0.0231  0.9205 -0.2392
   35MOL   C214 9122   0.504   2.108   2.840 -0.2584 -0.6856  0.1805
   35MOL   C215 9123   0.036   2.040   2.830  0.4812  0.7994 -0.1408
   35MOL   H216 9124   0.109   2.145   2.997 -1.6738  0.9595 -0.5317
   35MOL   H217 9125   0.274   2.187   2.743  0.1459 -2.8412 -0.9953
   35MOL   H218 9126   0.489   2.120   2.732  0.2444  2.8066  0.4325
   35MOL   H219 9127   0.564   2.195   2.869  0.3611 -1.9518  2.8719
   35MOL   H220 9128   0.554   2.011   2.845  1.2160 -0.1078 -2.3546
   35MOL   H221 9129   7.777   2.058   2.872  0.4376 -0.7243  0.4407
   35MOL   H222 9130   0.024   2.061   2.724 -1.4950 -0.9752 -0.2931
   35MOL   C223 9131   0.077   1.890   2.848  0.2545  0.4300  0.5000
   35MOL   N224 9132   0.001   1.810   2.750  0.0861 -0.5122 -0.5237
   35MOL   C225 9133   0.038   1.797   2.621 -0.1460 -0.3897 -0.3128
   35MOL   O226 9134   0.151   1.821   2.584  0.0538  0.4416 -0.0419
   35MOL   C227 9135   7.765   1.749   2.535 -0.4881 -0.3446  0.7875
   35MOL   C228 9136   0.036   1.842   2.991  0.1444  0.1110 -0.6450
   35MOL   H229 9137   0.184   1.882   2.826  0.4088  1.1446  1.0047
   35MOL   H230 9138   7.741   1.812   2.765  0.4495 -1.3309  2.2539
   35MOL   H231 9139   7.667   1.789   2.558 -0.6794  0.1462 -0.8659
   35MOL   H232 9140   7.788   1.763   2.430 -1.0766  3.5778  1.1037
   35MOL   H233 9141   7.750   1.644   2.562  1.4027 -0.6682  0.7201
   35MOL   H234 9142   0.100   1.894   3.063 -0.4314 -1.2084  0.8600
   35MOL   H235 9143   7.782   1.889   3.020 -0.6128 -1.0024 -1.2875
   35MOL   C236 9144   0.034   1.692   3.032  0.2424  0.1227 -0.7867
   35MOL   N237 9145   7.767   1.666   3.138  0.1660  0.4795  0.5852
   35MOL   C238 9146   7.650   1.610   3.105 -0.0643 -0.2905 -0.0948
   35MOL   O239 9147   7.614   1.585   2.992 -0.1344  0.3102 -0.1704
   35MOL   C240 9148   7.564   1.547   3.221  0.7330  0.7936 -0.0599
   35MOL   C241 9149   0.161   1.611   3.085  0.0850  0.6640 -0.7214
   35MOL   H242 9150   0.014   1.633   2.943  0.8551 -0.3027 -0.6466
   35MOL   H243 9151   7.787   1.683   3.236  0.3856 -0.8215  0.7750
   35MOL   H244 9152   7.619   1.462   3.260 -1.5211 -0.7587 -0.1679
   35MOL   H245 9153   7.529   1.615   3.299 -0.7010 -1.0959  0.9857
   35MOL   H246 9154   7.470   1.514   3.176 -0.1533  0.7874  1.7615
   35MOL   H247 9155   0.198   1.640   3.183  0.6758 -1.6325 -0.2299
   35MOL   H248 9156   0.133   1.506   3.091  1.1455  0.4223  0.2363
   35MOL   C249 9157   0.284   1.612   2.982 -0.0809 -0.7660 -0.5918
   35MOL   N250 9158   0.355   1.485   2.990 -0.6018  0.3150 -0.4696
   35MOL   C251 9159   0.349   1.369   2.915 -0.3236 -0.4694 -0.2851
   35MOL   O252 9160   0.418   1.272   2.954 -0.1301 -0.1023 -0.2523
   35MOL   C253 9161   0.275   1.365   2.785 -0.1186  0.9363 -0.2160
   35MOL   C254 9162   0.389   1.727   3.011 -0.1531 -0.0820 -0.3414
   35MOL   H255 9163   0.246   1.640   2.884  0.1014 -1.4894 -0.8768
   35MOL   H256 9164   0.413   1.489   3.072 -0.1891  2.4842 -0.8331
   35MOL   H257 9165   0.340   1.390   2.701  1.5030 -1.2663  0.3348
   35MOL   H258 9166   0.232   1.266   2.771 -0.5057  0.6404  2.7379
   35MOL   H259 9167   0.191   1.435   2.784 -0.3388  0.6674 -0.3820
   35MOL   H260 9168   0.445   1.706   3.103 -1.6550 -0.2243  0.5621
   35MOL   H261 9169   0.466   1.732   2.935 -1.8341  1.5554 -1.9595
   35MOL   H262 9170   0.342   1.825   3.017  0.2905  0.1203 -0.1396
   36MOL     C1 9171   0.345   6.010   2.908  0.0769 -0.3835 -0.2876
   36MOL     N2 9172   0.202   6.003   2.867  0.0632 -0.2251  0.3354
   36MOL     C3 9173   0.158   5.936   2.766  0.7085  0.1131  0.2350
   36MOL     O4 9174   0.037   5.946   2.731  0.5909  0.2678 -0.3949
   36MOL     C5 9175   0.251   5.848   2.685 -0.5162 -0.0814  0.1297
   36MOL     C6 9176   0.359   5.940   3.037 -0.3120 -0.1490  0.6420
   36MOL     H7 9177   0.417   5.976   2.833 -0.4156 -0.3096 -0.7966
   36MOL     H8 9178   0.140   6.073   2.907 -0.6241 -1.8747  2.2603
   36MOL     H9 9179   0.200   5.821   2.592 -0.0736 -0.2289 -0.0746
   36MOL    H10 9180   0.332   5.909   2.644  0.6062 -1.1719  0.7138
   36MOL    H11 9181   0.273   5.749   2.724 -1.5732  0.4178  2.0416
   36MOL    H12 9182   0.325   5.838   3.021  0.1134 -0.3869  1.2338
   36MOL    H13 9183   0.465   5.940   3.064 -0.5998 -0.5322  1.8080
   36MOL    H14 9184   0.370   6.115   2.920 -1.4310 -0.2032  1.3906
   36MOL    C15 9185   0.282   6.008   3.157  0.9929 -0.0360  0.3740
   36MOL    N16 9186   0.322   6.147   3.171  0.5657 -0.4799  0.2258
   36MOL    C17 9187   0.254   6.254   3.133 -0.2092  0.2593  0.3730
   36MOL    O18 9188   0.157   6.238   3.070 -0.1788  0.0532 -0.0159
   36MOL    C19 9189   0.284   6.392   3.179  0.7137  0.4155 -0.2103
   36MOL    C20 9190   0.291   5.939   3.295  0.2826  0.1935 -0.1446
   36MOL    H21 9191   0.178   6.004   3.127  0.2325 -5.1582  3.1366
   36MOL    H22 9192   0.406   6.158   3.226  0.8099  1.0430 -0.4389
   36MOL    H23 9193   0.240   6.467   3.113  0.1739  0.3173  0.0381
   36MOL    H24 9194   0.255   6.405   3.284  1.7758  0.8102  0.0453
   36MOL    H25 9195   0.392   6.406   3.165  0.9610 -0.8495  0.4123
   36MOL    H26 9196   0.390   5.943   3.342  0.6991  0.5351 -1.0457
   36MOL    H27 9197   0.232   6.000   3.363  1.7547  0.1244  1.2483
   36MOL    C28 9198   0.233   5.796   3.297  1.4324  0.0857  0.6264
   36MOL    N29 9199   0.104   5.783   3.224  0.0192  0.1703 -0.2711
   36MOL    C30 9200   7.826   5.838   3.252 -0.4614  0.4377 -0.1247
   36MOL    O31 9201   7.807   5.883   3.364  0.4526  0.3327  0.0472
   36MOL    C32 9202   7.726   5.846   3.138  0.5334  0.3116 -0.8233
   36MOL    C33 9203   0.214   5.740   3.439  1.0853 -0.3524 -0.8625
   36MOL    H34 9204   0.308   5.742   3.238 -0.4772 -1.6917 -0.2583
   36MOL    H35 9205   0.115   5.742   3.132 -1.9596  0.8548 -0.8245
   36MOL    H36 9206   7.731   5.946   3.095  2.4764  0.7554  0.3880
   36MOL    H37 9207   7.745   5.772   3.061  0.1275  0.6264 -1.2289
   36MOL    H38 9208   7.620   5.827   3.158  0.2089  1.4422 -1.4280
   36MOL    H39 9209   0.194   5.822   3.509  1.1587  0.7974 -2.1597
   36MOL    H40 9210   0.137   5.664   3.443  0.5976  0.2076  1.2639
   36MOL    C41 9211   0.338   5.667   3.494 -0.3102 -0.0746 -0.3187
   36MOL    N42 9212   0.344   5.536   3.415 -0.4042 -1.0005 -0.5431
   36MOL    C43 9213   0.452   5.497   3.347  0.4177 -0.5427 -0.5130
   36MOL    O44 9214   0.550   5.564   3.324 -0.0041 -1.2809 -0.1792
   36MOL    C45 9215   0.447   5.351   3.306  0.3985  0.3631 -0.0787
   36MOL    C46 9216   0.330   5.633   3.648  0.1763 -0.2407  1.1287
   36MOL    H47 9217   0.425   5.731   3.478 -1.2781  0.7746 -2.3630
   36MOL    H48 9218   0.260   5.481   3.425 -1.1949  0.2397 -0.2399
   36MOL    H49 9219   0.497   5.344   3.210  1.7920 -1.4385  0.7533
   36MOL    H50 9220   0.490   5.286   3.382 -1.6273  0.9230  1.6116
   36MOL    H51 9221   0.342   5.320   3.300 -0.2863  1.5949  3.9369
   36MOL    H52 9222   0.280   5.719   3.693 -0.6687 -0.2076  0.1523
   36MOL    H53 9223   0.248   5.562   3.663  0.6643 -0.7168  1.5227
   36MOL    C54 9224   0.461   5.601   3.727 -0.0494  0.0705 -0.0144
   36MOL    N55 9225   0.416   5.553   3.857 -0.0004  0.0076  0.4168
   36MOL    C56 9226   0.461   5.450   3.929  0.5617 -0.1865  0.0523
   36MOL    O57 9227   0.558   5.387   3.887  0.2375 -0.4693  0.4308
   36MOL    C58 9228   0.394   5.414   4.061 -1.0398 -0.3333  0.1358
   36MOL    C59 9229   0.544   5.724   3.767  0.6122  0.3898 -0.0462
   36MOL    H60 9230   0.514   5.525   3.669  0.8607  0.2469  0.5801
   36MOL    H61 9231   0.334   5.602   3.889  0.7272  0.6930  1.2592
   36MOL    H62 9232   0.464   5.379   4.137 -1.1590  1.8585  1.3196
   36MOL    H63 9233   0.348   5.493   4.121 -2.1904 -0.1715 -0.9565
   36MOL    H64 9234   0.328   5.330   4.039 -1.1778 -0.2909  0.3780
   36MOL    H65 9235   0.494   5.786   3.842 -1.0280 -0.4558 -0.4247
   36MOL    H66 9236   0.630   5.684   3.819  2.0660  1.2403 -1.7517
   36MOL    C67 9237   0.605   5.821   3.657  0.3808 -0.0525  0.3514
   36MOL    N68 9238   0.737   5.868   3.700  0.0448  0.6293  0.1766
   36MOL    C69 9239   0.849   5.853   3.633  0.6902 -0.4580  0.1859
   36MOL    O70 9240   0.857   5.811   3.521  0.3511 -0.0919  0.4468
   36MOL    C71 9241   0.975   5.875   3.713  0.1120  0.3671 -0.3772
   36MOL    C72 9242   0.514   5.945   3.635 -0.2010  0.1528 -0.3512
   36MOL    H73 9243   0.617   5.762   3.566 -0.8814 -1.1887  0.9096
   36MOL    H74 9244   0.746   5.891   3.798 -1.0333 -1.1217  0.7168
   36MOL    H75 9245   0.957   5.862   3.820  0.9380  1.2150 -0.1200
   36MOL    H76 9246   1.057   5.809   3.686  0.5761  0.8816 -0.2456
   36MOL    H77 9247   1.019   5.975   3.702  3.0092 -0.9973 -1.6097
   36MOL    H78 9248   0.425   5.909   3.583  0.4248 -1.2032 -0.5223
   36MOL    H79 9249   0.486   5.982   3.733  0.1134  1.2300 -0.6651
   36MOL    C80 9250   0.567   6.072   3.563  0.3337  0.6845  0.0414
   36MOL    N81 9251   0.659   6.026   3.458 -0.0225  0.2510  0.3482
   36MOL    C82 9252   0.663   6.040   3.326  0.5992 -0.2803  0.0262
   36MOL    O83 9253   0.574   6.106   3.273 -0.2383  0.6652 -0.7083
   36MOL    C84 9254   0.775   5.967   3.251 -0.4015 -0.0037  0.6221
   36MOL    C85 9255   0.636   6.166   3.661  0.0838  0.8066 -0.6796
   36MOL    H86 9256   0.488   6.126   3.512  0.0738  0.2177 -0.0536
   36MOL    H87 9257   0.731   5.964   3.493  0.3279  1.4449  1.7611
   36MOL    H88 9258   0.833   6.045   3.201 -0.0124 -0.8421 -0.2554
   36MOL    H89 9259   0.838   5.898   3.307 -1.3453 -0.2857  1.3566
   36MOL    H90 9260   0.736   5.934   3.155 -0.0253  0.2000  0.3961
   36MOL    H91 9261   0.553   6.214   3.714 -0.4876 -0.1283 -0.7256
   36MOL    H92 9262   0.690   6.110   3.737 -0.4118 -1.3964 -1.9185
   36MOL    C93 9263   0.713   6.285   3.606  0.7021  0.4479  0.2743
   36MOL    N94 9264   0.770   6.358   3.726 -0.0780 -1.0610  0.0444
   36MOL    C95 9265   0.884   6.333   3.790 -0.4958 -0.4044 -0.1483
   36MOL    O96 9266   0.955   6.246   3.742  0.3137 -0.5537 -0.6251
   36MOL    C97 9267   0.912   6.395   3.927  0.2908 -0.2618 -0.5364
   36MOL    C98 9268   0.628   6.382   3.520 -0.0180  0.5582  0.1451
   36MOL    H99 9269   0.795   6.244   3.547  0.5237  0.1626  0.2208
   36MOL   H100 9270   0.706   6.421   3.772 -0.1654 -0.7188 -0.5525
   36MOL   H101 9271   0.826   6.409   3.993  0.1802  0.8958 -0.9086
   36MOL   H102 9272   0.983   6.336   3.986 -1.6551 -1.7981  0.3411
   36MOL   H103 9273   0.958   6.494   3.922  1.4267 -0.8253 -1.3848
   36MOL   H104 9274   0.578   6.321   3.445  0.5004  0.3743 -0.0555
   36MOL   H105 9275   0.547   6.429   3.575 -1.8780  1.2045 -3.0412
   36MOL   C106 9276   0.706   6.486   3.435  0.8108  0.5103  0.4769
   36MOL   N107 9277   0.798   6.554   3.520  0.2733 -0.6303  0.1107
   36MOL   C108 9278   0.917   6.608   3.490  0.2957 -0.2722 -0.7940
   36MOL   O109 9279   0.949   6.631   3.374  0.0273 -0.1199 -0.1944
   36MOL   C110 9280   1.014   6.638   3.601  0.2103  0.4078  0.0162
   36MOL   C111 9281   0.615   6.576   3.356 -0.2414  0.1819  0.0563
   36MOL   H112 9282   0.764   6.426   3.364 -0.6980  2.1353 -2.2408
   36MOL   H113 9283   0.761   6.560   3.614 -1.7815 -0.0495 -0.7216
   36MOL   H114 9284   0.972   6.649   3.702  3.1938  0.9636  1.2488
   36MOL   H115 9285   1.075   6.549   3.613 -1.8092 -1.0075  0.0994
   36MOL   H116 9286   1.073   6.725   3.574  1.4545  0.5906  3.1054
   36MOL   H117 9287   0.676   6.630   3.284 -1.6414  2.8870  0.8311
   36MOL   H118 9288   0.548   6.515   3.295 -0.1787 -0.0983  0.2679
   36MOL   C119 9289   0.530   6.668   3.446  0.1966 -0.6290  0.4168
   36MOL   N120 9290   0.386   6.655   3.411 -0.0755  0.2307 -0.1546
   36MOL   C121 9291   0.281   6.646   3.497 -0.8833  0.0401  0.3152
   36MOL   O122 9292   0.303   6.624   3.617  0.1006  0.1200  0.1270
   36MOL   C123 9293   0.138   6.673   3.446 -0.3891  0.0034  0.1115
   36MOL   C124 9294   0.582   6.809   3.425  0.6048  0.1343  0.2827
   36MOL   H125 9295   0.550   6.645   3.551  2.3222  0.5700  0.2967
   36MOL   H126 9296   0.363   6.690   3.319  2.0032 -4.5437 -2.6627
   36MOL   H127 9297   0.140   6.719   3.347  0.8475 -0.1259  0.0766
   36MOL   H128 9298   0.083   6.580   3.434  1.5307 -1.5839  3.0836
   36MOL   H129 9299   0.070   6.719   3.518 -1.0441  0.3866 -0.7407
   36MOL   H130 9300   0.687   6.816   3.453  0.6963 -1.4566  0.3721
   36MOL   H131 9301   0.576   6.824   3.317 -1.5087 -0.7336  0.2467
   36MOL   C132 9302   0.514   6.925   3.496  0.6664 -0.2394 -1.2605
   36MOL   N133 9303   0.443   6.890   3.619  0.0561  0.1717 -0.2179
   36MOL   C134 9304   0.414   6.961   3.728  0.6464  0.4814  0.0429
   36MOL   O135 9305   0.442   7.078   3.753  0.0241  0.0754  0.1505
   36MOL   C136 9306   0.323   6.882   3.828 -0.1850 -0.6354 -0.0580
   36MOL   C137 9307   0.411   7.009   3.413 -0.3341 -0.9944  0.4130
   36MOL   H138 9308   0.597   6.986   3.533 -0.6051 -0.7932  2.7296
   36MOL   H139 9309   0.411   6.795   3.620 -1.0368  0.5365  0.0142
   36MOL   H140 9310   0.236   6.841   3.776 -0.5385 -2.6978  2.0749
   36MOL   H141 9311   0.376   6.795   3.865  0.4272 -0.7296 -1.1241
   36MOL   H142 9312   0.284   6.941   3.911 -1.2415 -0.1358 -0.8983
   36MOL   H143 9313   0.318   6.962   3.381 -1.9100  1.6116  1.0960
   36MOL   H144 9314   0.373   7.086   3.480 -3.0816 -0.2238 -1.9137
   36MOL   C145 9315   0.480   7.085   3.299 -0.1731 -0.2284 -0.3130
   36MOL   N146 9316   0.591   7.161   3.356  0.0627  0.5045  0.6971
   36MOL   C147 9317   0.714   7.174   3.298 -0.0740  0.2655  0.4687
   36MOL   O148 9318   0.741   7.128   3.184 -0.4480 -0.4346  0.0963
   36MOL   C149 9319   0.816   7.250   3.374 -0.7717 -0.1766 -0.1958
   36MOL   C150 9320   0.371   7.166   3.222 -0.0526  0.3164  0.3610
   36MOL   H151 9321   0.519   7.004   3.238  0.5926  1.4912 -2.1395
   36MOL   H152 9322   0.576   7.210   3.442  0.5347  0.1161  1.0052
   36MOL   H153 9323   0.840   7.343   3.323 -0.2760  0.3483  0.9859
   36MOL   H154 9324   0.770   7.288   3.464 -0.0678  0.1260  0.0429
   36MOL   H155 9325   0.911   7.200   3.397 -0.0788  0.5381 -1.4425
   36MOL   H156 9326   0.286   7.106   3.190 -1.2427  2.0940  0.0902
   36MOL   H157 9327   0.326   7.227   3.301  0.9330  1.4546  0.0569
   36MOL   C158 9328   0.414   7.243   3.097 -0.0105  0.3247 -0.1767
   36MOL   N159 9329   0.303   7.304   3.030  0.4155  0.3953  0.0551
   36MOL   C160 9330   0.215   7.395   3.079  0.3369 -0.3110 -0.1258
   36MOL   O161 9331   0.213   7.421   3.201 -0.2842  0.2625  0.1761
   36MOL   C162 9332   0.112   7.468   2.996  0.6563 -0.1503  0.1724
   36MOL   C163 9333   0.484   7.153   2.994 -0.3612 -0.0221 -0.4567
   36MOL   H164 9334   0.475   7.330   3.125 -1.3255  0.8168  1.2466
   36MOL   H165 9335   0.287   7.280   2.933 -0.1106 -1.0395  0.4785
   36MOL   H166 9336   0.166   7.483   2.902 -0.3661 -0.0138 -0.4050
   36MOL   H167 9337   0.034   7.392   2.987  1.1650 -0.7346  0.6953
   36MOL   H168 9338   0.082   7.564   3.037 -2.1586 -0.8634 -0.0982
   36MOL   H169 9339   0.534   7.068   3.040 -0.5581  0.0356 -0.1363
   36MOL   H170 9340   0.414   7.103   2.927 -0.4294 -0.7820  0.1724
   36MOL   C171 9341   0.582   7.229   2.897 -0.1130  0.7127 -0.4222
   36MOL   N172 9342   0.519   7.335   2.817  0.7746 -0.8241 -0.2343
   36MOL   C173 9343   0.530   7.464   2.834 -0.3576 -0.5567  0.0904
   36MOL   O174 9344   0.599   7.511   2.920 -0.2389 -0.0131 -0.6619
   36MOL   C175 9345   0.444   7.553   2.740  0.5722 -0.2111  0.0663
   36MOL   C176 9346   0.648   7.133   2.792  0.1034  0.4260 -0.2266
   36MOL   H177 9347   0.662   7.267   2.962 -1.7642  0.7407  1.6570
   36MOL   H178 9348   0.465   7.304   2.738 -0.1548  1.4842 -0.5450
   36MOL   H179 9349   0.342   7.519   2.756  0.0031  1.1232 -0.6618
   36MOL   H180 9350   0.459   7.657   2.770 -0.0406  0.3195 -1.4345
   36MOL   H181 9351   0.470   7.534   2.636 -2.8160  3.6691 -1.6411
   36MOL   H182 9352   0.606   7.032   2.801  1.8282 -0.2776 -0.0220
   36MOL   H183 9353   0.624   7.159   2.689 -0.6274  2.2665  0.3922
   36MOL   C184 9354   0.803   7.104   2.803 -0.5331 -1.1372 -0.0379
   36MOL   N185 9355   0.820   7.026   2.928  0.1969  0.0142 -0.3090
   36MOL   C186 9356   0.867   6.901   2.943 -0.1834  0.0947 -0.2301
   36MOL   O187 9357   0.903   6.825   2.851  0.2271  0.1731  0.5058
   36MOL   C188 9358   0.876   6.857   3.089  0.0020  0.6222 -0.3668
   36MOL   C189 9359   0.910   7.222   2.799  0.3736  0.3048 -0.0918
   36MOL   H190 9360   0.828   7.042   2.717  0.8261 -1.5696  0.6617
   36MOL   H191 9361   0.789   7.081   3.007 -0.4942  0.5422 -0.9486
   36MOL   H192 9362   0.935   6.935   3.138  0.3538 -0.5609  1.1464
   36MOL   H193 9363   0.781   6.837   3.138  0.5114  0.9359  0.7833
   36MOL   H194 9364   0.933   6.764   3.091 -0.9593  0.0506  2.3027
   36MOL   H195 9365   0.892   7.267   2.897 -0.0779 -0.7854  0.3314
   36MOL   H196 9366   1.014   7.192   2.796 -0.3363 -2.3522  0.2533
   36MOL   C197 9367   0.880   7.331   2.692  0.1909 -0.0481 -0.1963
   36MOL   N198 9368   0.874   7.269   2.557 -0.3168  0.1999  0.3941
   36MOL   C199 9369   0.764   7.271   2.482  0.1167  0.0641  0.2728
   36MOL   O200 9370   0.660   7.319   2.524 -0.3973 -0.0525 -0.3154
   36MOL   C201 9371   0.772   7.213   2.339 -0.3590  0.1652  0.7281
   36MOL   C202 9372   0.975   7.449   2.693 -0.0890  0.0261  0.0777
   36MOL   H203 9373   0.790   7.378   2.732 -0.9014 -2.4024  0.1439
   36MOL   H204 9374   0.961   7.238   2.515 -1.2706 -0.7623 -0.9012
   36MOL   H205 9375   0.678   7.221   2.286 -0.2632 -0.7726  0.4124
   36MOL   H206 9376   0.837   7.281   2.284  0.1293 -1.3807 -0.6451
   36MOL   H207 9377   0.809   7.111   2.339  1.0331  0.6296  2.3613
   36MOL   H208 9378   1.004   7.469   2.796  0.6516 -2.0326  0.2970
   36MOL   H209 9379   1.064   7.406   2.647  0.4219 -0.1931  1.2638
   36MOL   C210 9380   0.923   7.580   2.617  0.6912  0.1628  0.0992
   36MOL   N211 9381   1.042   7.672   2.592  0.3563  0.2406  0.1050
   36MOL   C212 9382   1.095   7.692   2.469 -0.3912 -0.0549  0.2424
   36MOL   O213 9383   1.076   7.607   2.386  0.2191 -0.4632 -0.2814
   36MOL   C214 9384   1.189   7.813   2.448 -0.3417 -0.0025 -1.1159
   36MOL   C215 9385   0.813   7.642   2.706 -0.1622  0.3656  0.0697
   36MOL   H216 9386   0.881   7.554   2.519  1.6354  0.1579 -0.3125
   36MOL   H217 9387   1.051   7.748   2.659  1.3926 -1.1749  1.5992
   36MOL   H218 9388   1.259   7.794   2.367  1.0942 -1.5732  0.4608
   36MOL   H219 9389   1.138   0.069   2.434 -0.0718  0.2459 -0.4283
   36MOL   H220 9390   1.260   7.829   2.529  1.6939  2.0839 -3.2337
   36MOL   H221 9391   0.729   7.573   2.698 -0.2146  0.4561 -0.1772
   36MOL   H222 9392   0.832   7.634   2.812  1.1192  1.1389 -0.0942
   36MOL   C223 9393   0.775   7.787   2.667 -0.6557  0.7065 -0.5106
   36MOL   N224 9394   0.734   0.014   2.791  0.2242 -0.1616 -0.1613
   36MOL   C225 9395   0.808   0.102   2.858  0.1717 -0.6850 -0.6550
   36MOL   O226 9396   0.917   0.128   2.809 -0.0073 -0.2042 -0.0281
   36MOL   C227 9397   0.747   0.168   2.981  0.1785 -0.7164 -0.2371
   36MOL   C228 9398   0.665   7.786   2.562 -0.3843 -0.1677 -0.9963
   36MOL   H229 9399   0.862   7.835   2.621  1.8201 -2.3045  0.8801
   36MOL   H230 9400   0.639   0.003   2.824  0.4360  1.9710  1.2586
   36MOL   H231 9401   0.638   0.160   2.982  0.2352 -1.3526  2.1261
   36MOL   H232 9402   0.788   0.136   3.076 -1.5869 -1.0854  0.4263
   36MOL   H233 9403   0.769   0.275   2.979 -1.1499 -0.4059  0.7283
   36MOL   H234 9404   0.695   7.730   2.474 -1.0203 -0.3306 -1.1178
   36MOL   H235 9405   0.581   7.731   2.604  1.2404 -1.0613  1.1639
   36MOL   C236 9406   0.619   0.091   2.523 -0.1519 -0.0363  0.7732
   36MOL   N237 9407   0.497   0.070   2.453  0.6215  0.1823 -0.2836
   36MOL   C238 9408   0.400   0.154   2.453 -0.6553 -0.1024 -0.1940
   36MOL   O239 9409   0.406   0.270   2.490 -0.4352 -0.0583  0.3226
   36MOL   C240 9410   0.263   0.101   2.415  0.4114 -0.4782  0.2806
   36MOL   C241 9411   0.729   0.178   2.449  0.5965 -0.0175 -0.5783
   36MOL   H242 9412   0.599   0.150   2.613 -1.9394 -0.1487  0.4691
   36MOL   H243 9413   0.480   7.814   2.423  2.7678 -0.4086  0.2986
   36MOL   H244 9414   0.245   0.076   2.310  2.0469 -1.6258  0.2555
   36MOL   H245 9415   0.230   0.020   2.480  0.8115  0.1366  1.2609
   36MOL   H246 9416   0.193   0.180   2.443  3.7952  1.7963  2.6333
   36MOL   H247 9417   0.822   0.123   2.435  0.9367  0.1874  0.7837
   36MOL   H248 9418   0.707   0.204   2.345  0.8006  0.3806 -0.5254
   36MOL   C249 9419   0.769   0.308   2.529 -0.3022  0.0510  0.6284
   36MOL   N250 9420   0.651   0.393   2.545 -0.2701 -0.0482 -0.6088
   36MOL   C251 9421   0.644   0.513   2.611  0.3027 -0.3764  0.3672
   36MOL   O252 9422   0.735   0.563   2.677 -1.0408  0.0338  0.5564
   36MOL   C253 9423   0.511   0.589   2.601 -0.0105 -0.2431 -0.3067
   36MOL   C254 9424   0.887   0.396   2.479  0.0149  0.0118  0.1074
   36MOL   H255 9425   0.795   0.276   2.630  2.5089 -0.3537 -0.1859
   36MOL   H256 9426   0.566   0.353   2.508 -1.5632 -0.0980  2.2682
   36MOL   H257 9427   0.432   0.515   2.594 -1.6981  1.5070 -0.2048
   36MOL   H258 9428   0.495   0.654   2.687  1.3199  2.1112 -1.7939
   36MOL   H259 9429   0.511   0.644   2.507 -1.7733 -1.6986 -1.2104
   36MOL   H260 9430   0.861   0.401   2.373  0.7458 -4.6276 -0.3856
   36MOL   H261 9431   0.902   0.501   2.506 -0.4015  0.6433 -2.0003
   36MOL   H262 9432   0.977   0.337   2.493  0.4388  0.7768  0.5931
   37MOL     C1 9433   1.030   4.047   7.481 -0.2991 -0.9268 -0.2465
   37MOL     N2 9434   0.940   3.970   7.566  0.7335 -0.0570 -0.8055
   37MOL     C3 9435   0.955   3.843   7.606 -0.5881  0.3645 -0.4955
   37MOL     O4 9436   1.062   3.784   7.594 -0.2715  0.0049 -0.2760
   37MOL     C5 9437   0.841   3.767   7.681 -0.1976 -0.2792  0.4256
   37MOL     C6 9438   0.950   4.167   7.430  0.0209  0.1150  0.2106
   37MOL     H7 9439   1.114   4.079   7.543 -1.0392  1.6224 -0.4759
   37MOL     H8 9440   0.848   4.007   7.585  0.8696 -0.3091  0.3898
   37MOL     H9 9441   0.874   3.707   7.766  0.4719  1.0074  1.0871
   37MOL    H10 9442   0.775   3.844   7.722  0.5249  0.0659  0.9473
   37MOL    H11 9443   0.786   3.703   7.612 -2.2651 -1.1213  2.7760
   37MOL    H12 9444   0.860   4.133   7.380  0.6145 -0.5373 -0.4351
   37MOL    H13 9445   0.912   4.222   7.515 -2.9688  0.4206 -1.2783
   37MOL    H14 9446   1.070   3.987   7.399 -2.5450  0.3952 -2.3749
   37MOL    C15 9447   1.025   4.261   7.333 -0.2554 -0.1443  0.6629
   37MOL    N16 9448   1.150   4.308   7.395 -0.5896  0.0759 -0.3681
   37MOL    C17 9449   1.268   4.252   7.381  0.2228 -0.4294  0.1717
   37MOL    O18 9450   1.281   4.150   7.315 -0.6398 -0.5251  0.5139
   37MOL    C19 9451   1.386   4.319   7.449 -0.0788  0.9809 -0.1719
   37MOL    C20 9452   0.945   4.378   7.272  0.3184  0.3144 -0.3938
   37MOL    H21 9453   1.052   4.203   7.244 -3.5534  2.1126 -1.9254
   37MOL    H22 9454   1.154   4.369   7.475  1.3710 -1.9997  1.2028
   37MOL    H23 9455   1.371   4.422   7.482 -1.0086  1.2581 -1.4238
   37MOL    H24 9456   1.405   4.253   7.534  1.3901 -2.5935 -3.1447
   37MOL    H25 9457   1.475   4.315   7.386  1.3677 -0.0240  1.8524
   37MOL    H26 9458   0.847   4.343   7.238  0.4749 -2.0993  1.4862
   37MOL    H27 9459   0.909   4.457   7.337  0.9636  2.6325 -2.7647
   37MOL    C28 9460   1.012   4.456   7.159  0.1457 -0.1209 -0.0338
   37MOL    N29 9461   0.903   4.530   7.100 -0.3745  0.5168 -0.4796
   37MOL    C30 9462   0.903   4.658   7.093 -0.6172  0.8014 -0.0921
   37MOL    O31 9463   0.991   4.737   7.132 -0.1980 -0.0330  0.9211
   37MOL    C32 9464   0.777   4.715   7.024  0.2944 -0.3136 -0.0335
   37MOL    C33 9465   1.084   4.375   7.055  0.4005  0.2469 -0.2219
   37MOL    H34 9466   1.076   4.520   7.219  0.4648  0.3749 -0.8861
   37MOL    H35 9467   0.826   4.477   7.063 -1.5331  0.6434  1.6608
   37MOL    H36 9468   0.711   4.761   7.097  0.5801  1.0623 -0.6249
   37MOL    H37 9469   0.823   4.784   6.953  1.2380 -0.7421  0.1602
   37MOL    H38 9470   0.717   4.643   6.967  2.9508 -2.1586 -0.5864
   37MOL    H39 9471   1.169   4.336   7.111 -0.0813  0.8261  0.9286
   37MOL    H40 9472   1.021   4.292   7.024  0.3324 -0.4195  1.6217
   37MOL    C41 9473   1.134   4.447   6.931 -0.1090  0.6866  0.8319
   37MOL    N42 9474   1.174   4.583   6.967 -0.0231  0.2986  0.3803
   37MOL    C43 9475   1.290   4.647   6.948 -0.3558 -0.4592  0.3066
   37MOL    O44 9476   1.385   4.605   6.888  0.3198 -0.0575 -0.2316
   37MOL    C45 9477   1.281   4.798   6.989 -0.4334  0.0450  0.2990
   37MOL    C46 9478   1.025   4.439   6.819 -0.0287 -0.3365  1.7149
   37MOL    H47 9479   1.218   4.395   6.884  0.5837 -0.4865  3.2987
   37MOL    H48 9480   1.101   4.634   7.013 -0.0198  2.8950 -2.3595
   37MOL    H49 9481   1.381   4.836   7.013 -0.9155 -0.5192  3.4418
   37MOL    H50 9482   1.226   4.849   6.909 -1.2356 -0.5961  0.4370
   37MOL    H51 9483   1.233   4.804   7.087  0.4732 -0.8076  0.8022
   37MOL    H52 9484   1.044   4.352   6.757  0.1136 -0.8146  2.4232
   37MOL    H53 9485   0.927   4.424   6.863 -2.2529  1.8932 -2.1630
   37MOL    C54 9486   1.008   4.560   6.724  0.0562 -0.5807 -0.2025
   37MOL    N55 9487   0.894   4.535   6.641 -0.6657 -0.0595  0.5969
   37MOL    C56 9488   0.784   4.601   6.651 -0.3486  0.5637  0.8325
   37MOL    O57 9489   0.764   4.693   6.724 -0.4034  0.3110 -0.1849
   37MOL    C58 9490   0.667   4.547   6.560  1.5502  0.5005 -0.7214
   37MOL    C59 9491   1.126   4.573   6.629  0.4198 -0.1169  0.3413
   37MOL    H60 9492   0.982   4.644   6.788 -1.5026  0.3802 -2.0229
   37MOL    H61 9493   0.897   4.451   6.586 -0.8485  0.3206 -0.0018
   37MOL    H62 9494   0.656   4.611   6.473 -0.2437 -0.0302 -0.8905
   37MOL    H63 9495   0.688   4.445   6.529 -0.0732  0.0180 -0.2931
   37MOL    H64 9496   0.574   4.543   6.616 -0.1406 -1.8377 -3.6122
   37MOL    H65 9497   1.221   4.584   6.680  0.0011 -3.2929  1.9088
   37MOL    H66 9498   1.114   4.481   6.571 -1.5052 -0.3527  1.0896
   37MOL    C67 9499   1.118   4.692   6.530  0.0783  0.3024  0.3125
   37MOL    N68 9500   1.231   4.697   6.443 -0.3493  0.4553 -0.0164
   37MOL    C69 9501   1.254   4.627   6.332  0.2567  1.1177 -0.8353
   37MOL    O70 9502   1.210   4.516   6.304 -0.3629 -0.0927  0.1084
   37MOL    C71 9503   1.338   4.687   6.224  0.0573  0.2044 -0.3190
   37MOL    C72 9504   1.112   4.827   6.600 -0.2412  0.0411  0.3427
   37MOL    H73 9505   1.031   4.685   6.464  0.1814  0.0481  0.2043
   37MOL    H74 9506   1.281   4.784   6.445 -0.4792  0.5598 -0.8944
   37MOL    H75 9507   1.340   4.622   6.137 -2.1036 -0.3799  0.0358
   37MOL    H76 9508   1.291   4.779   6.189 -0.2632 -0.1139 -0.7320
   37MOL    H77 9509   1.441   4.705   6.254  0.0071  0.1562 -0.1185
   37MOL    H78 9510   1.030   4.823   6.671  0.5569  0.4227  1.2934
   37MOL    H79 9511   1.201   4.825   6.663 -0.7507 -1.3996  1.0321
   37MOL    C80 9512   1.077   4.952   6.510 -0.2819 -0.1118  0.0926
   37MOL    N81 9513   1.185   5.058   6.525 -0.2148 -0.0765 -0.1204
   37MOL    C82 9514   1.318   5.037   6.497 -0.5137 -0.5486  0.1901
   37MOL    O83 9515   1.366   4.928   6.461  0.2526 -0.5049  0.2319
   37MOL    C84 9516   1.400   5.163   6.504 -0.2196 -0.0865 -0.0997
   37MOL    C85 9517   0.943   5.017   6.558 -0.8475 -0.1200 -0.3624
   37MOL    H86 9518   1.079   4.926   6.405 -1.4325  0.1576 -0.0010
   37MOL    H87 9519   1.149   5.153   6.531  0.4822  0.2468 -0.9302
   37MOL    H88 9520   1.360   5.215   6.590  0.1009  2.0762 -1.2284
   37MOL    H89 9521   1.505   5.140   6.526 -0.3967 -0.5334  0.2699
   37MOL    H90 9522   1.393   5.230   6.418  1.4718  0.0544 -0.1446
   37MOL    H91 9523   0.944   5.008   6.667 -0.1025  1.5087 -0.2253
   37MOL    H92 9524   0.935   5.122   6.531 -2.9878 -0.5770 -1.5890
   37MOL    C93 9525   0.808   4.956   6.520 -0.8915  0.6458  0.3353
   37MOL    N94 9526   0.786   4.978   6.381 -0.5338 -0.2628 -0.9706
   37MOL    C95 9527   0.745   4.902   6.283  0.0344  0.5584 -1.1512
   37MOL    O96 9528   0.687   4.796   6.298 -0.4630  0.1555 -0.2935
   37MOL    C97 9529   0.777   4.941   6.141 -0.1586  0.1468  0.4894
   37MOL    C98 9530   0.699   5.019   6.597 -0.2876  1.3651 -0.4720
   37MOL    H99 9531   0.811   4.847   6.530  2.4413  0.5457 -1.3732
   37MOL   H100 9532   0.826   5.065   6.348 -1.1432 -0.0730 -1.2130
   37MOL   H101 9533   0.879   4.979   6.132 -0.3891  0.2997 -1.8413
   37MOL   H102 9534   0.761   4.855   6.076 -0.5623  0.0015  0.7834
   37MOL   H103 9535   0.713   5.021   6.104  0.2753 -0.1777 -1.0257
   37MOL   H104 9536   0.728   4.989   6.698 -0.1809 -4.3912 -2.0271
   37MOL   H105 9537   0.700   5.128   6.590 -1.0357  1.4876  1.1407
   37MOL   C106 9538   0.560   4.955   6.593  0.2368 -0.4058  0.7156
   37MOL   N107 9539   0.491   4.980   6.461  0.2058 -0.6126  0.0064
   37MOL   C108 9540   0.393   4.904   6.410  0.4487 -0.4462  1.6750
   37MOL   O109 9541   0.342   4.807   6.465 -0.1754 -0.2719 -0.1299
   37MOL   C110 9542   0.352   4.925   6.264  0.5036  0.4491 -0.4687
   37MOL   C111 9543   0.467   4.983   6.714  1.1065  0.0153 -0.2666
   37MOL   H112 9544   0.569   4.847   6.576 -2.3653 -0.3384 -1.3898
   37MOL   H113 9545   0.527   5.061   6.413  3.1024 -1.3003  0.9586
   37MOL   H114 9546   0.334   5.031   6.245  0.3333  0.6647  0.8273
   37MOL   H115 9547   0.438   4.893   6.205  0.9507 -0.5755  0.7098
   37MOL   H116 9548   0.266   4.868   6.230  0.3817  1.3772 -1.7449
   37MOL   H117 9549   0.491   5.080   6.757 -0.4824  0.0811  0.5239
   37MOL   H118 9550   0.362   4.968   6.686  0.7870  0.6024  0.5816
   37MOL   C119 9551   0.494   4.878   6.825  0.5182  0.0189  0.0390
   37MOL   N120 9552   0.419   4.760   6.781 -0.0281  0.1295  0.3462
   37MOL   C121 9553   0.400   4.638   6.837 -0.6049  0.3685 -0.1684
   37MOL   O122 9554   0.453   4.603   6.939 -0.0480 -0.6469 -0.1344
   37MOL   C123 9555   0.316   4.542   6.754  0.1138 -0.2851  0.5763
   37MOL   C124 9556   0.451   4.916   6.970  0.2819 -0.4492 -0.1737
   37MOL   H125 9557   0.601   4.854   6.831  0.2832 -0.7296  1.7819
   37MOL   H126 9558   0.383   4.782   6.689 -0.8266  1.1812  0.9056
   37MOL   H127 9559   0.242   4.479   6.804 -1.2005 -1.1542 -2.3240
   37MOL   H128 9560   0.264   4.598   6.676 -1.3984  0.8518  2.3616
   37MOL   H129 9561   0.382   4.463   6.718  0.4714  0.0011  0.6058
   37MOL   H130 9562   0.343   4.914   6.981  0.4523 -1.0773  1.5179
   37MOL   H131 9563   0.487   4.833   7.030  0.3225 -1.1242 -1.1214
   37MOL   C132 9564   0.502   5.051   7.026 -0.0364 -0.7962 -0.1442
   37MOL   N133 9565   0.653   5.054   7.035 -0.2256 -0.1233  0.0753
   37MOL   C134 9566   0.731   5.131   6.956  0.1397  1.4595  1.3205
   37MOL   O135 9567   0.686   5.201   6.870 -0.2952 -0.2965  0.4418
   37MOL   C136 9568   0.890   5.097   6.964 -0.3375  0.0681  0.1681
   37MOL   C137 9569   0.457   5.074   7.173 -0.6436 -0.6769  0.1502
   37MOL   H138 9570   0.470   5.135   6.965  0.2241  0.0999  0.9373
   37MOL   H139 9571   0.690   5.019   7.122  2.0300  2.9233  0.4328
   37MOL   H140 9572   0.955   5.176   6.927 -0.5950 -1.0231 -2.7773
   37MOL   H141 9573   0.926   5.061   7.060  0.7814  0.2236 -0.1864
   37MOL   H142 9574   0.923   5.013   6.902 -0.4107  0.8560 -0.9627
   37MOL   H143 9575   0.483   4.995   7.243  1.3144  0.9779  1.3326
   37MOL   H144 9576   0.502   5.166   7.213 -0.1880 -0.0691 -1.7334
   37MOL   C145 9577   0.312   5.112   7.180  0.0694 -0.2304  0.8231
   37MOL   N146 9578   0.287   5.247   7.131  0.2252  0.3793  0.1318
   37MOL   C147 9579   0.236   5.268   7.004  0.1545 -0.1216  0.2635
   37MOL   O148 9580   0.205   5.170   6.936 -0.1622 -0.3135 -0.6112
   37MOL   C149 9581   0.231   5.407   6.939  0.3956  0.8845  0.4776
   37MOL   C150 9582   0.261   5.108   7.322  0.3304  0.0525  0.0688
   37MOL   H151 9583   0.254   5.037   7.127  0.3727  0.7718 -0.9549
   37MOL   H152 9584   0.336   5.319   7.182 -0.5399  0.3085  0.9797
   37MOL   H153 9585   0.205   5.401   6.833  2.1852  1.8974 -0.0281
   37MOL   H154 9586   0.157   5.473   6.985  0.4537  1.6948 -0.5739
   37MOL   H155 9587   0.330   5.452   6.945 -0.6644  3.1615  1.4603
   37MOL   H156 9588   0.288   5.008   7.356 -1.0542 -0.3430  0.0181
   37MOL   H157 9589   0.328   5.173   7.379 -1.1888  1.1374  0.6385
   37MOL   C158 9590   0.111   5.146   7.350 -0.8809 -0.5001  0.4206
   37MOL   N159 9591   0.101   5.158   7.497 -0.0229 -0.0145 -0.0198
   37MOL   C160 9592   0.146   5.076   7.595 -0.1663  0.5069  0.2213
   37MOL   O161 9593   0.201   4.965   7.577  0.4064 -0.4359  0.5844
   37MOL   C162 9594   0.118   5.116   7.737 -0.2815 -0.5896  0.1944
   37MOL   C163 9595   0.020   5.034   7.294  0.2267 -0.1416  0.8383
   37MOL   H164 9596   0.092   5.246   7.310 -3.0783 -0.8176  0.5999
   37MOL   H165 9597   0.061   5.240   7.541  0.3935  0.3012 -0.2244
   37MOL   H166 9598   0.015   5.149   7.753 -0.4121 -0.7652 -0.2742
   37MOL   H167 9599   0.150   5.045   7.813 -0.4503 -0.2382  0.5970
   37MOL   H168 9600   0.175   5.204   7.764 -2.1358  1.0137 -0.9563
   37MOL   H169 9601   0.037   5.024   7.187 -1.6150 -0.1879  0.5365
   37MOL   H170 9602   0.026   4.930   7.327 -0.4464 -0.9061 -1.3712
   37MOL   C171 9603   7.709   5.057   7.310 -0.0564 -0.5339  0.4440
   37MOL   N172 9604   7.637   4.965   7.217  0.6117  0.4404 -0.0472
   37MOL   C173 9605   7.529   4.892   7.249  0.4172 -0.2613 -0.0630
   37MOL   O174 9606   7.464   4.905   7.351 -0.1515  0.1141  0.5616
   37MOL   C175 9607   7.488   4.778   7.149  0.3944 -0.2874  0.1039
   37MOL   C176 9608   7.669   5.201   7.279  0.2399 -0.0673 -0.1305
   37MOL   H177 9609   7.680   5.030   7.411  1.3472 -4.6137 -0.1479
   37MOL   H178 9610   7.677   4.926   7.133  0.6961 -0.6702  0.5097
   37MOL   H179 9611   7.452   4.834   7.063 -1.8140 -1.0071  0.5441
   37MOL   H180 9612   7.573   4.719   7.115  1.5081  1.3798 -0.0850
   37MOL   H181 9613   7.409   4.711   7.182  3.0827 -3.0398  1.2233
   37MOL   H182 9614   7.562   5.203   7.297 -0.1919  0.5797 -2.6255
   37MOL   H183 9615   7.709   5.262   7.360  2.1180  0.8618 -1.7226
   37MOL   C184 9616   7.708   5.276   7.148  0.3527  0.0963  0.6026
   37MOL   N185 9617   7.660   5.417   7.161  0.2834 -0.4386  0.0497
   37MOL   C186 9618   7.737   5.521   7.204  0.0105  0.3106 -0.1221
   37MOL   O187 9619   0.018   5.507   7.232 -0.3494  0.2289  0.3658
   37MOL   C188 9620   7.664   5.650   7.221 -0.1749 -0.6408 -0.0713
   37MOL   C189 9621   7.633   5.213   7.031  0.0519  0.0309  0.6919
   37MOL   H190 9622   7.813   5.270   7.117  0.4265 -1.6477  1.1431
   37MOL   H191 9623   7.567   5.443   7.130 -0.7018 -2.3057  1.3487
   37MOL   H192 9624   7.558   5.637   7.241 -0.2541 -0.1469 -0.1564
   37MOL   H193 9625   7.708   5.686   7.314  1.6330 -2.2819 -0.2610
   37MOL   H194 9626   7.681   5.729   7.147  0.6263 -0.4634  0.2927
   37MOL   H195 9627   7.695   5.126   7.011  1.0023  0.6488  0.9099
   37MOL   H196 9628   7.539   5.172   7.068 -0.2902 -0.4248 -0.6579
   37MOL   C197 9629   7.641   5.291   6.897  0.0423 -0.0661  0.4501
   37MOL   N198 9630   7.510   5.325   6.852 -0.6390  0.1657 -0.5148
   37MOL   C199 9631   7.454   5.440   6.872  0.2218  0.5440  0.5097
   37MOL   O200 9632   7.503   5.535   6.935 -0.1125  0.0782 -0.7267
   37MOL   C201 9633   7.312   5.455   6.818 -0.2143  0.4373 -0.6450
   37MOL   C202 9634   7.701   5.204   6.786  0.2126  0.5779 -0.3135
   37MOL   H203 9635   7.705   5.376   6.918 -0.1210  0.8134 -2.3749
   37MOL   H204 9636   7.458   5.251   6.807 -0.5280 -0.9080  1.0720
   37MOL   H205 9637   7.277   5.557   6.809 -0.1246  0.4669 -0.6668
   37MOL   H206 9638   7.311   5.415   6.716  0.7899  3.6372 -1.9745
   37MOL   H207 9639   7.241   5.398   6.877  0.5690 -0.0331 -0.1514
   37MOL   H208 9640   7.789   5.150   6.822  1.2434  3.7778  2.2598
   37MOL   H209 9641   7.638   5.121   6.754  0.6804 -0.8246  2.2926
   37MOL   C210 9642   7.767   5.280   6.668  0.7148 -0.2033  0.2011
   37MOL   N211 9643   7.681   5.384   6.619 -0.3741  0.7695 -0.3527
   37MOL   C212 9644   7.703   5.516   6.593 -0.2204 -0.8806 -0.4147
   37MOL   O213 9645   7.807   5.567   6.617 -0.4265 -0.0351 -0.8692
   37MOL   C214 9646   7.591   5.594   6.516 -0.6314  0.4193 -0.0607
   37MOL   C215 9647   7.821   5.199   6.554 -0.4947 -0.5125  0.9426
   37MOL   H216 9648   0.008   5.342   6.710  0.3347 -0.1195  0.8079
   37MOL   H217 9649   7.587   5.350   6.602 -1.1490  0.9593  3.0921
   37MOL   H218 9650   7.635   5.686   6.477  1.7608 -0.1333  1.2445
   37MOL   H219 9651   7.558   5.531   6.433  4.0084  0.1166 -1.8492
   37MOL   H220 9652   7.516   5.614   6.592  0.0257  1.6477  0.2749
   37MOL   H221 9653   0.051   5.122   6.586 -1.2801 -0.2095  3.5310
   37MOL   H222 9654   7.734   5.145   6.517 -1.6448  1.8804  0.0442
   37MOL   C223 9655   0.048   5.271   6.432 -0.4474  0.4209  0.5484
   37MOL   N224 9656   0.056   5.171   6.324 -0.0030 -0.2521 -0.1044
   37MOL   C225 9657   7.798   5.152   6.233 -0.0032 -0.0143 -0.3475
   37MOL   O226 9658   7.691   5.216   6.223  0.1037  0.8082 -0.4129
   37MOL   C227 9659   7.822   5.042   6.134  0.6516 -0.1046  0.2222
   37MOL   C228 9660   0.191   5.321   6.474  0.1497 -0.4527 -0.1187
   37MOL   H229 9661   7.827   5.347   6.383  0.3715  0.9091  0.2910
   37MOL   H230 9662   0.133   5.106   6.322  1.1230  1.0341  0.6951
   37MOL   H231 9663   7.802   4.940   6.169 -2.7968  0.4985  0.2148
   37MOL   H232 9664   7.767   5.054   6.041 -1.3142  1.5347  1.5565
   37MOL   H233 9665   0.089   5.034   6.113  0.5921  0.5872 -0.3674
   37MOL   H234 9666   0.194   5.354   6.578 -1.3589 -1.5978  0.3091
   37MOL   H235 9667   0.263   5.241   6.489  0.0320 -0.5258  0.0596
   37MOL   C236 9668   0.248   5.436   6.380 -0.2852 -0.4926  0.0646
   37MOL   N237 9669   0.392   5.443   6.395  0.0855  0.2699 -0.2107
   37MOL   C238 9670   0.485   5.374   6.323  0.3272 -0.7434  0.4026
   37MOL   O239 9671   0.466   5.310   6.220  0.4489  0.5314 -0.5981
   37MOL   C240 9672   0.628   5.390   6.376  0.4150 -0.4111 -0.5615
   37MOL   C241 9673   0.179   5.573   6.389  0.0777 -0.5528 -0.9401
   37MOL   H242 9674   0.233   5.410   6.275 -2.2700 -1.3409  0.5325
   37MOL   H243 9675   0.431   5.514   6.456  2.1739  0.8184 -2.1393
   37MOL   H244 9676   0.662   5.463   6.303  2.4851 -1.3713 -0.5991
   37MOL   H245 9677   0.625   5.416   6.482 -1.3455  0.2327 -0.7577
   37MOL   H246 9678   0.674   5.295   6.347  0.4543 -0.7094  0.4560
   37MOL   H247 9679   0.072   5.563   6.368  0.1502 -1.2152 -0.9920
   37MOL   H248 9680   0.198   5.617   6.487  2.1050 -3.2920 -0.0555
   37MOL   C249 9681   0.223   5.682   6.282  0.0910 -0.2148 -0.0902
   37MOL   N250 9682   0.283   5.796   6.340  0.7071  0.2495 -0.4457
   37MOL   C251 9683   0.400   5.806   6.398 -0.1677 -0.6998  0.1060
   37MOL   O252 9684   0.479   5.713   6.415  0.8337 -0.4590 -0.2525
   37MOL   C253 9685   0.445   5.947   6.438  0.1359  0.5556  0.2619
   37MOL   C254 9686   0.103   5.729   6.190  0.5146 -0.2987 -0.0096
   37MOL   H255 9687   0.303   5.639   6.222 -0.0293  0.3279 -0.6464
   37MOL   H256 9688   0.229   5.881   6.338  1.3454  0.7976  2.6687
   37MOL   H257 9689   0.365   6.016   6.465 -1.3178 -1.1182  0.2980
   37MOL   H258 9690   0.508   5.929   6.526 -0.9555  1.8391  1.3324
   37MOL   H259 9691   0.506   5.989   6.358 -0.7539 -0.9825 -1.2406
   37MOL   H260 9692   0.042   5.642   6.164  0.9919 -0.4276 -0.7134
   37MOL   H261 9693   0.037   5.800   6.240 -0.1954 -0.4930 -0.6652
   37MOL   H262 9694   0.131   5.772   6.094  0.8569 -1.3970 -0.4107
   38MOL     C1 9695   2.345   6.991   5.049  0.7407  0.3720  0.2958
   38MOL     N2 9696   2.238   7.052   5.134  1.0063  0.1038  0.2885
   38MOL     C3 9697   2.104   7.064   5.097  0.9810  0.4976  0.4799
   38MOL     O4 9698   2.054   7.051   4.983  0.5023  0.0409 -0.2945
   38MOL     C5 9699   2.008   7.096   5.212 -0.1879 -0.0231  1.1029
   38MOL     C6 9700   2.469   7.002   5.137 -0.4267  0.0122 -0.0065
   38MOL     H7 9701   2.317   6.888   5.026  1.8720  0.6444 -2.4945
   38MOL     H8 9702   2.266   7.077   5.228 -0.3119 -1.9963  1.2704
   38MOL     H9 9703   2.001   7.200   5.242 -3.3643  0.6947 -1.7635
   38MOL    H10 9704   1.907   7.064   5.186  0.5463 -0.1703 -1.7211
   38MOL    H11 9705   2.039   7.034   5.296  1.4277 -0.0438  0.5010
   38MOL    H12 9706   2.470   7.109   5.158 -1.6724  0.4014 -1.7804
   38MOL    H13 9707   2.448   6.956   5.234  0.0951  2.2794  1.2143
   38MOL    H14 9708   2.360   7.047   4.957  1.0967  2.0174  1.3461
   38MOL    C15 9709   2.600   6.962   5.070 -0.0290  0.4788  0.4514
   38MOL    N16 9710   2.678   6.867   5.153 -0.4645  0.1846 -1.0134
   38MOL    C17 9711   2.753   6.761   5.109 -0.2585  0.8532 -0.3303
   38MOL    O18 9712   2.756   6.729   4.991 -0.1251  0.3055 -0.3340
   38MOL    C19 9713   2.829   6.673   5.212 -0.3435 -0.6148 -0.1533
   38MOL    C20 9714   2.687   7.076   5.015 -0.4940 -0.1226  0.3079
   38MOL    H21 9715   2.576   6.904   4.981  1.2097  2.6455 -1.3495
   38MOL    H22 9716   2.699   6.897   5.248  0.7417  0.7867 -1.4689
   38MOL    H23 9717   2.828   6.716   5.312 -0.6707  0.9272 -0.8060
   38MOL    H24 9718   2.803   6.567   5.212 -0.8928 -0.4762  0.1560
   38MOL    H25 9719   2.928   6.660   5.168 -0.4522 -0.8458 -0.3344
   38MOL    H26 9720   2.680   7.166   5.076 -1.6076  1.9622 -2.7514
   38MOL    H27 9721   2.792   7.051   5.028 -0.6587 -1.0163 -0.0679
   38MOL    C28 9722   2.655   7.131   4.873 -0.1805 -0.6370  0.5480
   38MOL    N29 9723   2.689   7.031   4.774  0.2962  0.2263  0.4871
   38MOL    C30 9724   2.636   7.033   4.653  0.0575 -0.5428 -0.1763
   38MOL    O31 9725   2.553   7.113   4.615  0.4216 -0.1275 -0.1427
   38MOL    C32 9726   2.680   6.918   4.571 -0.1474  0.6985 -0.2348
   38MOL    C33 9727   2.711   7.272   4.839 -0.2762 -0.0412  1.1435
   38MOL    H34 9728   2.546   7.140   4.867 -0.1120  1.4099  1.7361
   38MOL    H35 9729   2.766   6.970   4.798 -1.5233 -1.8127  1.3541
   38MOL    H36 9730   2.610   6.904   4.489 -1.1318  1.9318  0.3855
   38MOL    H37 9731   2.779   6.952   4.541  0.2968  0.8880  1.4082
   38MOL    H38 9732   2.684   6.825   4.628 -1.3488  0.1996 -0.9419
   38MOL    H39 9733   2.814   7.272   4.876 -0.4455 -2.6287  1.7253
   38MOL    H40 9734   2.730   7.281   4.732  0.6166 -0.6331  1.2488
   38MOL    C41 9735   2.634   7.393   4.892  0.6199  0.1465 -0.6231
   38MOL    N42 9736   2.501   7.387   4.843 -0.5481 -0.5438 -0.0924
   38MOL    C43 9737   2.386   7.399   4.905 -0.2994 -0.3593  0.2317
   38MOL    O44 9738   2.387   7.432   5.024  0.4564  0.1087  0.0962
   38MOL    C45 9739   2.262   7.369   4.824 -0.0889  0.2486  0.8732
   38MOL    C46 9740   2.705   7.527   4.863  0.4339  0.1584 -0.6926
   38MOL    H47 9741   2.628   7.391   5.001  1.6958  5.5121 -0.3038
   38MOL    H48 9742   2.495   7.351   4.749 -2.5595  0.1780 -0.2707
   38MOL    H49 9743   2.179   7.384   4.893 -0.5754 -1.5406  0.7204
   38MOL    H50 9744   2.245   7.434   4.739  3.1975  0.0268 -0.0023
   38MOL    H51 9745   2.256   7.262   4.801 -0.6919  0.2513  1.0118
   38MOL    H52 9746   2.671   7.602   4.935 -0.6832 -2.2786  1.3825
   38MOL    H53 9747   2.810   7.521   4.890  0.5884  0.8127 -1.1223
   38MOL    C54 9748   2.684   7.593   4.722 -0.1474 -0.9758 -0.0152
   38MOL    N55 9749   2.748   7.513   4.617 -0.0865 -0.7031 -0.0594
   38MOL    C56 9750   2.701   7.495   4.492 -0.6597  0.4746 -0.2250
   38MOL    O57 9751   2.603   7.561   4.448  0.2774 -0.2301  0.1877
   38MOL    C58 9752   2.767   7.386   4.412  0.4595 -0.3235 -0.8491
   38MOL    C59 9753   2.738   7.738   4.697  0.1913  0.1053  0.6550
   38MOL    H60 9754   2.576   7.586   4.704 -0.1564  1.4587 -1.1388
   38MOL    H61 9755   2.820   7.447   4.642  0.1482 -0.3487  0.2183
   38MOL    H62 9756   2.718   7.297   4.451  0.9143 -0.0763  0.2947
   38MOL    H63 9757   2.752   7.386   4.304  1.9004  0.4227 -1.0649
   38MOL    H64 9758   2.873   7.386   4.437  0.0046 -1.9972  1.1306
   38MOL    H65 9759   2.839   7.749   4.737  0.0004  0.4105  1.0485
   38MOL    H66 9760   2.756   7.763   4.592 -3.1170 -0.3041 -0.0711
   38MOL    C67 9761   2.656   0.012   4.766  0.3578 -0.7036 -0.0384
   38MOL    N68 9762   2.516   0.009   4.723  0.1014 -0.4998 -0.0268
   38MOL    C69 9763   2.415   0.011   4.808 -0.0116  0.2637  0.6016
   38MOL    O70 9764   2.432   0.030   4.926 -0.1167 -0.1116 -0.9348
   38MOL    C71 9765   2.269   7.811   4.763 -0.0234  0.3978 -0.0426
   38MOL    C72 9766   2.715   0.146   4.731 -0.4454 -0.1890  0.0477
   38MOL    H73 9767   2.670   7.823   4.870  1.6660 -2.0677 -0.5750
   38MOL    H74 9768   2.506   7.812   4.629 -1.3775  0.0457 -0.0955
   38MOL    H75 9769   2.288   7.795   4.657 -1.3291 -0.6830 -0.1316
   38MOL    H76 9770   2.229   7.725   4.818  1.0814  0.2874  0.6136
   38MOL    H77 9771   2.194   0.049   4.778 -0.0872 -0.3431  4.0680
   38MOL    H78 9772   2.780   0.149   4.644 -0.0502  1.1060  0.3843
   38MOL    H79 9773   2.627   0.209   4.718 -0.6209 -0.0325  1.8583
   38MOL    C80 9774   2.816   0.199   4.825 -0.3886 -0.7120  0.2198
   38MOL    N81 9775   2.766   0.193   4.965 -0.1483  0.6620  0.0381
   38MOL    C82 9776   2.838   0.149   5.068  0.2565 -0.5015  0.0220
   38MOL    O83 9777   2.959   0.117   5.063 -0.1053  0.1690 -0.2603
   38MOL    C84 9778   2.763   0.145   5.205 -0.0308  0.2056  0.1332
   38MOL    C85 9779   2.865   0.351   4.791 -0.4431 -0.5378  0.4105
   38MOL    H86 9780   2.900   0.132   4.811 -0.5918 -1.4515  2.3690
   38MOL    H87 9781   2.671   0.224   4.976 -0.6917 -1.3504  1.2829
   38MOL    H88 9782   2.802   0.057   5.257  0.5955  0.4464  0.0774
   38MOL    H89 9783   2.781   0.227   5.274  0.1551 -0.5668  1.0178
   38MOL    H90 9784   2.655   0.133   5.196 -0.5227  2.3123  2.7961
   38MOL    H91 9785   2.780   0.394   4.740 -2.0156 -0.9281  2.6180
   38MOL    H92 9786   2.877   0.407   4.884  0.5571  1.8753 -1.1179
   38MOL    C93 9787   2.999   0.374   4.706  0.5206 -0.2093 -0.2859
   38MOL    N94 9788   3.004   0.291   4.587 -0.2339 -0.2300 -0.0717
   38MOL    C95 9789   2.943   0.325   4.474 -0.3241 -0.4168 -0.5361
   38MOL    O96 9790   2.890   0.435   4.446 -0.3454  0.4180  0.5764
   38MOL    C97 9791   2.939   0.213   4.375 -0.2473  0.3015  0.7119
   38MOL    C98 9792   3.135   0.353   4.775  0.3453  0.6817  0.0321
   38MOL    H99 9793   2.995   0.480   4.678 -3.7981  0.5009  2.4977
   38MOL   H100 9794   3.077   0.224   4.572  0.1993  0.2371 -0.0482
   38MOL   H101 9795   2.858   0.239   4.306  0.4625  0.5110 -0.0582
   38MOL   H102 9796   3.031   0.207   4.316  0.2240  0.7213  1.4077
   38MOL   H103 9797   2.937   0.113   4.417  0.7072 -1.4286 -3.0543
   38MOL   H104 9798   3.138   0.406   4.871 -0.6802  0.7611  0.0293
   38MOL   H105 9799   3.144   0.250   4.807 -1.7507  1.0692  2.0685
   38MOL   C106 9800   3.255   0.395   4.693 -0.7710 -0.5063 -0.8496
   38MOL   N107 9801   3.350   0.289   4.656 -0.2474 -0.1895  0.0798
   38MOL   C108 9802   3.323   0.162   4.606  0.0774 -0.2569  0.3482
   38MOL   O109 9803   3.214   0.100   4.614 -0.6190 -0.6783  0.1859
   38MOL   C110 9804   3.432   0.086   4.532  0.2640  0.2137  0.3916
   38MOL   C111 9805   3.330   0.514   4.760  0.3580  0.4393  0.4005
   38MOL   H112 9806   3.205   0.422   4.600 -2.3069  1.6989  0.5658
   38MOL   H113 9807   3.443   0.323   4.638  0.5461 -1.5814  1.4149
   38MOL   H114 9808   3.404   0.022   4.448  2.0570  0.2006 -0.2150
   38MOL   H115 9809   3.505   0.157   4.493 -1.3938 -0.0669 -3.5209
   38MOL   H116 9810   3.490   0.026   4.601  0.0922  2.1683  2.3057
   38MOL   H117 9811   3.346   0.479   4.862  0.5482 -0.5484  0.0374
   38MOL   H118 9812   3.432   0.517   4.722  0.8308  1.2152  1.6617
   38MOL   C119 9813   3.260   0.646   4.765 -0.7771 -0.5918 -0.0690
   38MOL   N120 9814   3.231   0.694   4.629 -0.0192 -0.2219 -0.1003
   38MOL   C121 9815   3.128   0.766   4.599 -0.0321  0.6226 -0.2136
   38MOL   O122 9816   3.049   0.802   4.683  0.6172 -0.5921 -0.8751
   38MOL   C123 9817   3.111   0.791   4.451 -0.6153 -0.1279 -0.3469
   38MOL   C124 9818   3.344   0.754   4.842  0.0844  0.0902  0.1621
   38MOL   H125 9819   3.164   0.631   4.814 -1.4211  0.9200 -0.8429
   38MOL   H126 9820   3.303   0.674   4.561  1.9931  3.2651  0.8538
   38MOL   H127 9821   3.099   0.702   4.389  3.0369 -0.4221 -0.7524
   38MOL   H128 9822   3.025   0.857   4.443  0.4369  1.3449  0.2585
   38MOL   H129 9823   3.191   0.859   4.419 -1.1997  0.9426  0.4557
   38MOL   H130 9824   3.443   0.761   4.796  0.0112 -0.1238 -0.0314
   38MOL   H131 9825   3.287   0.845   4.822  2.3624  1.7542  1.0361
   38MOL   C132 9826   3.366   0.733   4.997  0.2464 -0.2376  0.0401
   38MOL   N133 9827   3.239   0.693   5.048 -0.4792 -0.2921  0.1258
   38MOL   C134 9828   3.218   0.585   5.119  0.4235 -0.0265 -0.3605
   38MOL   O135 9829   3.310   0.504   5.143  0.1213  0.3497 -0.3054
   38MOL   C136 9830   3.069   0.563   5.155 -0.7416 -0.2962  0.3991
   38MOL   C137 9831   3.390   0.868   5.071  0.1346 -0.0924 -0.3047
   38MOL   H138 9832   3.444   0.660   5.015  1.0497  0.8271  0.9925
   38MOL   H139 9833   3.160   0.751   5.024 -0.1443  1.1949  2.4689
   38MOL   H140 9834   3.055   0.457   5.175  2.7041 -0.2889  3.3064
   38MOL   H141 9835   3.059   0.623   5.246  1.5168  0.6445  0.0652
   38MOL   H142 9836   3.006   0.606   5.077 -2.1262 -1.7249  0.7023
   38MOL   H143 9837   3.324   0.943   5.026 -1.8896 -0.3117  2.1607
   38MOL   H144 9838   3.353   0.872   5.174 -1.9608  1.6798 -1.0738
   38MOL   C145 9839   3.548   0.906   5.081  0.2137 -0.8660  0.2502
   38MOL   N146 9840   3.612   0.815   5.177 -0.2466  0.3736 -0.1276
   38MOL   C147 9841   3.723   0.745   5.159 -0.8433  0.5683  0.2817
   38MOL   O148 9842   3.772   0.724   5.048  0.1422  0.1139  0.1644
   38MOL   C149 9843   3.790   0.674   5.279  0.0457 -0.1672  0.2669
   38MOL   C150 9844   3.562   1.056   5.122 -0.8330 -0.2896 -0.0676
   38MOL   H151 9845   3.588   0.892   4.981 -0.3679 -3.4890  0.3412
   38MOL   H152 9846   3.582   0.827   5.273  0.5392  3.6072 -0.2327
   38MOL   H153 9847   3.814   0.569   5.258  0.7361  0.4188 -1.9682
   38MOL   H154 9848   3.879   0.721   5.322  0.1102  0.0562 -0.1123
   38MOL   H155 9849   3.714   0.676   5.357 -1.3341 -0.4574 -1.0523
   38MOL   H156 9850   3.514   1.072   5.219 -0.8170  1.7973 -0.3718
   38MOL   H157 9851   3.669   1.077   5.126 -0.7812 -0.7302  0.9828
   38MOL   C158 9852   3.504   1.155   5.011  0.2488  1.2720 -0.2319
   38MOL   N159 9853   3.590   1.161   4.891 -0.1133  0.1953  0.4333
   38MOL   C160 9854   3.583   1.087   4.780  0.5510 -0.0864  0.1711
   38MOL   O161 9855   3.499   1.000   4.753 -0.1092  0.3331 -0.3506
   38MOL   C162 9856   3.686   1.118   4.677 -0.4383  0.5076 -0.0593
   38MOL   C163 9857   3.491   1.295   5.080  0.5034  0.1886  0.0731
   38MOL   H164 9858   3.405   1.121   4.984  0.9494 -0.3862 -0.7673
   38MOL   H165 9859   3.643   1.246   4.883 -0.5449  0.3412 -1.0192
   38MOL   H166 9860   3.704   1.027   4.620 -1.9144 -0.1562  0.5003
   38MOL   H167 9861   3.676   1.190   4.595 -1.6814 -0.9249 -1.1945
   38MOL   H168 9862   3.777   1.143   4.731 -0.2245  1.5078 -0.8467
   38MOL   H169 9863   3.435   1.295   5.174 -0.8824  0.5608 -0.7425
   38MOL   H170 9864   3.593   1.334   5.090  0.3462  1.2443 -2.1890
   38MOL   C171 9865   3.413   1.389   4.976 -0.9618  0.3869  0.3530
   38MOL   N172 9866   3.480   1.517   4.953 -0.2659  0.1091 -0.2484
   38MOL   C173 9867   3.589   1.542   4.882  0.0865  0.6218  0.9916
   38MOL   O174 9868   3.665   1.458   4.838  0.2038 -0.3871 -0.1815
   38MOL   C175 9869   3.613   1.694   4.866  0.3138  0.1969  0.2529
   38MOL   C176 9870   3.270   1.409   5.037  0.1900 -0.5146 -0.0739
   38MOL   H177 9871   3.417   1.342   4.878  0.2913  0.3190  0.4304
   38MOL   H178 9872   3.429   1.600   4.977  1.8355  1.0370  1.1053
   38MOL   H179 9873   3.707   1.701   4.811  0.1964 -0.0537  0.0189
   38MOL   H180 9874   3.527   1.736   4.814 -1.1735  0.4332  2.8529
   38MOL   H181 9875   3.623   1.740   4.964  4.0773  2.0155 -0.8727
   38MOL   H182 9876   3.292   1.463   5.129 -1.2844  1.0063 -0.5892
   38MOL   H183 9877   3.214   1.480   4.976 -0.6337  1.0289  2.4049
   38MOL   C184 9878   3.184   1.283   5.055 -0.4467  0.0249  0.9975
   38MOL   N185 9879   3.180   1.191   4.940 -0.2925 -0.2640 -0.7962
   38MOL   C186 9880   3.137   1.223   4.812 -0.5738 -1.1686  0.2290
   38MOL   O187 9881   3.085   1.330   4.776  0.9440  0.1362  0.4484
   38MOL   C188 9882   3.153   1.119   4.705 -0.1870 -0.6055  0.9460
   38MOL   C189 9883   3.034   1.319   5.096 -0.4637  0.5240 -0.3298
   38MOL   H190 9884   3.231   1.217   5.128 -0.5138  1.1551  2.0813
   38MOL   H191 9885   3.207   1.094   4.950  0.5999  0.2227  1.6201
   38MOL   H192 9886   3.068   1.132   4.638  1.0417 -0.3976 -0.5976
   38MOL   H193 9887   3.247   1.135   4.652  1.6174  2.6991  4.8536
   38MOL   H194 9888   3.155   1.021   4.754  1.8138  0.0437  2.2347
   38MOL   H195 9889   3.012   1.404   5.031 -3.0103  0.8536  0.8692
   38MOL   H196 9890   2.964   1.244   5.058  0.2718  0.1488 -0.9436
   38MOL   C197 9891   3.001   1.344   5.246 -0.3294  0.5921 -0.4458
   38MOL   N198 9892   3.116   1.406   5.310  0.3695  0.5574  0.1941
   38MOL   C199 9893   3.131   1.472   5.422  0.1751  0.4000  0.3480
   38MOL   O200 9894   3.037   1.475   5.501 -0.3938  0.6899 -0.5588
   38MOL   C201 9895   3.273   1.530   5.439 -0.0725  0.0990  0.2556
   38MOL   C202 9896   2.939   1.224   5.318  0.2553  0.1327 -0.3166
   38MOL   H203 9897   2.924   1.421   5.242 -0.2717  0.7891  1.6221
   38MOL   H204 9898   3.191   1.417   5.243  0.7109  0.8520  0.6240
   38MOL   H205 9899   3.323   1.475   5.518  1.2552 -0.0250 -0.6727
   38MOL   H206 9900   3.327   1.537   5.344 -1.8232  1.4175 -0.6778
   38MOL   H207 9901   3.249   1.628   5.480 -0.6536  0.5663 -1.1560
   38MOL   H208 9902   3.013   1.145   5.325 -0.4257 -0.3639  1.5971
   38MOL   H209 9903   2.914   1.261   5.418 -2.0093  1.8357 -1.4635
   38MOL   C210 9904   2.811   1.163   5.265  0.4352  0.3327 -0.8243
   38MOL   N211 9905   2.705   1.260   5.225  0.3967 -0.1120 -0.2529
   38MOL   C212 9906   2.645   1.364   5.291  0.1669  0.9847  0.5494
   38MOL   O213 9907   2.674   1.394   5.401 -0.2327 -0.4998  0.1297
   38MOL   C214 9908   2.555   1.463   5.213 -0.4625  0.2914 -0.6652
   38MOL   C215 9909   2.753   1.040   5.341 -0.1855 -0.8238  0.0414
   38MOL   H216 9910   2.834   1.126   5.165 -1.0750  2.3671 -1.9766
   38MOL   H217 9911   2.679   1.242   5.129  0.6183 -1.2056 -0.1106
   38MOL   H218 9912   2.595   1.473   5.112  2.8980 -1.6349  0.3898
   38MOL   H219 9913   2.457   1.418   5.222  1.1616 -3.2016  0.3542
   38MOL   H220 9914   2.559   1.564   5.254  0.0623  0.4593 -1.1208
   38MOL   H221 9915   2.723   1.076   5.440 -0.4229 -1.0091  0.0364
   38MOL   H222 9916   2.658   1.022   5.291  0.0695 -0.9389 -0.4024
   38MOL   C223 9917   2.837   0.904   5.333  0.2137  0.4044  0.2610
   38MOL   N224 9918   2.866   0.878   5.187 -0.2030  0.0523 -0.6074
   38MOL   C225 9919   2.973   0.912   5.115  0.3845  0.1672 -0.5835
   38MOL   O226 9920   3.080   0.951   5.160  0.3788  0.3065  0.0630
   38MOL   C227 9921   2.952   0.909   4.966  0.4632  0.5928  0.0890
   38MOL   C228 9922   2.759   0.784   5.392  0.7069  0.3409 -0.5315
   38MOL   H229 9923   2.926   0.934   5.388  0.9209 -0.8965 -0.1544
   38MOL   H230 9924   2.790   0.832   5.141 -0.5847  2.1298 -2.1310
   38MOL   H231 9925   3.046   0.938   4.919 -0.6376  0.0095 -2.5338
   38MOL   H232 9926   2.933   0.809   4.926  1.6358 -0.1369  1.3192
   38MOL   H233 9927   2.867   0.968   4.933  1.0403  2.0260  1.0953
   38MOL   H234 9928   2.658   0.797   5.352  0.8209  3.1355 -0.0314
   38MOL   H235 9929   2.794   0.690   5.351  0.6772  0.0717  0.0515
   38MOL   C236 9930   2.750   0.775   5.546 -1.2520  0.1440 -0.4243
   38MOL   N237 9931   2.883   0.760   5.610  0.0224  0.1100 -0.1336
   38MOL   C238 9932   2.918   0.777   5.740  0.1067 -0.6860 -0.4158
   38MOL   O239 9933   2.832   0.795   5.830  0.2678 -0.1513 -0.2751
   38MOL   C240 9934   3.061   0.762   5.789 -0.2878  0.3016  0.0607
   38MOL   C241 9935   2.655   0.662   5.582 -0.1228 -0.8235 -0.1312
   38MOL   H242 9936   2.702   0.865   5.585  1.9906 -0.0217  4.3672
   38MOL   H243 9937   2.956   0.723   5.551  0.1304  1.4711 -0.8583
   38MOL   H244 9938   3.061   0.743   5.896 -0.6596  2.2119  0.4178
   38MOL   H245 9939   3.114   0.687   5.732 -2.5856 -1.1275 -0.2513
   38MOL   H246 9940   3.117   0.855   5.787 -1.9202  1.3015 -0.7235
   38MOL   H247 9941   2.665   0.587   5.504 -0.8410  0.6403 -1.6573
   38MOL   H248 9942   2.681   0.623   5.680  0.4840  0.3429  0.1839
   38MOL   C249 9943   2.502   0.700   5.591 -0.5764 -0.5864 -0.0413
   38MOL   N250 9944   2.426   0.577   5.607 -0.2654  0.0764  0.5338
   38MOL   C251 9945   2.347   0.541   5.709  0.0608  0.5521  0.0362
   38MOL   O252 9946   2.329   0.605   5.816  0.4279 -0.3331  0.6502
   38MOL   C253 9947   2.284   0.407   5.702 -0.1158  0.5317  0.1278
   38MOL   C254 9948   2.432   0.762   5.467  0.9574 -0.9424 -0.0338
   38MOL   H255 9949   2.478   0.766   5.674  0.2745 -0.4670  0.1090
   38MOL   H256 9950   2.416   0.517   5.526  2.4083  2.6529 -1.8248
   38MOL   H257 9951   2.193   0.406   5.641  1.7997  0.5826 -2.8618
   38MOL   H258 9952   2.346   0.330   5.655  0.5256  0.3555  1.2431
   38MOL   H259 9953   2.265   0.371   5.803  0.2707  0.1979  0.0841
   38MOL   H260 9954   2.436   0.684   5.391 -0.0186 -0.1961 -0.8750
   38MOL   H261 9955   2.327   0.790   5.482  1.6481  2.1567 -0.4684
   38MOL   H262 9956   2.483   0.855   5.439 -1.0335  0.0187 -0.6006
   39MOL     C1 9957   0.910   6.494   3.075  0.5384 -0.0301 -0.7980
   39MOL     N2 9958   0.825   6.376   3.048  0.5656  0.0545  0.3638
   39MOL     C3 9959   0.692   6.388   3.022  0.6923 -0.4788 -0.9850
   39MOL     O4 9960   0.638   6.502   3.018 -0.5362  0.3628 -0.2019
   39MOL     C5 9961   0.616   6.260   2.988  0.3138 -0.4748 -0.1194
   39MOL     C6 9962   1.058   6.445   3.069 -0.0074 -0.0894 -0.3262
   39MOL     H7 9963   0.891   6.559   2.990  0.8813  1.3348  0.1483
   39MOL     H8 9964   0.872   6.287   3.046 -1.1544 -0.8878  0.8447
   39MOL     H9 9965   0.685   6.177   3.005  1.4120  0.3808 -0.3170
   39MOL    H10 9966   0.520   6.259   3.039 -0.3554  0.1014 -1.3355
   39MOL    H11 9967   0.610   6.266   2.879 -0.5906  2.0468  0.0380
   39MOL    H12 9968   1.090   6.379   3.149  2.2856 -0.2542 -1.3279
   39MOL    H13 9969   1.073   6.377   2.985 -1.2061  0.5661 -1.1009
   39MOL    H14 9970   0.876   6.544   3.166 -0.1239 -0.4820 -0.7894
   39MOL    C15 9971   1.161   6.560   3.067  0.4985  0.1808 -0.7776
   39MOL    N16 9972   1.154   6.653   3.186  1.1340 -0.2331 -0.1638
   39MOL    C17 9973   1.256   6.727   3.229  0.8026  0.1051 -0.0020
   39MOL    O18 9974   1.371   6.731   3.173 -0.0767 -0.0320  0.1907
   39MOL    C19 9975   1.235   6.815   3.355 -0.4248 -0.2103  0.0572
   39MOL    C20 9976   1.167   6.639   2.933  0.1095 -0.2552  0.4964
   39MOL    H21 9977   1.244   6.490   3.077 -0.0741 -0.4842 -0.6790
   39MOL    H22 9978   1.063   6.662   3.229  0.4297 -1.8206 -1.2464
   39MOL    H23 9979   1.134   6.823   3.393 -0.4571  1.0484 -0.2826
   39MOL    H24 9980   1.291   6.769   3.436  0.2752 -0.4604 -0.5595
   39MOL    H25 9981   1.284   6.910   3.333 -1.0641  0.3590  1.0940
   39MOL    H26 9982   1.075   6.614   2.881  0.3953  0.4409 -0.3521
   39MOL    H27 9983   1.159   6.746   2.953 -2.8475 -0.0902 -1.2436
   39MOL    C28 9984   1.294   6.611   2.844  0.1783  0.3922 -0.5556
   39MOL    N29 9985   1.414   6.636   2.926  0.0616  0.9628  0.4306
   39MOL    C30 9986   1.528   6.567   2.910  0.3583 -0.4656 -0.6074
   39MOL    O31 9987   1.560   6.500   2.813  0.0181 -0.2831  0.4173
   39MOL    C32 9988   1.617   6.568   3.038 -0.1748  0.0867  0.9778
   39MOL    C33 9989   1.300   6.685   2.712  0.6939  0.3012 -0.2918
   39MOL    H34 9990   1.305   6.506   2.816 -0.7103 -0.1307  1.0056
   39MOL    H35 9991   1.404   6.687   3.012  0.6191 -0.6082  1.4400
   39MOL    H36 9992   1.635   6.669   3.075 -1.2979  0.3167  0.9168
   39MOL    H37 9993   1.578   6.500   3.114 -0.3084  2.1551  2.7859
   39MOL    H38 9994   1.718   6.532   3.019  0.7466  1.9760  2.1936
   39MOL    H39 9995   1.217   6.756   2.713 -0.3255 -0.8148 -1.7690
   39MOL    H40 9996   1.390   6.747   2.706 -1.3363  3.2574 -1.6145
   39MOL    C41 9997   1.291   6.592   2.590  0.2036 -0.2336  0.1036
   39MOL    N42 9998   1.296   6.673   2.471  0.4029  0.2591 -0.0354
   39MOL    C43 9999   1.292   6.634   2.347 -0.2114  0.4193  0.1623
   39MOL    O4410000   1.295   6.515   2.312 -0.2517 -0.0441  0.3346
   39MOL    C4510001   1.284   6.743   2.242  0.8272 -0.0048  0.0818
   39MOL    C4610002   1.159   6.500   2.583 -0.5687 -0.5411 -0.2259
   39MOL    H4710003   1.377   6.527   2.607 -0.0126 -0.3128  0.9236
   39MOL    H4810004   1.299   6.770   2.499 -0.4201  0.2606  0.0721
   39MOL    H4910005   1.343   6.725   2.152 -0.5861  1.5854 -1.2034
   39MOL    H5010006   1.183   6.745   2.200 -0.1666  0.3668  2.4166
   39MOL    H5110007   1.311   6.841   2.279 -0.1313  0.7174 -1.0668
   39MOL    H5210008   1.086   6.542   2.652 -2.2902 -0.4026 -2.0621
   39MOL    H5310009   1.102   6.522   2.493  0.6290 -1.6822 -1.2880
   39MOL    C5410010   1.186   6.350   2.599 -0.3173  0.0278 -0.0288
   39MOL    N5510011   1.297   6.318   2.510  0.2930  0.3020 -0.3227
   39MOL    C5610012   1.381   6.221   2.527 -0.4112 -0.1969 -0.0675
   39MOL    O5710013   1.383   6.145   2.626 -1.1331  0.4118  0.0772
   39MOL    C5810014   1.494   6.197   2.423  0.0930 -0.0569  0.3651
   39MOL    C5910015   1.060   6.265   2.567 -0.4477  0.4294 -0.4866
   39MOL    H6010016   1.210   6.353   2.706 -1.3877 -1.2704  0.2602
   39MOL    H6110017   1.307   6.372   2.426 -2.3314  1.1815 -0.1303
   39MOL    H6210018   1.587   6.218   2.476 -1.8989  1.3372  3.4427
   39MOL    H6310019   1.486   6.093   2.391 -0.1661  0.3676 -0.9829
   39MOL    H6410020   1.486   6.270   2.341  2.0420  1.1644  1.2315
   39MOL    H6510021   1.004   6.312   2.486 -2.6402 -0.5787  0.4000
   39MOL    H6610022   1.096   6.173   2.521  0.1648  1.2051 -1.5782
   39MOL    C6710023   0.978   6.225   2.695  0.7561  0.3942 -0.0526
   39MOL    N6810024   1.059   6.140   2.779 -0.5031 -0.0721 -0.3609
   39MOL    C6910025   1.046   6.103   2.909  0.3162  0.4159  1.1495
   39MOL    O7010026   0.942   6.131   2.977 -0.9243  0.4398 -0.0407
   39MOL    C7110027   1.159   6.016   2.971 -0.4873 -0.2203  0.4050
   39MOL    C7210028   0.846   6.156   2.658  0.1737 -0.0474  0.4628
   39MOL    H7310029   0.951   6.320   2.742  2.1937 -0.4305  2.5419
   39MOL    H7410030   1.151   6.120   2.743  0.2893  1.1931  0.9343
   39MOL    H7510031   1.137   6.006   3.077 -1.9404  0.7759  0.2264
   39MOL    H7610032   1.161   5.913   2.934  1.0391 -0.4957  1.2546
   39MOL    H7710033   1.259   6.057   2.959  0.3207 -2.5864 -1.3969
   39MOL    H7810034   0.868   6.069   2.596 -0.2197  1.7997 -2.3904
   39MOL    H7910035   0.800   6.112   2.747  0.2089 -2.2385 -0.5670
   39MOL    C8010036   0.743   6.248   2.582 -0.4337 -0.8260  0.5785
   39MOL    N8110037   0.707   6.374   2.652 -0.1657 -0.1690 -0.2153
   39MOL    C8210038   0.747   6.498   2.623 -0.0872 -0.5205 -0.4198
   39MOL    O8310039   0.825   6.527   2.534  0.3800  0.2764 -0.7047
   39MOL    C8410040   0.690   6.609   2.710  0.3381  0.6008 -0.5984
   39MOL    C8510041   0.620   6.166   2.545 -0.2447 -0.2689 -1.1268
   39MOL    H8610042   0.786   6.286   2.489 -2.5179 -0.8982 -0.4516
   39MOL    H8710043   0.639   6.362   2.725 -0.7390  0.0131 -0.7097
   39MOL    H8810044   0.701   6.706   2.661  0.2934  0.2425 -1.3343
   39MOL    H8910045   0.583   6.590   2.722  0.8828 -1.5270  1.2692
   39MOL    H9010046   0.740   6.604   2.807 -0.1372 -3.4037 -0.4875
   39MOL    H9110047   0.649   6.064   2.519 -0.3990 -0.4774 -0.4973
   39MOL    H9210048   0.547   6.158   2.625  0.2206 -1.4158 -0.8059
   39MOL    C9310049   0.547   6.235   2.429  0.1928 -0.4470  0.3278
   39MOL    N9410050   0.419   6.169   2.419 -0.0192  0.0435 -0.3850
   39MOL    C9510051   0.304   6.230   2.448  0.6267 -0.0772  1.4728
   39MOL    O9610052   0.301   6.342   2.501 -0.2497  0.2060  0.6347
   39MOL    C9710053   0.180   6.142   2.414  0.5132 -0.3001  0.4855
   39MOL    C9810054   0.621   6.204   2.291  0.5462 -0.0693 -0.6161
   39MOL    H9910055   0.524   6.341   2.434  1.5615 -0.1807  1.6664
   39MOL   H10010056   0.424   6.073   2.388 -3.2436 -1.2532  2.7660
   39MOL   H10110057   0.097   6.172   2.479  1.5619 -0.2279  1.8220
   39MOL   H10210058   0.151   6.157   2.310  1.0276 -2.0893  0.0801
   39MOL   H10310059   0.187   6.035   2.433 -0.2740  0.1929  4.0513
   39MOL   H10410060   0.724   6.207   2.325  0.4677 -1.9142 -0.1494
   39MOL   H10510061   0.609   6.099   2.261  0.9441 -0.4395  0.4997
   39MOL   C10610062   0.604   6.292   2.163 -0.0501 -0.8011  0.0377
   39MOL   N10710063   0.692   6.236   2.064  0.0600  0.1618  0.7596
   39MOL   C10810064   0.661   6.134   1.984  0.7627  0.3316 -0.0280
   39MOL   O10910065   0.567   6.059   2.010  0.4368  0.4144 -0.0490
   39MOL   C11010066   0.751   6.107   1.863 -0.2810  0.2183 -0.2015
   39MOL   C11110067   0.628   6.441   2.185  0.0321 -0.1531  0.2839
   39MOL   H11210068   0.499   6.277   2.139 -0.2651 -2.3912  1.8535
   39MOL   H11310069   0.777   6.283   2.036 -0.6624  0.1968 -1.4764
   39MOL   H11410070   0.793   6.008   1.884 -1.4957 -0.3594 -0.4268
   39MOL   H11510071   0.689   6.092   1.774  0.7488  0.4854 -0.9700
   39MOL   H11610072   0.828   6.181   1.846  1.1286 -1.7609 -2.7921
   39MOL   H11710073   0.542   6.487   2.233  0.8938  0.6569  1.0747
   39MOL   H11810074   0.696   6.447   2.271 -1.5844  1.2556  1.4955
   39MOL   C11910075   0.681   6.527   2.066 -0.2552  0.3621  0.8710
   39MOL   N12010076   0.752   6.647   2.115  0.3214 -0.4282  0.5216
   39MOL   C12110077   0.704   6.747   2.193 -0.2330  0.3193 -0.0101
   39MOL   O12210078   0.586   6.759   2.224  0.0019 -0.7210 -0.4830
   39MOL   C12310079   0.807   6.836   2.257 -0.5040  0.1037 -0.3718
   39MOL   C12410080   0.579   6.557   1.963 -0.1644 -0.3285 -0.4122
   39MOL   H12510081   0.770   6.479   2.025  1.5351  2.8688  1.6623
   39MOL   H12610082   0.848   6.653   2.084 -0.3565 -0.2007 -1.6714
   39MOL   H12710083   0.844   6.901   2.178  0.7353  0.2094  0.3015
   39MOL   H12810084   0.757   6.900   2.329  1.7815  1.6341 -0.1312
   39MOL   H12910085   0.879   6.772   2.307 -1.2979  0.2956  1.0593
   39MOL   H13010086   0.516   6.469   1.956  0.3440 -0.8734  1.4110
   39MOL   H13110087   0.509   6.628   2.008 -0.3041  0.6359 -2.0927
   39MOL   C13210088   0.634   6.605   1.831  0.3692  0.0112  0.8574
   39MOL   N13310089   0.520   6.640   1.739 -0.4758 -0.1594  0.4639
   39MOL   C13410090   0.513   6.749   1.655  0.8066  0.8864 -0.1581
   39MOL   O13510091   0.617   6.816   1.632  0.5446  0.3393 -0.0189
   39MOL   C13610092   0.372   6.788   1.593  0.1949 -0.6348 -0.5272
   39MOL   C13710093   0.721   6.496   1.761 -0.3024  0.2186 -0.0027
   39MOL   H13810094   0.695   6.695   1.841  0.9449 -0.1138 -1.1630
   39MOL   H13910095   0.435   6.585   1.745  0.3061 -1.7264 -2.1448
   39MOL   H14010096   0.283   6.734   1.627 -0.1230 -0.6400 -1.3546
   39MOL   H14110097   0.353   6.891   1.622  1.0840 -0.2636 -1.2438
   39MOL   H14210098   0.372   6.774   1.485  0.4685 -0.6278 -0.5282
   39MOL   H14310099   0.797   6.453   1.826  2.1186  1.8992 -1.6520
   39MOL   H14410100   0.651   6.414   1.744 -0.3413  0.3817 -0.6448
   39MOL   C14510101   0.792   6.527   1.624  0.2838 -0.2441  0.3695
   39MOL   N14610102   0.864   6.412   1.571  0.0618 -0.8846  0.0772
   39MOL   C14710103   0.821   6.294   1.526  0.3808  0.1605  0.7006
   39MOL   O14810104   0.704   6.269   1.500  0.1725 -0.3424 -0.9857
   39MOL   C14910105   0.923   6.187   1.504 -0.7586  0.9246  0.2739
   39MOL   C15010106   0.893   6.649   1.631 -0.4471  0.0650 -0.1380
   39MOL   H15110107   0.724   6.533   1.539  0.9704  2.0433 -0.0598
   39MOL   H15210108   0.961   6.419   1.595 -0.3492  2.8201  0.9199
   39MOL   H15310109   0.892   6.085   1.528  1.2851  0.2484  0.1019
   39MOL   H15410110   0.960   6.179   1.402 -1.6097  0.4056  0.0035
   39MOL   H15510111   0.999   6.216   1.577  0.0259  0.5712 -0.3919
   39MOL   H15610112   0.912   6.683   1.529 -0.5783  0.7776  0.0703
   39MOL   H15710113   0.834   6.728   1.676  1.2716  1.5366 -0.4146
   39MOL   C15810114   1.023   6.623   1.706  0.2765 -0.8296 -0.3786
   39MOL   N15910115   1.050   6.745   1.780  0.5846  0.8136 -0.5683
   39MOL   C16010116   1.031   6.762   1.912  0.3920  0.2475 -0.6266
   39MOL   O16110117   1.001   6.665   1.987  0.1912  0.1508  0.2231
   39MOL   C16210118   1.060   6.904   1.970 -0.2828 -0.1107 -0.1388
   39MOL   C16310119   1.136   6.573   1.610 -0.7878  0.0999 -0.1859
   39MOL   H16410120   1.002   6.547   1.781  0.7521 -1.1751 -0.5948
   39MOL   H16510121   1.091   6.824   1.731  3.1531 -1.7063 -2.6459
   39MOL   H16610122   0.975   6.968   1.945 -0.3636 -0.7067 -1.3920
   39MOL   H16710123   1.054   6.888   2.078 -0.0480  1.4665  0.1167
   39MOL   H16810124   1.155   6.947   1.939  0.7273 -0.4146  2.3903
   39MOL   H16910125   1.103   6.479   1.564 -0.4711  0.3165 -0.8526
   39MOL   H17010126   1.146   6.632   1.520  0.4279  0.0303 -0.1046
   39MOL   C17110127   1.276   6.548   1.675 -0.3279  0.1137  0.1391
   39MOL   N17210128   1.367   6.504   1.566 -0.7111 -0.3655  0.0769
   39MOL   C17310129   1.469   6.564   1.510 -0.8510 -0.0174  0.1516
   39MOL   O17410130   1.494   6.672   1.543  0.0483  0.1816  0.5688
   39MOL   C17510131   1.557   6.492   1.412  0.2009  0.2855  0.0478
   39MOL   C17610132   1.276   6.435   1.783 -0.4095 -0.4178 -0.3636
   39MOL   H17710133   1.306   6.639   1.727  0.5766  0.1226 -0.3838
   39MOL   H17810134   1.352   6.411   1.528  0.4652 -0.1867 -0.8411
   39MOL   H17910135   1.627   6.423   1.458  0.1883  0.4779  0.3540
   39MOL   H18010136   1.491   6.443   1.340 -0.4194 -1.6887  1.9402
   39MOL   H18110137   1.616   6.572   1.367 -2.8365  1.2830 -2.3543
   39MOL   H18210138   1.179   6.401   1.820 -0.5348  0.8260  0.4528
   39MOL   H18310139   1.306   6.345   1.729  1.8794  0.3599 -0.4312
   39MOL   C18410140   1.361   6.454   1.908 -0.4438 -1.5145 -0.0234
   39MOL   N18510141   1.488   6.501   1.868 -0.6715 -0.7941  0.0386
   39MOL   C18610142   1.556   6.613   1.901 -0.0433  0.0954 -0.1740
   39MOL   O18710143   1.523   6.690   1.987 -0.0837  0.1553  0.8806
   39MOL   C18810144   1.688   6.640   1.820  0.1211  0.1339  0.3051
   39MOL   C18910145   1.383   6.330   2.005 -0.2783 -0.0030  0.4113
   39MOL   H19010146   1.296   6.526   1.957 -1.6097 -2.0452 -0.7540
   39MOL   H19110147   1.529   6.453   1.790 -1.1164  1.5477 -1.6850
   39MOL   H19210148   1.735   6.735   1.845  1.8583 -0.8191  0.7157
   39MOL   H19310149   1.770   6.576   1.850  0.1010 -0.0137  0.0505
   39MOL   H19410150   1.660   6.640   1.714 -1.2018  0.4321  0.6354
   39MOL   H19510151   1.462   6.270   1.960  0.3117 -1.4573  3.2900
   39MOL   H19610152   1.434   6.369   2.093  1.3389 -0.9429 -0.0884
   39MOL   C19710153   1.264   6.242   2.054  0.2384  0.0967  0.0361
   39MOL   N19810154   1.175   6.319   2.137  0.0154  0.1232 -0.4079
   39MOL   C19910155   1.046   6.336   2.120  0.3706  0.2959  0.3031
   39MOL   O20010156   0.977   6.278   2.031 -0.3263 -0.6942 -0.5877
   39MOL   C20110157   0.982   6.413   2.234  0.6742  0.4470 -1.0653
   39MOL   C20210158   1.316   6.096   2.099  0.1383  0.8750  0.3405
   39MOL   H20310159   1.207   6.229   1.963 -0.8051 -0.5719  0.7833
   39MOL   H20410160   1.227   6.379   2.200 -1.7177 -0.5961  1.7763
   39MOL   H20510161   0.949   6.515   2.213 -1.6618 -0.4210 -1.8753
   39MOL   H20610162   0.898   6.354   2.271  0.8650  0.3540 -0.7879
   39MOL   H20710163   1.058   6.413   2.311 -1.5633  0.1439  1.2042
   39MOL   H20810164   1.390   6.049   2.034  0.6046 -0.4968  1.8502
   39MOL   H20910165   1.375   6.122   2.187  2.3113  0.2876 -0.9071
   39MOL   C21010166   1.203   5.993   2.121 -0.0018  0.0912 -0.5442
   39MOL   N21110167   1.266   5.869   2.178  0.1544  0.0515 -0.0573
   39MOL   C21210168   1.297   5.848   2.306  0.6139 -0.3240 -0.2039
   39MOL   O21310169   1.283   5.939   2.384 -0.2696  0.4915 -0.3602
   39MOL   C21410170   1.344   5.709   2.346 -0.0810 -0.2183 -0.1356
   39MOL   C21510171   1.121   5.958   2.005 -0.9489  0.6046  0.3910
   39MOL   H21610172   1.135   6.031   2.197  1.1121  0.5791  0.2359
   39MOL   H21710173   1.273   5.791   2.115 -0.6360  0.5487 -0.7619
   39MOL   H21810174   1.452   5.722   2.357 -0.3505  2.9307 -0.6875
   39MOL   H21910175   1.292   5.671   2.434 -0.9876  0.3015 -0.4365
   39MOL   H22010176   1.324   5.641   2.262 -0.3520 -3.0552  2.1561
   39MOL   H22110177   1.061   6.048   1.995 -1.3051  0.2574 -0.7162
   39MOL   H22210178   1.184   5.952   1.916  2.3234 -2.2582  2.7648
   39MOL   C22310179   1.036   5.835   2.029  1.1804  0.3690 -0.3440
   39MOL   N22410180   0.990   5.803   1.887  0.3138  0.3397 -0.5021
   39MOL   C22510181   1.075   5.742   1.802  0.4614  0.1292  0.2974
   39MOL   O22610182   1.173   5.677   1.841  0.2651 -0.2423 -0.4700
   39MOL   C22710183   1.037   5.735   1.655 -0.4699 -0.3982 -0.1438
   39MOL   C22810184   0.915   5.863   2.121  0.3915  0.0997  0.3203
   39MOL   H22910185   1.091   5.750   2.069 -0.2993 -1.3680 -1.8596
   39MOL   H23010186   0.895   5.825   1.859  0.3452  1.4523  0.2488
   39MOL   H23110187   1.123   5.724   1.588 -0.3229 -0.4420  0.0521
   39MOL   H23210188   0.971   5.651   1.636  0.3935 -0.6629 -2.1817
   39MOL   H23310189   0.979   5.825   1.636 -1.1246 -0.9476 -0.7491
   39MOL   H23410190   0.958   5.876   2.220 -0.6424  1.2844  0.6332
   39MOL   H23510191   0.869   5.959   2.094 -1.5554 -0.8797  0.0871
   39MOL   C23610192   0.790   5.767   2.137  0.3333  0.1775 -1.1965
   39MOL   N23710193   0.699   5.794   2.026 -0.1788 -0.7815 -0.1900
   39MOL   C23810194   0.686   5.721   1.918 -0.2207 -0.3894  0.1679
   39MOL   O23910195   0.751   5.619   1.900  0.1074 -0.5277  0.8024
   39MOL   C24010196   0.582   5.767   1.812 -0.0404 -0.2407  0.2391
   39MOL   C24110197   0.711   5.782   2.271  0.0290 -0.9303 -0.4966
   39MOL   H24210198   0.828   5.665   2.128 -0.6592 -0.2420 -0.6843
   39MOL   H24310199   0.631   5.869   2.024  1.0628  0.3704 -3.4959
   39MOL   H24410200   0.533   5.859   1.844 -1.9296 -1.3354  0.5929
   39MOL   H24510201   0.628   5.789   1.716 -2.8167  1.0557 -0.8349
   39MOL   H24610202   0.502   5.694   1.796 -0.4307  0.4936 -1.2041
   39MOL   H24710203   0.772   5.779   2.362  0.1981 -1.1122 -0.6158
   39MOL   H24810204   0.677   5.886   2.273 -0.1158 -0.9953  0.9547
   39MOL   C24910205   0.584   5.691   2.283 -0.0604  0.8407  0.3802
   39MOL   N25010206   0.470   5.727   2.198 -0.3091 -0.3742  0.3405
   39MOL   C25110207   0.379   5.825   2.206  0.2313 -0.9555  0.3891
   39MOL   O25210208   0.373   5.909   2.299  0.5930 -0.0094 -0.2888
   39MOL   C25310209   0.273   5.837   2.103  0.5842  0.2804 -0.1213
   39MOL   C25410210   0.539   5.697   2.430  0.5565 -0.1382 -0.6497
   39MOL   H25510211   0.605   5.586   2.259 -0.8711  0.3616  1.6939
   39MOL   H25610212   0.445   5.652   2.135  0.2296  0.5310 -0.9766
   39MOL   H25710213   0.240   5.939   2.084  0.3262  0.4636  1.2418
   39MOL   H25810214   0.301   5.790   2.009 -0.6289  1.3144 -1.0252
   39MOL   H25910215   0.189   5.779   2.143  0.5379  0.9441  0.7450
   39MOL   H26010216   0.605   5.626   2.479  0.9435 -0.1271 -1.1460
   39MOL   H26110217   0.543   5.799   2.468  3.4099 -0.8748  1.2411
   39MOL   H26210218   0.442   5.650   2.442  0.2859  0.6758  0.4041
   40MOL     C110219   4.719   7.689   2.868  0.5050  0.1966 -0.3895
   40MOL     N210220   4.829   7.670   2.773 -0.4978  0.0401  0.0933
   40MOL     C310221   4.903   7.775   2.735  0.6866 -0.1098 -0.8684
   40MOL     O410222   4.911   0.028   2.811  0.1269  0.0224  0.3405
   40MOL     C510223   4.973   7.784   2.595 -0.5305 -0.4568  0.5299
   40MOL     C610224   4.604   7.777   2.804 -0.8582  0.1122 -0.5413
   40MOL     H710225   4.671   7.596   2.897  1.2114  0.4325  1.5911
   40MOL     H810226   4.834   7.586   2.717  2.1866  1.3481 -1.7341
   40MOL     H910227   4.978   0.046   2.556 -0.1208 -1.1117 -1.1376
   40MOL    H1010228   5.077   7.751   2.589 -0.4450 -0.1412  0.2511
   40MOL    H1110229   4.914   7.731   2.521  0.2575 -2.1852  1.1033
   40MOL    H1210230   4.660   0.005   2.739 -0.8443  0.1995 -0.4395
   40MOL    H1310231   4.534   7.725   2.739 -1.1326 -1.0927  0.6850
   40MOL    H1410232   4.753   7.726   2.965  0.6895 -0.0060 -0.3769
   40MOL    C1510233   4.536   0.039   2.906  0.4491 -0.3827  0.2758
   40MOL    N1610234   4.417   0.092   2.835 -0.1128 -0.2396  0.2389
   40MOL    C1710235   4.295   0.039   2.812 -0.4754  0.0862  0.3836
   40MOL    O1810236   4.259   7.771   2.868  0.0014  0.0728 -0.4437
   40MOL    C1910237   4.194   0.104   2.718  0.0619  0.1367  0.5538
   40MOL    C2010238   4.633   0.156   2.950 -0.1170 -0.2837 -1.2850
   40MOL    H2110239   4.502   7.825   2.995  0.9563  2.8109  2.4833
   40MOL    H2210240   4.427   0.174   2.776 -0.3340  0.2935  0.9431
   40MOL    H2310241   4.213   0.084   2.613  2.1986  1.9765  0.5715
   40MOL    H2410242   4.095   0.062   2.740  0.0128  1.3945  2.8748
   40MOL    H2510243   4.191   0.213   2.723 -0.6800  0.1475 -0.0974
   40MOL    H2610244   4.720   0.105   2.991 -0.9364 -0.9666 -0.3845
   40MOL    H2710245   4.668   0.216   2.866  2.7420 -1.2622 -0.8534
   40MOL    C2810246   4.564   0.251   3.051  0.1003 -0.4988 -0.0367
   40MOL    N2910247   4.480   0.350   2.977  0.5420 -0.4833 -0.0281
   40MOL    C3010248   4.368   0.410   3.023  0.3781 -0.4785 -0.7710
   40MOL    O3110249   4.324   0.399   3.138  0.5359 -0.4343 -0.3669
   40MOL    C3210250   4.289   0.489   2.921  0.6445 -0.3600 -0.0497
   40MOL    C3310251   4.669   0.321   3.143 -0.1213  0.1173 -0.8166
   40MOL    H3410252   4.501   0.197   3.122  1.5943 -1.7376  0.3774
   40MOL    H3510253   4.491   0.350   2.877  0.3468 -1.5443 -0.0520
   40MOL    H3610254   4.219   0.566   2.956  2.0263  1.2575 -0.7778
   40MOL    H3710255   4.360   0.528   2.848  0.8913  1.2580  1.0152
   40MOL    H3810256   4.240   0.405   2.871  0.8340  1.0075 -2.5925
   40MOL    H3910257   4.724   0.393   3.083  0.0068  1.3757  0.7701
   40MOL    H4010258   4.598   0.385   3.196  0.1179  0.3769 -0.8156
   40MOL    C4110259   4.757   0.240   3.243 -0.0285  0.0568  0.8197
   40MOL    N4210260   4.869   0.168   3.175  0.0282 -0.1081 -1.0313
   40MOL    C4310261   4.984   0.233   3.141  0.4245  0.2478  0.0929
   40MOL    O4410262   4.995   0.354   3.130 -0.0449  0.5755 -0.3780
   40MOL    C4510263   5.106   0.141   3.113  0.4318  0.2534 -0.2132
   40MOL    C4610264   4.677   0.128   3.318 -0.6637  0.1805 -0.0467
   40MOL    H4710265   4.798   0.318   3.308 -0.2980 -0.9555  2.2282
   40MOL    H4810266   4.869   0.067   3.173  1.0668 -0.2249  2.0275
   40MOL    H4910267   5.183   0.207   3.074 -1.2578  0.4715 -3.3996
   40MOL    H5010268   5.150   0.076   3.188  0.3271 -1.2287 -1.4138
   40MOL    H5110269   5.076   0.080   3.028 -3.1922  0.2028  1.0192
   40MOL    H5210270   4.611   0.072   3.252 -0.3025 -1.0776  0.6549
   40MOL    H5310271   4.751   0.057   3.356 -0.2747  1.1411  1.0405
   40MOL    C5410272   4.596   0.181   3.440  0.2762 -0.3114  0.7475
   40MOL    N5510273   4.673   0.151   3.565  0.0832  0.5938 -0.2547
   40MOL    C5610274   4.777   0.221   3.616  0.2079  0.7046  0.6696
   40MOL    O5710275   4.838   0.309   3.552 -0.6591 -0.2483  0.2456
   40MOL    C5810276   4.837   0.171   3.745  0.2397  0.4595  0.0956
   40MOL    C5910277   4.462   0.108   3.451 -0.6658  0.1321 -0.3811
   40MOL    H6010278   4.581   0.289   3.435 -0.2188 -0.4695 -2.0035
   40MOL    H6110279   4.657   0.072   3.626  0.6083 -0.1761 -1.0994
   40MOL    H6210280   4.765   0.143   3.822 -0.3978 -1.8631 -1.3030
   40MOL    H6310281   4.909   0.090   3.733  0.1682  0.4835 -0.4917
   40MOL    H6410282   4.889   0.251   3.798  2.7147 -1.8389  1.2544
   40MOL    H6510283   4.423   0.130   3.352  0.1977  1.7365 -0.3816
   40MOL    H6610284   4.485   0.002   3.437 -0.8537  0.0196  0.1586
   40MOL    C6710285   4.369   0.141   3.566  0.1201 -0.2986 -0.5220
   40MOL    N6810286   4.272   0.029   3.567  0.3392 -0.0596 -0.3616
   40MOL    C6910287   4.283   7.756   3.637 -0.7082  0.1715 -0.8458
   40MOL    O7010288   4.223   7.656   3.598  0.0722 -0.4524 -0.0288
   40MOL    C7110289   4.382   7.743   3.746  0.0518  0.1065  0.3809
   40MOL    C7210290   4.296   0.274   3.555  0.0414  0.1399 -0.1851
   40MOL    H7310291   4.422   0.136   3.661 -1.6926 -1.2916  0.4591
   40MOL    H7410292   4.206   0.021   3.491  1.0543 -1.2237 -0.8785
   40MOL    H7510293   4.376   7.824   3.818 -0.8802  0.3644  0.0179
   40MOL    H7610294   4.381   7.641   3.784 -0.2379 -1.4161 -3.4256
   40MOL    H7710295   4.478   7.749   3.694 -0.0124  1.1795  0.3795
   40MOL    H7810296   4.368   0.350   3.524 -1.6894  2.1446  0.5719
   40MOL    H7910297   4.227   0.262   3.472 -0.6371  2.4685  0.0067
   40MOL    C8010298   4.240   0.318   3.693 -0.2692  0.5401  0.0944
   40MOL    N8110299   4.139   0.228   3.747  0.6502 -0.2108 -0.1229
   40MOL    C8210300   4.019   0.200   3.697  0.4977 -0.2038 -0.1169
   40MOL    O8310301   3.984   0.234   3.586  0.0472 -0.8599 -0.2581
   40MOL    C8410302   3.928   0.122   3.787 -0.2212 -0.1695 -0.2053
   40MOL    C8510303   4.192   0.460   3.693  0.4232 -0.5551 -0.1546
   40MOL    H8610304   4.322   0.309   3.765 -1.5547 -0.7804  1.4598
   40MOL    H8710305   4.158   0.197   3.841 -0.2237 -1.2137 -0.2608
   40MOL    H8810306   3.828   0.165   3.798 -1.0690 -1.5208 -2.3292
   40MOL    H8910307   3.924   0.021   3.746 -0.5890 -1.0463  1.9145
   40MOL    H9010308   3.980   0.105   3.882 -0.8708 -0.1400  0.1646
   40MOL    H9110309   4.253   0.517   3.623  2.1574 -1.6799  0.4010
   40MOL    H9210310   4.095   0.471   3.644  0.7792 -0.3348 -0.8229
   40MOL    C9310311   4.184   0.530   3.830  0.6251 -0.1375  1.1124
   40MOL    N9410312   4.075   0.628   3.838  0.0811 -0.2559 -0.3401
   40MOL    C9510313   3.968   0.608   3.917 -0.2334  0.1547 -0.2069
   40MOL    O9610314   3.935   0.495   3.957  0.2334  0.0140  0.1444
   40MOL    C9710315   3.902   0.736   3.964 -0.2864 -0.1078  0.0977
   40MOL    C9810316   4.324   0.593   3.857  0.6017 -0.6186 -0.9089
   40MOL    H9910317   4.169   0.459   3.911 -3.4326 -1.2318 -0.4688
   40MOL   H10010318   4.096   0.724   3.811 -1.1961  0.2337  0.3624
   40MOL   H10110319   3.828   0.702   4.037  0.7973 -1.3254  0.6432
   40MOL   H10210320   3.985   0.786   4.015 -0.2795  0.8403 -0.8261
   40MOL   H10310321   3.857   0.784   3.877 -0.0347  0.9217  0.5335
   40MOL   H10410322   4.397   0.513   3.868 -1.1324 -1.9008  1.7597
   40MOL   H10510323   4.346   0.654   3.769 -0.6985  1.3302  0.0607
   40MOL   C10610324   4.334   0.676   3.987  0.2249  0.5658  0.0235
   40MOL   N10710325   4.459   0.750   3.979 -0.3650  0.4007 -0.0590
   40MOL   C10810326   4.472   0.879   4.017  0.2060  0.1290  0.3413
   40MOL   O10910327   4.386   0.948   4.059  0.2806  0.3108  0.9079
   40MOL   C11010328   4.609   0.943   3.979  0.0458 -0.5596 -0.8307
   40MOL   C11110329   4.325   0.578   4.106 -0.4613  0.5642  0.0506
   40MOL   H11210330   4.249   0.743   3.998  0.3787  0.7243  0.2488
   40MOL   H11310331   4.534   0.698   3.935 -0.4956  0.4232 -0.3092
   40MOL   H11410332   4.633   1.036   4.031 -0.9001 -0.9183  0.2854
   40MOL   H11510333   4.695   0.877   3.993  1.7095  1.8569  0.8096
   40MOL   H11610334   4.593   0.978   3.877  0.6405 -2.1831 -1.4983
   40MOL   H11710335   4.239   0.513   4.095  0.5179 -0.9459  1.0869
   40MOL   H11810336   4.418   0.520   4.107 -0.0754  0.8602 -5.7950
   40MOL   C11910337   4.329   0.623   4.255 -0.3564 -0.7449  0.2122
   40MOL   N12010338   4.462   0.674   4.304  0.0464 -0.0673  0.0993
   40MOL   C12110339   4.567   0.603   4.349 -0.5894  0.1993  0.2528
   40MOL   O12210340   4.572   0.482   4.348 -0.1856  0.2712 -0.2852
   40MOL   C12310341   4.691   0.677   4.398 -0.2865  0.1157  0.2067
   40MOL   C12410342   4.271   0.511   4.343 -0.5584 -0.2185  0.1093
   40MOL   H12510343   4.263   0.709   4.267 -0.6952 -0.8528 -0.8376
   40MOL   H12610344   4.467   0.774   4.315  1.4451 -0.1924  0.6871
   40MOL   H12710345   4.669   0.746   4.480  2.5976  1.7229 -0.3052
   40MOL   H12810346   4.763   0.609   4.445  2.2907  0.4232 -3.1047
   40MOL   H12910347   4.746   0.714   4.312  0.5760 -2.1051 -0.2379
   40MOL   H13010348   4.299   0.414   4.302  0.2138 -0.6164  1.5143
   40MOL   H13110349   4.322   0.509   4.440 -0.7845 -2.9809  0.2117
   40MOL   C13210350   4.124   0.510   4.369 -0.1950  0.1084  0.3093
   40MOL   N13310351   4.079   0.619   4.459 -0.4309 -0.2105 -0.5506
   40MOL   C13410352   3.996   0.715   4.419  0.1909  0.1652  0.3896
   40MOL   O13510353   3.946   0.722   4.304  0.3688  0.2015 -0.1516
   40MOL   C13610354   3.967   0.829   4.517  0.5729 -0.1207  0.1759
   40MOL   C13710355   4.088   0.380   4.440 -0.0417  0.6831  0.4342
   40MOL   H13810356   4.079   0.528   4.272  0.0772  1.4256  0.4117
   40MOL   H13910357   4.126   0.628   4.548 -0.4570  3.3323 -0.8221
   40MOL   H14010358   3.962   0.791   4.619  1.7051 -0.2255  0.2040
   40MOL   H14110359   4.048   0.902   4.520  1.1102 -0.7207  0.7557
   40MOL   H14210360   3.874   0.876   4.486 -0.2280 -0.1471  2.4560
   40MOL   H14310361   4.178   0.331   4.479  0.1123  0.3948 -0.2772
   40MOL   H14410362   4.025   0.398   4.527  1.8815  0.0062  1.9990
   40MOL   C14510363   4.016   0.282   4.336 -0.4178  0.6314  0.5842
   40MOL   N14610364   3.903   0.350   4.264  0.1011  0.2069  0.9539
   40MOL   C14710365   3.785   0.373   4.314  0.0479 -0.5275  0.3674
   40MOL   O14810366   3.736   0.332   4.421 -0.6504  0.2121 -0.6904
   40MOL   C14910367   3.699   0.472   4.228  0.7806  0.1326  0.7159
   40MOL   C15010368   3.996   0.140   4.393 -0.5044 -0.1465 -0.1518
   40MOL   H15110369   4.091   0.276   4.257 -2.4385 -1.2475 -1.2516
   40MOL   H15210370   3.928   0.386   4.173 -0.8174 -0.7778  0.2956
   40MOL   H15310371   3.723   0.576   4.250  1.7527  0.1115 -0.2149
   40MOL   H15410372   3.709   0.441   4.124  0.3114  2.9911 -0.2484
   40MOL   H15510373   3.596   0.454   4.260  0.6857 -1.8495 -0.6287
   40MOL   H15610374   4.097   0.103   4.408 -0.5066  0.1300  0.5654
   40MOL   H15710375   3.951   0.137   4.492 -1.2809  0.5429 -0.4756
   40MOL   C15810376   3.921   0.051   4.294  0.0889  0.6311  0.1776
   40MOL   N15910377   3.890   7.762   4.363  0.1841  0.2528  0.8127
   40MOL   C16010378   3.780   7.687   4.326 -1.1371  0.2152  0.3955
   40MOL   O16110379   3.724   7.698   4.219  0.1066 -0.4082 -0.4057
   40MOL   C16210380   3.745   7.580   4.423  0.3146  0.4138 -0.0828
   40MOL   C16310381   3.969   0.038   4.152 -0.2802 -0.4290 -0.7973
   40MOL   H16410382   3.820   0.092   4.283  0.6639  1.9578 -0.2677
   40MOL   H16510383   3.931   7.742   4.453  0.9565 -1.1166  0.1681
   40MOL   H16610384   3.640   7.585   4.455 -0.6621 -3.7398 -2.3192
   40MOL   H16710385   3.762   7.482   4.380  0.1726 -0.1177  1.0466
   40MOL   H16810386   3.809   7.586   4.511 -1.0391 -2.5340  1.1617
   40MOL   H16910387   3.886   0.003   4.091 -1.0421  0.4508 -0.2779
   40MOL   H17010388   3.991   0.136   4.110 -0.7378  0.2806  0.5797
   40MOL   C17110389   4.097   7.796   4.139  0.6401  0.1881  0.0989
   40MOL   N17210390   4.222   0.027   4.181 -0.0954  0.1255  0.4528
   40MOL   C17310391   4.270   0.134   4.113 -0.7800 -0.9354 -0.0692
   40MOL   O17410392   4.216   0.196   4.017 -0.6942 -0.0526  0.3464
   40MOL   C17510393   4.407   0.185   4.166 -0.1347  0.9989  0.1572
   40MOL   C17610394   4.120   7.712   4.007 -0.5323  0.2056  0.1354
   40MOL   H17710395   4.091   7.719   4.217 -1.9103  1.3456  1.0895
   40MOL   H17810396   4.294   7.827   4.240  1.7818  2.5520 -0.1549
   40MOL   H17910397   4.490   0.117   4.143 -1.6661 -0.4300 -1.2807
   40MOL   H18010398   4.438   0.285   4.136 -2.3501  1.7287  0.2371
   40MOL   H18110399   4.397   0.194   4.274 -0.5794  2.4621  0.0083
   40MOL   H18210400   4.127   7.788   3.929  0.7980  0.5754  0.5950
   40MOL   H18310401   4.222   7.673   4.005 -0.7881 -0.4281 -1.6646
   40MOL   C18410402   4.033   7.592   3.962 -0.3391 -1.0216 -0.7075
   40MOL   N18510403   4.112   7.497   3.881  0.0360  0.7414  0.2654
   40MOL   C18610404   4.207   7.413   3.933 -0.4040  0.6219  0.6142
   40MOL   O18710405   4.250   7.423   4.046  0.3367 -0.5783 -0.7655
   40MOL   C18810406   4.249   7.294   3.850 -0.3513  0.2718 -0.1574
   40MOL   C18910407   3.892   7.633   3.888 -0.5846  0.5891  0.5656
   40MOL   H19010408   4.007   7.534   4.051  1.4279 -0.1928  0.3762
   40MOL   H19110409   4.078   7.469   3.789  0.5258  1.6975 -0.2098
   40MOL   H19210410   4.269   7.209   3.915  3.0956  0.6814 -0.5543
   40MOL   H19310411   4.160   7.270   3.792 -0.3997  0.4555 -0.1573
   40MOL   H19410412   4.337   7.319   3.790  2.1704  0.0860  3.3037
   40MOL   H19510413   3.854   7.730   3.918 -0.7268  0.9147 -0.6475
   40MOL   H19610414   3.920   7.627   3.783 -0.5230 -1.4843  0.6786
   40MOL   C19710415   3.781   7.527   3.899 -0.0127  0.1167 -0.0487
   40MOL   N19810416   3.822   7.407   3.836  0.4450  1.2134  0.4973
   40MOL   C19910417   3.782   7.289   3.888 -0.2362  0.0199  0.5023
   40MOL   O20010418   3.708   7.285   3.985  0.3481  0.0733  0.4027
   40MOL   C20110419   3.837   7.167   3.822  0.3645  0.4520 -0.3427
   40MOL   C20210420   3.645   7.572   3.848 -0.6268  0.1220  0.0624
   40MOL   H20310421   3.772   7.505   4.005 -0.4066  0.5936  0.0190
   40MOL   H20410422   3.885   7.408   3.758  0.0887  3.8816  0.2025
   40MOL   H20510423   3.925   7.176   3.759  0.9210 -1.4998  0.1239
   40MOL   H20610424   3.866   7.092   3.895 -3.8887 -3.3073 -2.2471
   40MOL   H20710425   3.757   7.126   3.760 -0.2095 -1.8662  1.8280
   40MOL   H20810426   3.662   7.605   3.746 -0.2825 -2.4752 -0.7532
   40MOL   H20910427   3.578   7.487   3.844  0.4335 -0.8699  2.3208
   40MOL   C21010428   3.550   7.666   3.925  0.1924  0.2312 -0.3502
   40MOL   N21110429   3.617   7.792   3.973  0.1822 -0.2856  0.1588
   40MOL   C21210430   3.588   0.078   3.933  0.1460  0.3445  0.2409
   40MOL   O21310431   3.518   0.108   3.833 -0.2299  0.2427  0.0049
   40MOL   C21410432   3.651   0.186   4.024  0.1970  0.0884  0.4741
   40MOL   C21510433   3.468   7.608   4.044 -0.1197  0.1194 -0.3698
   40MOL   H21610434   3.473   7.690   3.852  1.4064  1.8519 -1.1544
   40MOL   H21710435   3.682   7.777   4.048 -0.7245 -0.9940  0.8099
   40MOL   H21810436   3.606   0.278   3.985 -0.5260 -1.7857 -3.3547
   40MOL   H21910437   3.615   0.163   4.124  1.5789 -2.5023  0.4300
   40MOL   H22010438   3.758   0.200   4.006  0.5000 -1.9160  0.6099
   40MOL   H22110439   3.532   7.538   4.097  0.2335 -0.2701 -1.3075
   40MOL   H22210440   3.460   7.691   4.115 -1.5163 -0.1293 -0.2134
   40MOL   C22310441   3.322   7.544   4.007 -0.0512 -0.3717 -0.8579
   40MOL   N22410442   3.224   7.577   4.116 -0.0641  0.5300  0.7610
   40MOL   C22510443   3.236   7.565   4.246  0.5476 -0.1005 -0.2917
   40MOL   O22610444   3.340   7.537   4.298 -0.6754 -0.0493 -0.2752
   40MOL   C22710445   3.113   7.597   4.330  0.2161 -0.0454 -0.0424
   40MOL   C22810446   3.319   7.401   3.963  0.5495  0.5690 -0.7115
   40MOL   H22910447   3.287   7.607   3.925  1.2570  0.7536 -0.5814
   40MOL   H23010448   3.133   7.604   4.082 -0.1320  0.2471  0.7150
   40MOL   H23110449   3.049   7.509   4.341 -0.6046  0.2822 -2.1028
   40MOL   H23210450   3.153   7.629   4.427 -0.7308  2.2795 -0.4048
   40MOL   H23310451   3.063   7.687   4.297 -1.6451 -0.5829  1.2365
   40MOL   H23410452   3.347   7.400   3.858 -0.4819 -1.7945 -0.9839
   40MOL   H23510453   3.397   7.347   4.018 -0.7784 -0.3120  0.3259
   40MOL   C23610454   3.190   7.312   3.988 -0.0621  0.0243 -0.0916
   40MOL   N23710455   3.231   7.178   3.964  0.7609 -0.0438 -0.4060
   40MOL   C23810456   3.230   7.090   4.054  0.4499 -0.2343  0.2892
   40MOL   O23910457   3.199   7.114   4.169 -0.2219  0.4572 -0.1383
   40MOL   C24010458   3.265   6.947   4.010  0.6714 -0.2384  0.4322
   40MOL   C24110459   3.082   7.350   3.882 -0.6623  0.2617  0.1121
   40MOL   H24210460   3.161   7.333   4.091  0.8557 -0.4947  0.2780
   40MOL   H24310461   3.268   7.145   3.877  0.5897  2.3371 -1.4219
   40MOL   H24410462   3.369   6.940   3.978  0.1951  1.6735 -1.5493
   40MOL   H24510463   3.263   6.882   4.098  0.1926 -0.0819  0.5397
   40MOL   H24610464   3.197   6.892   3.945 -1.0765  0.5004  1.6063
   40MOL   H24710465   3.061   7.454   3.905  0.5600  0.8674 -1.3601
   40MOL   H24810466   3.119   7.353   3.779  0.5546  1.1453  0.5714
   40MOL   C24910467   2.956   7.251   3.870  0.4340  0.7182  0.1472
   40MOL   N25010468   2.989   7.136   3.784 -0.7191  0.0770  0.3762
   40MOL   C25110469   2.944   7.015   3.784 -0.0787  0.4237  0.3056
   40MOL   O25210470   2.853   6.975   3.850 -0.1676 -0.3165  0.0564
   40MOL   C25310471   3.006   6.916   3.684  0.4431  0.6866 -0.1719
   40MOL   C25410472   2.825   7.319   3.819 -0.0758  0.0394  0.3799
   40MOL   H25510473   2.937   7.207   3.967 -0.4057  0.7202 -0.0115
   40MOL   H25610474   3.076   7.140   3.731  1.0258 -1.7740  2.9900
   40MOL   H25710475   3.015   6.828   3.748 -0.3915  1.7143  1.3961
   40MOL   H25810476   2.948   6.891   3.595  0.9751 -0.2971 -0.2540
   40MOL   H25910477   3.097   6.967   3.654  1.3832 -0.0642  1.3070
   40MOL   H26010478   2.747   7.244   3.817 -0.3800  0.3596  0.0773
   40MOL   H26110479   2.812   7.395   3.897 -1.3494  0.9248 -0.6794
   40MOL   H26210480   2.846   7.365   3.722 -0.1693 -1.2095 -0.2317
   41MOL     C110481   5.805   3.462   2.339 -0.1701 -0.1724 -0.5871
   41MOL     N210482   5.753   3.519   2.462  0.3688  0.5006 -0.0869
   41MOL     C310483   5.781   3.458   2.577 -0.1230  0.9194  0.1962
   41MOL     O410484   5.862   3.364   2.584 -0.1459  0.0060  0.2610
   41MOL     C510485   5.716   3.518   2.703 -0.2500  0.4782 -0.0392
   41MOL     C610486   5.693   3.394   2.260 -0.1365 -0.1583  0.1216
   41MOL     H710487   5.845   3.541   2.276  2.3778 -0.6201  0.4213
   41MOL     H810488   5.700   3.605   2.460  1.8944  1.5600  3.0015
   41MOL     H910489   5.642   3.596   2.687 -0.5186  0.3584  0.6016
   41MOL    H1010490   5.666   3.439   2.758  1.9868 -1.2986 -0.4927
   41MOL    H1110491   5.793   3.574   2.758 -2.6830  0.6056  3.3982
   41MOL    H1210492   5.654   3.311   2.319  0.0991 -1.0339 -0.9418
   41MOL    H1310493   5.610   3.461   2.237  0.4825  0.5073 -0.2163
   41MOL    H1410494   5.888   3.393   2.354 -0.7953 -0.2675  2.8544
   41MOL    C1510495   5.734   3.325   2.130  0.2118  0.4596 -0.7200
   41MOL    N1610496   5.775   3.418   2.024  0.3520 -0.3801 -0.3589
   41MOL    C1710497   5.887   3.435   1.958  0.3447  0.0731  0.3157
   41MOL    O1810498   5.986   3.386   2.001 -0.8361  0.0474  0.1958
   41MOL    C1910499   5.891   3.514   1.822 -0.0397 -0.1209 -1.3299
   41MOL    C2010500   5.628   3.222   2.065  0.0510 -0.1251 -0.2408
   41MOL    H2110501   5.820   3.269   2.166  0.4310 -0.4365 -2.5616
   41MOL    H2210502   5.695   3.471   1.992  0.6042  1.1731  1.4874
   41MOL    H2310503   5.813   3.481   1.754 -0.3188 -0.6794 -0.7521
   41MOL    H2410504   5.882   3.622   1.833  0.2476 -0.3709  1.9595
   41MOL    H2510505   5.988   3.497   1.774  0.3034 -0.4823 -0.5275
   41MOL    H2610506   5.597   3.158   2.148 -3.9908  2.0558  0.0336
   41MOL    H2710507   5.533   3.272   2.046 -1.3929 -1.7593  2.3063
   41MOL    C2810508   5.670   3.128   1.953 -0.2680 -0.4211  1.1727
   41MOL    N2910509   5.552   3.059   1.893  0.1442 -0.1545 -0.1585
   41MOL    C3010510   5.538   3.047   1.759 -0.6273  0.3514 -0.2918
   41MOL    O3110511   5.603   3.110   1.675  0.1079 -0.3397 -0.4639
   41MOL    C3210512   5.443   2.938   1.713 -0.6347 -0.7761  0.3903
   41MOL    C3310513   5.767   3.018   2.006 -0.5756 -0.1014 -0.8630
   41MOL    H3410514   5.723   3.184   1.875 -0.3733 -0.0235  1.3849
   41MOL    H3510515   5.486   3.008   1.950  1.0752 -0.4045  0.7217
   41MOL    H3610516   5.494   2.841   1.712 -0.2144 -0.5613  0.8771
   41MOL    H3710517   5.358   2.927   1.780 -0.5807 -0.6722  0.4760
   41MOL    H3810518   5.410   2.947   1.609 -1.8670 -0.2929  0.8197
   41MOL    H3910519   5.736   2.990   2.107  2.5680  0.0112  0.1932
   41MOL    H4010520   5.756   2.926   1.949 -0.1977 -1.7793  1.7217
   41MOL    C4110521   5.919   3.054   2.010  0.7253  0.6131  0.7706
   41MOL    N4210522   5.960   3.126   1.884 -0.2207 -0.0089 -0.3066
   41MOL    C4310523   5.965   3.073   1.760 -0.1305  0.1283  0.5058
   41MOL    O4410524   5.944   2.952   1.736 -0.1312  0.7481 -0.0905
   41MOL    C4510525   6.011   3.164   1.646  0.3323  0.6945  0.4824
   41MOL    C4610526   6.002   2.925   2.040  0.0699  0.5405  0.9384
   41MOL    H4710527   5.940   3.129   2.086  0.2191  1.2517  0.2851
   41MOL    H4810528   5.947   3.226   1.892 -1.9364  0.0071 -2.7905
   41MOL    H4910529   5.973   3.112   1.558 -1.5343 -2.1614  2.8887
   41MOL    H5010530   5.972   3.266   1.650  0.4825  0.8827 -1.9748
   41MOL    H5110531   6.119   3.173   1.652  0.4174 -1.2350  2.5315
   41MOL    H5210532   5.978   2.839   1.977  1.3700  1.1755 -0.4601
   41MOL    H5310533   6.105   2.955   2.020 -0.7643  1.2455 -2.6467
   41MOL    C5410534   5.998   2.874   2.188 -0.0376 -0.1047 -1.6455
   41MOL    N5510535   6.035   2.974   2.281  1.3154 -0.2181  0.3638
   41MOL    C5610536   5.942   3.020   2.369 -0.1019  0.5805  0.4533
   41MOL    O5710537   5.816   3.010   2.354 -0.4380 -0.1933 -0.2285
   41MOL    C5810538   5.997   3.097   2.490 -0.0800 -0.6171 -0.9794
   41MOL    C5910539   6.100   2.753   2.195  0.6410 -0.0335  0.1608
   41MOL    H6010540   5.896   2.840   2.204  0.5206 -0.7225  0.7715
   41MOL    H6110541   6.132   2.995   2.301  0.4689  2.2528  2.0720
   41MOL    H6210542   5.962   3.198   2.467  1.0437  0.1657  0.6448
   41MOL    H6310543   5.960   3.062   2.586 -2.7622  1.2991 -1.2590
   41MOL    H6410544   6.106   3.093   2.482 -0.0999 -1.7474 -0.6499
   41MOL    H6510545   6.054   2.677   2.132  1.0470 -1.7365  1.8593
   41MOL    H6610546   6.198   2.769   2.151  0.7421  0.3753  0.5295
   41MOL    C6710547   6.124   2.671   2.330 -0.3931  0.0595  0.1334
   41MOL    N6810548   6.207   2.558   2.294 -0.4386 -0.0801 -0.4362
   41MOL    C6910549   6.187   2.449   2.216 -0.1324 -0.5311 -0.1474
   41MOL    O7010550   6.081   2.422   2.164  0.6403 -0.0862  0.1297
   41MOL    C7110551   6.307   2.354   2.199  0.3372 -0.5163  0.5711
   41MOL    C7210552   5.993   2.631   2.407  0.2735  0.0045  0.7975
   41MOL    H7310553   6.187   2.736   2.391 -0.5042  0.1118  0.1916
   41MOL    H7410554   6.295   2.575   2.340 -0.9736  1.0783  0.1945
   41MOL    H7510555   6.406   2.397   2.182  1.2299 -2.6520  0.1985
   41MOL    H7610556   6.312   2.286   2.284  0.6454  0.1357  1.0798
   41MOL    H7710557   6.291   2.291   2.111 -2.6057  0.1479  0.5830
   41MOL    H7810558   5.949   2.723   2.445  0.9607  0.7352 -0.1626
   41MOL    H7910559   5.919   2.592   2.337  1.4541 -2.4141  0.8563
   41MOL    C8010560   6.009   2.533   2.525 -0.4143  0.0063  0.7129
   41MOL    N8110561   5.888   2.557   2.591  0.4711 -0.4296  0.3231
   41MOL    C8210562   5.807   2.454   2.624 -0.1800  0.1436 -0.3810
   41MOL    O8310563   5.823   2.346   2.582 -0.1444 -0.6845 -0.2175
   41MOL    C8410564   5.682   2.481   2.713 -0.3153  0.0308  0.0857
   41MOL    C8510565   6.134   2.549   2.613  0.0292 -0.0349 -0.2711
   41MOL    H8610566   6.016   2.431   2.486 -0.3666  0.5756 -0.8070
   41MOL    H8710567   5.874   2.649   2.629 -2.0401  0.1693 -1.9537
   41MOL    H8810568   5.685   2.580   2.757  1.9116  0.2491 -0.4868
   41MOL    H8910569   5.594   2.465   2.650  1.0699 -0.6199 -1.7526
   41MOL    H9010570   5.692   2.406   2.791 -0.1803  1.4712  1.4831
   41MOL    H9110571   6.214   2.514   2.548 -0.1283 -2.9183  1.0258
   41MOL    H9210572   6.141   2.652   2.647 -0.8179 -0.2872  0.6874
   41MOL    C9310573   6.134   2.456   2.741  0.1357  0.7296  0.2859
   41MOL    N9410574   6.224   2.502   2.849 -0.3057  0.0545  0.6575
   41MOL    C9510575   6.335   2.566   2.839 -0.1924  0.4213 -0.3911
   41MOL    O9610576   6.389   2.589   2.734  0.0045 -0.1875 -0.2911
   41MOL    C9710577   6.402   2.623   2.965 -0.0033 -0.1073 -0.4808
   41MOL    C9810578   6.146   2.300   2.717  0.2894  0.1799  0.7604
   41MOL    H9910579   6.034   2.466   2.783 -0.6253 -1.2719 -1.0083
   41MOL   H10010580   6.189   2.489   2.943  0.0498  0.8118  0.9057
   41MOL   H10110581   6.479   2.696   2.941 -0.1336  0.0941 -0.2863
   41MOL   H10210582   6.327   2.673   3.027  0.0869 -1.4172  0.6998
   41MOL   H10310583   6.442   2.542   3.026  0.5621  0.7540  0.3076
   41MOL   H10410584   6.053   2.276   2.666 -0.7631  1.3734  2.0813
   41MOL   H10510585   6.229   2.263   2.657 -0.5216 -0.7418  0.1949
   41MOL   C10610586   6.149   2.202   2.834 -0.0265  0.4350 -0.2709
   41MOL   N10710587   6.273   2.220   2.915 -0.3081  0.5904  0.2670
   41MOL   C10810588   6.290   2.183   3.043  0.1255  0.6771 -0.4093
   41MOL   O10910589   6.208   2.112   3.102  0.5614 -0.5578 -0.0416
   41MOL   C11010590   6.425   2.216   3.109  0.0089  0.5038 -0.2989
   41MOL   C11110591   6.133   2.049   2.798  0.2855 -0.9696  0.4390
   41MOL   H11210592   6.064   2.220   2.900 -0.7937 -0.5204 -0.9760
   41MOL   H11310593   6.345   2.274   2.869 -1.0375  2.9040  1.7553
   41MOL   H11410594   6.422   2.197   3.216  0.9783  0.9825 -0.1790
   41MOL   H11510595   6.506   2.151   3.075 -0.2222 -0.1741  0.4270
   41MOL   H11610596   6.435   2.322   3.085 -1.5716  0.2572 -2.1899
   41MOL   H11710597   6.109   2.003   2.894 -0.1326  0.4318  1.0126
   41MOL   H11810598   6.052   2.029   2.728  2.0634 -1.8846 -1.4085
   41MOL   C11910599   6.266   1.968   2.770  0.2372  0.7068  0.3632
   41MOL   N12010600   6.340   2.025   2.651  0.1294  0.6613  0.5210
   41MOL   C12110601   6.471   2.055   2.653  0.1424 -0.6374  0.3510
   41MOL   O12210602   6.550   2.018   2.735 -0.2587  0.4803 -0.4050
   41MOL   C12310603   6.528   2.144   2.543  0.4779 -0.4012 -0.0019
   41MOL   C12410604   6.255   1.813   2.755  0.1308 -0.3134 -0.6223
   41MOL   H12510605   6.326   1.994   2.857  1.3847 -1.4753  0.2573
   41MOL   H12610606   6.279   2.036   2.571  0.1387  0.3730  0.4712
   41MOL   H12710607   6.633   2.127   2.521  0.2168 -1.0984 -0.7681
   41MOL   H12810608   6.463   2.133   2.456  0.0131  0.9767  0.1588
   41MOL   H12910609   6.510   2.247   2.575 -1.8598 -1.4079  2.0959
   41MOL   H13010610   6.194   1.786   2.669 -0.7432 -1.1994  0.2556
   41MOL   H13110611   6.355   1.777   2.732  1.6378  3.7132 -0.7481
   41MOL   C13210612   6.194   1.744   2.882 -0.4478  0.5655  0.7714
   41MOL   N13310613   6.262   1.621   2.898 -0.2070  0.1191 -0.0715
   41MOL   C13410614   6.301   1.563   3.019 -0.4144 -0.3838  0.0400
   41MOL   O13510615   6.292   1.617   3.127 -0.2005 -0.4583  0.5996
   41MOL   C13610616   6.359   1.424   3.006 -0.1327 -0.4528 -0.6073
   41MOL   C13710617   6.044   1.735   2.875 -0.8341 -0.5397 -0.2940
   41MOL   H13810618   6.227   1.815   2.958  0.0382  3.2265 -1.8160
   41MOL   H13910619   6.258   1.560   2.818 -0.7811  1.6397 -1.2333
   41MOL   H14010620   6.453   1.418   2.951 -1.5976  0.8776 -3.2967
   41MOL   H14110621   6.367   1.380   3.106  1.4103  0.3319 -0.3695
   41MOL   H14210622   6.300   1.368   2.934  1.7981 -0.6275 -2.1055
   41MOL   H14310623   6.000   1.829   2.906  0.9452 -0.0147  0.7151
   41MOL   H14410624   6.009   1.715   2.774 -1.2000  0.5568 -0.3930
   41MOL   C14510625   5.979   1.618   2.961 -0.0453 -0.5552  0.2310
   41MOL   N14610626   5.840   1.611   2.917 -0.3936 -0.0293  0.4728
   41MOL   C14710627   5.789   1.533   2.824  0.6432  0.0358 -1.0460
   41MOL   O14810628   5.666   1.522   2.825 -0.1918 -0.1505  0.0039
   41MOL   C14910629   5.866   1.443   2.725  0.3632 -0.2402  0.1654
   41MOL   C15010630   5.967   1.642   3.118 -0.7141 -0.1359  0.3224
   41MOL   H15110631   6.030   1.524   2.936 -0.5843 -1.3787  2.1031
   41MOL   H15210632   5.767   1.662   2.965 -1.6579 -0.5007 -0.8980
   41MOL   H15310633   5.921   1.506   2.654 -1.2269 -0.0511 -0.9171
   41MOL   H15410634   5.947   1.380   2.760 -0.0048 -0.6727  0.2382
   41MOL   H15510635   5.799   1.377   2.669 -0.8671  1.3836 -0.3077
   41MOL   H15610636   6.058   1.695   3.148  0.7743 -0.6296 -3.0634
   41MOL   H15710637   5.893   1.720   3.135  0.0247  0.2070  2.0725
   41MOL   C15810638   5.970   1.518   3.206 -0.7023 -0.0186 -1.1418
   41MOL   N15910639   5.944   1.390   3.134 -0.4518  0.3758  0.4465
   41MOL   C16010640   6.019   1.289   3.134  0.2257  0.8937 -0.2479
   41MOL   O16110641   6.120   1.275   3.207  0.4089 -0.5542  0.2491
   41MOL   C16210642   5.980   1.173   3.041 -0.7185  0.3546  0.2197
   41MOL   C16310643   5.876   1.516   3.328  0.0563  0.4433  0.2650
   41MOL   H16410644   6.072   1.506   3.241 -0.7911  3.3338  0.4266
   41MOL   H16510645   5.870   1.384   3.066  0.7281 -1.1549 -0.7371
   41MOL   H16610646   5.877   1.149   3.065 -1.0729  0.5608 -1.0461
   41MOL   H16710647   5.981   1.208   2.938  0.7682  1.8365  0.7097
   41MOL   H16810648   6.043   1.087   3.059 -1.4128  0.1622  1.7832
   41MOL   H16910649   5.861   1.616   3.368 -1.8708 -0.1582  1.1074
   41MOL   H17010650   5.775   1.498   3.290  0.9975 -0.9462 -1.6625
   41MOL   C17110651   5.908   1.415   3.448  0.3636  0.5242 -0.4513
   41MOL   N17210652   5.784   1.377   3.517 -0.1468 -0.1787  0.0912
   41MOL   C17310653   5.707   1.450   3.599 -0.5058  0.1755  0.0460
   41MOL   O17410654   5.730   1.557   3.651 -0.1371  0.5120 -0.0073
   41MOL   C17510655   5.575   1.372   3.627  0.7925 -0.7441  0.0047
   41MOL   C17610656   6.015   1.444   3.559 -1.2371  0.2641 -0.9134
   41MOL   H17710657   5.931   1.323   3.395  2.2889  1.2042 -0.8329
   41MOL   H17810658   5.759   1.281   3.497  0.3845 -0.3999  0.4658
   41MOL   H17910659   5.521   1.362   3.533  0.4080 -0.1810  0.1638
   41MOL   H18010660   5.576   1.275   3.677 -0.8765 -0.6272  0.2675
   41MOL   H18110661   5.513   1.444   3.680 -1.4396 -1.6896 -1.2845
   41MOL   H18210662   5.990   1.538   3.606  1.5069  1.5201 -1.8406
   41MOL   H18310663   6.000   1.362   3.629 -2.5646 -0.0120 -1.5093
   41MOL   C18410664   6.163   1.439   3.504  0.7538 -0.0727  0.1889
   41MOL   N18510665   6.210   1.301   3.479  0.1220 -0.4468  0.1107
   41MOL   C18610666   6.223   1.197   3.564 -0.1380  0.0534 -0.4593
   41MOL   O18710667   6.226   1.207   3.687 -0.2773  0.0426  0.0113
   41MOL   C18810668   6.240   1.062   3.499  0.2808  0.7284  0.6062
   41MOL   C18910669   6.249   1.501   3.614  0.4435  0.0691 -0.5164
   41MOL   H19010670   6.185   1.504   3.419  1.7646 -1.7285 -0.8480
   41MOL   H19110671   6.201   1.273   3.383  0.4614 -3.8569  1.0092
   41MOL   H19210672   6.320   1.007   3.548  1.7149  0.8772 -1.4962
   41MOL   H19310673   6.138   1.026   3.512  1.2282 -1.6624  1.5625
   41MOL   H19410674   6.260   1.070   3.392  1.3542 -1.6119  0.6116
   41MOL   H19510675   6.223   1.465   3.713 -0.5429 -0.3276 -0.9154
   41MOL   H19610676   6.357   1.485   3.605  0.3898 -0.9005  0.4787
   41MOL   C19710677   6.250   1.659   3.618 -0.3791  0.1351  0.3304
   41MOL   N19810678   6.286   1.715   3.488 -0.2854 -0.3426  0.5559
   41MOL   C19910679   6.240   1.829   3.435  0.1012  0.6268 -0.3120
   41MOL   O20010680   6.160   1.909   3.481 -0.6243  0.2050 -0.0880
   41MOL   C20110681   6.291   1.866   3.297 -0.7180  0.2401 -0.0899
   41MOL   C20210682   6.348   1.719   3.719 -0.0751  0.1156  0.0691
   41MOL   H20310683   6.151   1.691   3.650 -0.1516  1.3255 -0.1292
   41MOL   H20410684   6.347   1.653   3.437  1.1560  0.9356  0.6873
   41MOL   H20510685   6.213   1.880   3.222 -0.9916  1.7976  0.4535
   41MOL   H20610686   6.325   1.970   3.300 -0.0013  0.0313 -0.8068
   41MOL   H20710687   6.372   1.804   3.258 -1.5587 -1.5026  0.8902
   41MOL   H20810688   6.428   1.646   3.712 -1.5588 -1.3156 -2.6300
   41MOL   H20910689   6.383   1.814   3.678  1.9096 -0.6251  0.0138
   41MOL   C21010690   6.313   1.743   3.867  0.1752  0.0489  0.0003
   41MOL   N21110691   6.253   1.620   3.927  0.1351  0.1430  0.5440
   41MOL   C21210692   6.272   1.565   4.044 -0.9867  0.7281  0.3019
   41MOL   O21310693   6.362   1.598   4.125 -0.9961  0.0636  0.4021
   41MOL   C21410694   6.182   1.454   4.080  0.0904  0.8650 -0.0905
   41MOL   C21510695   6.214   1.863   3.879  0.3881  0.1647 -0.0191
   41MOL   H21610696   6.404   1.761   3.924 -1.0395 -0.5629  2.1752
   41MOL   H21710697   6.173   1.577   3.883  1.9111 -1.8231 -0.9379
   41MOL   H21810698   6.105   1.422   4.009  1.6145 -2.6078 -0.2637
   41MOL   H21910699   6.244   1.365   4.090 -0.3867 -0.0955 -4.5807
   41MOL   H22010700   6.135   1.475   4.177 -0.5921  0.4757 -0.3285
   41MOL   H22110701   6.242   1.947   3.816 -2.5828 -0.1762 -1.8748
   41MOL   H22210702   6.117   1.831   3.842 -0.7858  3.8901 -0.3653
   41MOL   C22310703   6.189   1.910   4.028  0.4914  0.0420 -0.0379
   41MOL   N22410704   6.050   1.960   4.047  0.5961 -0.1605 -0.3604
   41MOL   C22510705   5.937   1.891   4.067 -0.4679 -1.0393 -0.5813
   41MOL   O22610706   5.827   1.948   4.060  0.2398  0.4051 -0.1310
   41MOL   C22710707   5.943   1.743   4.084 -0.0253 -0.6096  0.1410
   41MOL   C22810708   6.290   2.009   4.072  0.1263  0.2585  0.0121
   41MOL   H22910709   6.186   1.827   4.097  1.9485  2.1352  2.6213
   41MOL   H23010710   6.038   2.060   4.047  1.0588 -0.1023 -0.6881
   41MOL   H23110711   5.941   1.693   3.987  0.5699 -0.1563 -0.1152
   41MOL   H23210712   6.017   1.710   4.157  1.2919 -0.0220 -0.8934
   41MOL   H23310713   5.844   1.718   4.123  0.4070 -0.3990  1.3950
   41MOL   H23410714   6.390   1.966   4.067 -0.3368 -0.6159 -2.0180
   41MOL   H23510715   6.286   2.105   4.021 -0.6135 -0.2666 -0.9356
   41MOL   C23610716   6.285   2.052   4.227  0.9104 -0.1986 -0.0747
   41MOL   N23710717   6.159   2.129   4.253 -0.3195  0.1772 -0.1578
   41MOL   C23810718   6.069   2.080   4.337 -0.4016 -0.4238  0.5070
   41MOL   O23910719   6.071   1.974   4.392 -0.3436  0.5872  0.0924
   41MOL   C24010720   5.949   2.171   4.368  0.1748  0.6715  0.4602
   41MOL   C24110721   6.405   2.128   4.293 -0.1535 -0.3510 -0.0118
   41MOL   H24210722   6.288   1.968   4.296 -0.0465  0.4816  0.8244
   41MOL   H24310723   6.147   2.226   4.228  0.1150  0.6578  1.4435
   41MOL   H24410724   5.895   2.128   4.453  1.2105  0.1920  0.8802
   41MOL   H24510725   5.978   2.273   4.394  1.7140  0.6061 -0.9498
   41MOL   H24610726   5.892   2.178   4.275  2.2836 -1.3719 -1.0502
   41MOL   H24710727   6.405   2.101   4.399 -1.5150 -0.9334 -0.1522
   41MOL   H24810728   6.502   2.097   4.253  1.5361  0.0978  3.5660
   41MOL   C24910729   6.394   2.277   4.290 -0.3069  0.2657 -0.7870
   41MOL   N25010730   6.427   2.321   4.159  0.4587 -0.5909 -0.2302
   41MOL   C25110731   6.360   2.417   4.086  0.2176  0.2266 -0.3826
   41MOL   O25210732   6.241   2.444   4.109 -0.4057  0.5993 -0.9606
   41MOL   C25310733   6.427   2.493   3.970 -0.0187  0.3205 -0.2729
   41MOL   C25410734   6.495   2.340   4.377  0.2172  0.4016 -0.2861
   41MOL   H25510735   6.297   2.309   4.328 -0.2084  0.8302 -1.0059
   41MOL   H25610736   6.518   2.306   4.120  0.6457  2.1495 -0.9834
   41MOL   H25710737   6.496   2.570   4.005  0.8843 -1.0052  0.9114
   41MOL   H25810738   6.471   2.421   3.901 -1.8833 -0.4533 -0.6790
   41MOL   H25910739   6.345   2.534   3.911 -0.0071 -0.4848 -0.8662
   41MOL   H26010740   6.598   2.304   4.366 -0.9348 -3.1107 -0.2323
   41MOL   H26110741   6.486   2.448   4.368 -1.7636  0.2788  0.1385
   41MOL   H26210742   6.461   2.323   4.479  1.6310  2.2417  0.5202
   42MOL     C110743   7.100   5.454   2.609 -0.6799 -0.1317 -0.1223
   42MOL     N210744   7.207   5.399   2.529  0.3370 -0.1128 -0.2579
   42MOL     C310745   7.329   5.360   2.568 -0.5525 -0.1874 -0.6533
   42MOL     O410746   7.372   5.350   2.688 -0.6860 -0.0162  0.5176
   42MOL     C510747   7.427   5.331   2.451 -0.2521  0.5937 -0.1686
   42MOL     C610748   7.048   5.357   2.717  0.8073  0.2113 -0.1181
   42MOL     H710749   7.140   5.544   2.657  0.9700 -1.1468  0.4561
   42MOL     H810750   7.181   5.401   2.431 -1.6032 -0.0295  0.2362
   42MOL     H910751   7.426   5.407   2.373  2.1867 -1.2968 -2.1059
   42MOL    H1010752   7.522   5.328   2.503 -0.4926  2.0927  0.3850
   42MOL    H1110753   7.401   5.237   2.401  0.8339 -0.5944  1.4293
   42MOL    H1210754   6.977   5.292   2.666  1.2564 -0.2331 -0.1878
   42MOL    H1310755   7.125   5.298   2.768 -0.0068 -1.7548 -1.1048
   42MOL    H1410756   7.017   5.482   2.545 -1.3495  2.9601  1.9571
   42MOL    C1510757   6.975   5.431   2.829 -0.1946  0.1098  1.2348
   42MOL    N1610758   6.916   5.335   2.926  0.6890 -0.3584 -0.4165
   42MOL    C1710759   6.980   5.290   3.036  0.0910 -0.8299  0.5872
   42MOL    O1810760   7.095   5.314   3.054 -0.0255  0.5352  0.3212
   42MOL    C1910761   6.884   5.216   3.134 -1.1091  0.0752 -0.1801
   42MOL    C2010762   6.864   5.535   2.783  1.0166 -0.2542 -0.4263
   42MOL    H2110763   7.059   5.488   2.868  0.8341  0.4622 -1.3612
   42MOL    H2210764   6.816   5.323   2.922  0.2458  1.6027  2.8183
   42MOL    H2310765   6.821   5.293   3.181 -0.6590 -0.8663  2.0126
   42MOL    H2410766   6.833   5.134   3.084  0.3655  0.2826 -2.0863
   42MOL    H2510767   6.924   5.164   3.221  0.2527 -0.7923 -1.3002
   42MOL    H2610768   6.891   5.589   2.692 -0.3004 -0.8915 -1.2146
   42MOL    H2710769   6.772   5.479   2.767  0.5352  0.6343 -0.7745
   42MOL    C2810770   6.829   5.643   2.883 -0.8592  0.0892 -0.1918
   42MOL    N2910771   6.695   5.683   2.868  0.0002  0.2890  0.1913
   42MOL    C3010772   6.582   5.630   2.926 -0.4088 -0.0221  0.0576
   42MOL    O3110773   6.591   5.538   3.004  0.3214  0.5087  0.2328
   42MOL    C3210774   6.457   5.717   2.918 -0.0504 -0.5978  0.5999
   42MOL    C3310775   6.925   5.764   2.870 -0.7412  0.1145  0.1368
   42MOL    H3410776   6.840   5.596   2.981 -1.9322  2.3783  1.0679
   42MOL    H3510777   6.683   5.755   2.799 -1.4873 -0.2625 -0.1609
   42MOL    H3610778   6.496   5.818   2.928  0.4360 -0.8773  1.6208
   42MOL    H3710779   6.391   5.706   2.831 -1.1566  2.0917  1.0466
   42MOL    H3810780   6.386   5.693   2.996  0.4466 -0.2433  1.1647
   42MOL    H3910781   7.026   5.738   2.841  0.4265  1.1149  3.0594
   42MOL    H4010782   6.896   5.827   2.786 -0.1140  0.3894  0.1281
   42MOL    C4110783   6.928   5.858   2.989 -0.1944  0.1597 -0.3424
   42MOL    N4210784   6.820   5.955   2.962  0.1530  0.1403  0.3230
   42MOL    C4310785   6.728   5.996   3.046 -0.3737 -0.3426 -0.3948
   42MOL    O4410786   6.736   5.977   3.169 -0.2725  0.1937  0.1849
   42MOL    C4510787   6.608   6.070   2.978  0.4402 -0.4633  0.0642
   42MOL    C4610788   7.056   5.949   2.995 -0.7965 -0.1806  0.3354
   42MOL    H4710789   6.906   5.803   3.080  0.0021 -1.6495 -1.3746
   42MOL    H4810790   6.816   5.997   2.870  1.3790  0.9537  0.6354
   42MOL    H4910791   6.616   6.076   2.870 -0.0854 -0.1152  0.0432
   42MOL    H5010792   6.517   6.016   3.006 -0.4249 -0.2342 -2.2323
   42MOL    H5110793   6.602   6.165   3.030 -0.9189 -0.2188 -0.5251
   42MOL    H5210794   7.104   5.965   2.899  0.5842 -0.0842  1.0346
   42MOL    H5310795   7.037   6.047   3.039  2.0208  0.5156  0.1139
   42MOL    C5410796   7.156   5.904   3.108 -0.6605  0.3169 -0.1007
   42MOL    N5510797   7.265   5.999   3.115 -0.3371  0.2288 -0.8409
   42MOL    C5610798   7.341   6.026   3.225  0.5616  0.2596 -0.0916
   42MOL    O5710799   7.304   5.991   3.336  0.5563  0.0377  0.7084
   42MOL    C5810800   7.477   6.084   3.201 -0.2878  0.5740  0.3505
   42MOL    C5910801   7.224   5.762   3.076 -0.1798  1.6707 -0.2485
   42MOL    H6010802   7.109   5.893   3.206 -2.1923 -2.7167 -1.0934
   42MOL    H6110803   7.320   6.005   3.031  0.4156  1.4567 -0.2791
   42MOL    H6210804   7.545   6.049   3.279 -0.0750 -0.5063 -0.3014
   42MOL    H6310805   7.515   6.065   3.101  0.3983  0.0175  0.7085
   42MOL    H6410806   7.479   6.193   3.204 -1.6113  0.6160 -0.0512
   42MOL    H6510807   7.166   5.702   3.005  2.0660 -1.6065  0.5835
   42MOL    H6610808   7.316   5.786   3.024  0.1305 -0.3161 -0.6321
   42MOL    C6710809   7.252   5.668   3.196 -0.5556 -0.4563  0.6546
   42MOL    N6810810   7.301   5.547   3.128 -0.0992  0.1958  0.0597
   42MOL    C6910811   7.427   5.529   3.085  0.1012 -0.0867  0.0991
   42MOL    O7010812   7.515   5.613   3.100 -0.2025  0.2083  0.4053
   42MOL    C7110813   7.465   5.389   3.028  0.2287 -0.1992 -0.0704
   42MOL    C7210814   7.126   5.624   3.279 -0.4589 -0.0533 -0.2307
   42MOL    H7310815   7.325   5.716   3.261  0.7469  0.6575 -1.5773
   42MOL    H7410816   7.233   5.475   3.108 -1.3123  1.1495  0.7158
   42MOL    H7510817   7.545   5.394   2.954  1.6534 -0.9725  1.4010
   42MOL    H7610818   7.494   5.326   3.111  1.2420  0.8124  0.3623
   42MOL    H7710819   7.374   5.355   2.979  1.3628 -0.8830 -1.7386
   42MOL    H7810820   7.066   5.714   3.296  3.2081  2.5712 -0.6691
   42MOL    H7910821   7.072   5.548   3.221  0.2078 -0.9231  0.2831
   42MOL    C8010822   7.161   5.563   3.412  0.1947 -0.2165 -0.2431
   42MOL    N8110823   7.036   5.498   3.452 -0.3669 -0.3358 -0.4096
   42MOL    C8210824   7.005   5.369   3.446  0.4432 -0.6479 -0.0219
   42MOL    O8310825   7.074   5.288   3.389 -0.4163  0.0460  0.2250
   42MOL    C8410826   6.882   5.324   3.515 -0.5837  0.4213  0.5835
   42MOL    C8510827   7.195   5.665   3.516  0.1455  0.0891  0.1723
   42MOL    H8610828   7.240   5.492   3.389  0.9155  0.1104  1.1449
   42MOL    H8710829   6.976   5.546   3.517 -1.1743  0.0571 -1.4208
   42MOL    H8810830   6.800   5.393   3.499 -0.7491 -0.0416 -0.6387
   42MOL    H8910831   6.852   5.223   3.486 -0.3013  0.7372 -0.8748
   42MOL    H9010832   6.883   5.315   3.624  2.0413 -0.0950  0.5444
   42MOL    H9110833   7.264   5.735   3.469 -1.5659  0.4282 -1.9090
   42MOL    H9210834   7.111   5.732   3.530  2.0082  2.6695 -0.6314
   42MOL    C9310835   7.234   5.601   3.648  0.0385  0.4492  0.2752
   42MOL    N9410836   7.208   5.696   3.756  0.5033  0.4411 -0.1609
   42MOL    C9510837   7.093   5.729   3.814  0.1980 -0.2516 -0.2238
   42MOL    O9610838   6.982   5.697   3.776  0.0812 -0.7861 -0.2468
   42MOL    C9710839   7.086   5.827   3.936  0.4091  0.3775 -0.0686
   42MOL    C9810840   7.384   5.547   3.635  0.7437 -0.0912 -0.0639
   42MOL    H9910841   7.176   5.512   3.672  0.9733 -0.2238  0.0818
   42MOL   H10010842   7.286   5.756   3.778 -0.5159  0.6311  3.1365
   42MOL   H10110843   7.164   5.903   3.933  1.1473 -0.3419  0.6745
   42MOL   H10210844   6.990   5.879   3.937  0.5387  0.6051  0.7823
   42MOL   H10310845   7.116   5.778   4.029  2.4101  2.3481  0.3627
   42MOL   H10410846   7.388   5.465   3.563  1.8333 -1.1991  1.2250
   42MOL   H10510847   7.454   5.623   3.601  5.2375 -4.2259 -0.6466
   42MOL   C10610848   7.442   5.506   3.773 -0.6082  0.4094  0.4177
   42MOL   N10710849   7.596   5.493   3.756  0.6511 -0.1658 -0.4433
   42MOL   C10810850   7.692   5.588   3.782  0.0942  0.1632  0.6787
   42MOL   O10910851   7.676   5.694   3.842 -0.3390 -0.1496 -0.2381
   42MOL   C11010852   7.833   5.561   3.741  0.6910  0.2632  0.4022
   42MOL   C11110853   7.374   5.383   3.845 -0.0485 -0.7379 -0.3790
   42MOL   H11210854   7.418   5.593   3.835 -0.7809  0.0802  0.8189
   42MOL   H11310855   7.634   5.404   3.729 -1.4071 -1.0897 -0.2978
   42MOL   H11410856   7.836   5.497   3.653  0.0963 -0.8384  1.1737
   42MOL   H11510857   0.037   5.659   3.723  0.2933  0.2413 -0.7158
   42MOL   H11610858   0.033   5.503   3.824 -1.5228 -1.0306  0.5966
   42MOL   H11710859   7.267   5.387   3.825 -0.0696  0.4043 -0.0717
   42MOL   H11810860   7.421   5.294   3.802  0.5744 -0.8236  0.4560
   42MOL   C11910861   7.401   5.391   3.996 -0.3623 -0.1001 -0.0683
   42MOL   N12010862   7.544   5.372   4.034  0.2602 -0.2044 -0.0427
   42MOL   C12110863   7.607   5.392   4.149  0.1393  0.0710  0.1936
   42MOL   O12210864   7.551   5.440   4.245 -0.6544  0.4349 -0.4151
   42MOL   C12310865   7.754   5.358   4.173  0.1265 -0.4688  0.3332
   42MOL   C12410866   7.320   5.273   4.062  0.3650  0.6750  0.6844
   42MOL   H12510867   7.355   5.477   4.045  1.7032  1.2773 -0.4419
   42MOL   H12610868   7.599   5.343   3.954 -1.6002 -0.3199 -1.2879
   42MOL   H12710869   7.780   5.436   4.244 -1.7005  1.1498 -0.7132
   42MOL   H12810870   7.759   5.257   4.212  0.7546 -0.9753 -1.0009
   42MOL   H12910871   7.824   5.369   4.090 -0.8879  1.4164 -0.3080
   42MOL   H13010872   7.375   5.184   4.030 -1.9392 -0.5353  0.0499
   42MOL   H13110873   7.324   5.276   4.171  1.7082 -0.1754  0.6741
   42MOL   C13210874   7.173   5.247   4.030  0.4603  0.1509  0.3266
   42MOL   N13310875   7.094   5.354   4.090  0.6649  0.6166 -0.6541
   42MOL   C13410876   6.984   5.409   4.034  0.1074  0.7615 -0.3419
   42MOL   O13510877   6.934   5.354   3.935  0.3728  0.4512  0.3430
   42MOL   C13610878   6.923   5.532   4.097 -0.1407  0.0105 -0.3526
   42MOL   C13710879   7.145   5.107   4.078  0.5502  1.1903 -0.6649
   42MOL   H13810880   7.160   5.247   3.921 -1.3166  1.4515  0.5087
   42MOL   H13910881   7.139   5.402   4.167 -1.1680  1.1591  0.1144
   42MOL   H14010882   6.858   5.587   4.029 -2.1735 -2.2685 -0.3223
   42MOL   H14110883   6.855   5.510   4.180 -0.9974 -2.5288 -1.6875
   42MOL   H14210884   7.004   5.600   4.122 -0.3362 -0.3675  1.3874
   42MOL   H14310885   7.205   5.042   4.014 -0.0454  0.2173 -0.2586
   42MOL   H14410886   7.183   5.084   4.178 -0.2528 -3.1979 -1.2714
   42MOL   C14510887   7.002   5.062   4.089  0.0969 -0.4773  0.1555
   42MOL   N14610888   6.927   5.079   3.966 -0.0704 -0.7546 -0.1978
   42MOL   C14710889   6.870   4.983   3.896 -0.7348 -0.9443 -0.7843
   42MOL   O14810890   6.873   4.864   3.924  0.4781 -0.1328  0.6504
   42MOL   C14910891   6.802   5.032   3.773  0.9180 -0.1936  1.3151
   42MOL   C15010892   6.929   5.113   4.219 -0.2290 -0.6231 -0.3561
   42MOL   H15110893   7.020   4.956   4.106 -1.6259 -0.4457  2.3644
   42MOL   H15210894   6.917   5.171   3.926  1.6114 -0.6483 -0.3968
   42MOL   H15310895   6.876   5.081   3.710  0.7674 -0.5984  0.8266
   42MOL   H15410896   6.771   4.950   3.709  0.4820 -1.1288  2.6904
   42MOL   H15510897   6.719   5.103   3.777  1.1185  0.4146 -2.8320
   42MOL   H15610898   7.002   5.120   4.299 -0.9004 -3.3828  0.5749
   42MOL   H15710899   6.898   5.217   4.206  0.3053 -0.4389 -0.1540
   42MOL   C15810900   6.818   5.019   4.270 -0.2739  0.4863 -1.0754
   42MOL   N15910901   6.688   5.077   4.231  0.2598 -0.8179  0.1970
   42MOL   C16010902   6.581   5.019   4.180  0.5487 -0.1811 -0.0913
   42MOL   O16110903   6.585   4.898   4.154  0.4231 -0.1106 -0.3201
   42MOL   C16210904   6.458   5.104   4.150 -0.0912  0.2551 -0.0911
   42MOL   C16310905   6.819   4.999   4.424 -0.6543 -0.2086  0.7971
   42MOL   H16410906   6.826   4.925   4.215  1.1022  0.1263 -0.2876
   42MOL   H16510907   6.681   5.175   4.253 -1.5877 -0.7236 -0.6666
   42MOL   H16610908   6.388   5.054   4.084 -0.2614 -0.4929  0.6439
   42MOL   H16710909   6.401   5.134   4.238 -2.7564 -0.4297 -1.5222
   42MOL   H16810910   6.479   5.199   4.101  0.0973 -0.4200 -1.3301
   42MOL   H16910911   6.804   5.093   4.477  1.9542 -1.1400  3.2853
   42MOL   H17010912   6.736   4.943   4.468 -1.6250  0.2042 -0.4821
   42MOL   C17110913   6.954   4.926   4.477  0.0844  0.6848  0.2262
   42MOL   N17210914   6.991   4.795   4.419 -1.0874  0.2895 -0.4141
   42MOL   C17310915   7.111   4.766   4.364 -0.3975  0.1106 -0.6315
   42MOL   O17410916   7.191   4.857   4.347  0.4706  0.1506  0.0402
   42MOL   C17510917   7.146   4.622   4.336  0.6328 -0.0057 -0.8587
   42MOL   C17610918   6.948   4.910   4.628  0.6798  0.0111  0.6910
   42MOL   H17710919   7.030   4.998   4.446 -0.2831  0.8698 -0.2539
   42MOL   H17810920   6.928   4.716   4.425  1.2468 -1.8090 -2.4184
   42MOL   H17910921   7.058   4.562   4.360 -0.1333 -0.0305 -3.5679
   42MOL   H18010922   7.166   4.610   4.230  1.3767  2.6774 -1.0567
   42MOL   H18110923   7.229   4.593   4.401  0.2722 -0.3292 -0.5381
   42MOL   H18210924   6.844   4.920   4.659  0.7275 -0.4856  1.0135
   42MOL   H18310925   6.987   4.812   4.656  2.0515 -0.4499 -2.5874
   42MOL   C18410926   7.011   5.019   4.709  0.3408 -0.6660 -0.6002
   42MOL   N18510927   7.149   5.035   4.660  0.2380  0.6576 -0.0257
   42MOL   C18610928   7.207   5.154   4.655  0.1312 -0.7998 -0.2506
   42MOL   O18710929   7.145   5.257   4.689  0.1151  0.3446 -0.3176
   42MOL   C18810930   7.357   5.157   4.624 -0.2330 -0.0975 -0.1026
   42MOL   C18910931   7.014   5.013   4.862  0.1234  0.1515  0.2774
   42MOL   H19010932   6.956   5.110   4.683  0.4142  0.1180  1.8247
   42MOL   H19110933   7.204   4.951   4.646 -2.9044 -1.3889 -0.6416
   42MOL   H19210934   7.403   5.100   4.705  0.4962 -0.7493 -0.9593
   42MOL   H19310935   7.376   5.126   4.521  1.1011 -1.3947  0.5006
   42MOL   H19410936   7.394   5.258   4.639 -2.6084  0.8316 -0.3308
   42MOL   H19510937   7.080   4.931   4.890  1.0321  0.1171 -1.8850
   42MOL   H19610938   7.074   5.100   4.888  4.1497 -2.1870 -0.7999
   42MOL   C19710939   6.881   5.014   4.934  0.0685 -1.2190 -0.1239
   42MOL   N19810940   6.841   5.158   4.955 -0.2959 -0.0512  0.2044
   42MOL   C19910941   6.772   5.241   4.872 -0.6705  0.2196  0.4993
   42MOL   O20010942   6.716   5.202   4.772  0.4796 -0.0471  0.0007
   42MOL   C20110943   6.754   5.387   4.925  0.4700 -0.5540  0.4091
   42MOL   C20210944   6.867   4.937   5.062 -0.5337  0.2936 -0.0825
   42MOL   H20310945   6.811   4.974   4.861 -2.0935  2.1502 -0.0414
   42MOL   H20410946   6.866   5.197   5.045 -0.5060  1.3923 -0.3669
   42MOL   H20510947   6.704   5.444   4.847 -0.7021 -4.1725 -1.5923
   42MOL   H20610948   6.687   5.379   5.011 -1.0451  0.8886 -0.6255
   42MOL   H20710949   6.847   5.436   4.953 -0.3285  1.4311 -0.3317
   42MOL   H20810950   6.926   4.990   5.137  0.7788 -1.9446  0.5218
   42MOL   H20910951   6.767   4.942   5.106 -0.6547 -0.1105 -0.3138
   42MOL   C21010952   6.905   4.786   5.071 -0.0618 -0.1627  0.3656
   42MOL   N21110953   6.858   4.711   4.950 -0.3033  0.2471  0.2239
   42MOL   C21210954   6.882   4.589   4.907  0.3677 -0.3842 -0.3460
   42MOL   O21310955   6.922   4.501   4.977  0.6674 -0.0006  0.2546
   42MOL   C21410956   6.851   4.558   4.761 -0.0314 -0.2442  0.2547
   42MOL   C21510957   6.879   4.717   5.203  0.4516  0.5839  0.4431
   42MOL   H21610958   7.011   4.781   5.047  0.2730 -1.2761  1.9435
   42MOL   H21710959   6.814   4.768   4.879 -0.9681  0.0085  0.4341
   42MOL   H21810960   6.935   4.499   4.726  1.6924  0.6519  2.7442
   42MOL   H21910961   6.754   4.508   4.754 -0.6024  1.0601 -1.3948
   42MOL   H22010962   6.837   4.647   4.699  1.2131 -0.2597 -0.0565
   42MOL   H22110963   6.771   4.729   5.212  0.0797 -1.6040 -0.6817
   42MOL   H22210964   6.919   4.618   5.183 -1.9811 -0.1011 -1.2099
   42MOL   C22310965   6.952   4.776   5.331  0.2548  0.1309  0.7054
   42MOL   N22410966   7.000   4.664   5.409  0.2712  0.5106 -0.2822
   42MOL   C22510967   7.128   4.628   5.428  0.5913  0.4614  0.0791
   42MOL   O22610968   7.221   4.694   5.375 -0.0244  0.8694 -0.4076
   42MOL   C22710969   7.151   4.494   5.503  0.6472  0.4141 -0.4851
   42MOL   C22810970   6.875   4.873   5.426  0.9165  0.2005 -0.2385
   42MOL   H22910971   7.046   4.824   5.301 -0.1663  1.7240  1.8601
   42MOL   H23010972   6.928   4.609   5.454 -1.7997  3.3914  0.1150
   42MOL   H23110973   7.062   4.440   5.534 -0.9779  1.5662 -2.9802
   42MOL   H23210974   7.219   4.432   5.444 -0.0566 -0.1726 -0.6893
   42MOL   H23310975   7.212   4.509   5.592  0.9160 -3.5741  0.1007
   42MOL   H23410976   6.932   4.898   5.516 -0.3717  0.6453  0.4673
   42MOL   H23510977   6.869   4.973   5.384 -1.4805  0.0817 -0.2517
   42MOL   C23610978   6.730   4.826   5.463 -0.0048  0.6464 -1.2370
   42MOL   N23710979   6.632   4.901   5.391 -0.5513 -0.5259  0.1536
   42MOL   C23810980   6.525   4.858   5.315 -0.6931  0.0579 -0.2713
   42MOL   O23910981   6.514   4.750   5.264 -0.6090 -0.0828  0.2376
   42MOL   C24010982   6.397   4.944   5.320 -0.1246 -0.3479 -0.3899
   42MOL   C24110983   6.701   4.844   5.613  0.3551  0.7633 -0.2125
   42MOL   H24210984   6.712   4.719   5.448  0.7874  0.1111  1.3477
   42MOL   H24310985   6.640   5.000   5.408  0.2861 -0.6959  0.7847
   42MOL   H24410986   6.363   4.996   5.410 -0.6344 -1.5481  0.1317
   42MOL   H24510987   6.425   5.028   5.256  1.3744  0.8938  1.8432
   42MOL   H24610988   6.318   4.896   5.262  0.0522 -1.3019  0.1513
   42MOL   H24710989   6.780   4.788   5.664  0.5577 -0.9215 -2.2694
   42MOL   H24810990   6.732   4.947   5.632  1.1758  0.8313 -1.8610
   42MOL   C24910991   6.568   4.792   5.676 -0.5322  0.1300  0.4109
   42MOL   N25010992   6.585   4.838   5.811  0.5782 -0.1749 -0.0957
   42MOL   C25110993   6.480   4.879   5.885 -0.2625 -0.0370  0.0969
   42MOL   O25210994   6.362   4.875   5.841  0.2287  0.2335  0.2890
   42MOL   C25310995   6.513   4.921   6.030  0.0742 -0.2231  0.0899
   42MOL   C25410996   6.547   4.639   5.682  0.2957  0.0099 -0.3384
   42MOL   H25510997   6.489   4.845   5.622 -0.8954  0.7570  1.5511
   42MOL   H25610998   6.673   4.829   5.859  0.6914  0.2302 -0.2212
   42MOL   H25710999   6.594   4.864   6.075 -1.0033 -2.6100 -0.8576
   42MOL   H25811000   6.555   5.021   6.034 -1.9730  0.6640  0.2826
   42MOL   H25911001   6.430   4.909   6.101  0.2978  0.5511  0.4873
   42MOL   H26011002   6.572   4.595   5.585  1.2626  0.9971 -0.5466
   42MOL   H26111003   6.610   4.596   5.759  0.2295 -0.6653 -0.6516
   42MOL   H26211004   6.441   4.617   5.698  0.3308  0.3836  0.4252
   43MOL     C111005   7.483   7.750   7.004  0.5920 -0.4186  0.2382
   43MOL     N211006   7.616   7.801   7.026 -0.5475 -0.1476 -0.5767
   43MOL     C311007   7.710   7.812   6.933 -0.3156 -0.4184 -0.2368
   43MOL     O411008   7.694   7.771   6.819  0.8395 -0.0609  0.6363
   43MOL     C511009   0.002   0.028   6.976 -0.1996 -0.2345  0.1034
   43MOL     C611010   7.385   0.021   6.953 -0.0750  0.6571  0.1861
   43MOL     H711011   7.492   7.670   6.931  0.4396 -1.1222  0.9860
   43MOL     H811012   7.627   7.816   7.126 -1.2994  0.5552 -0.5844
   43MOL     H911013   0.012   0.053   7.081  0.6146  0.5923 -0.1538
   43MOL    H1011014   0.076   7.788   6.963  1.7739  1.1517  2.3933
   43MOL    H1111015   0.029   0.110   6.909 -3.0540  0.2721 -0.5033
   43MOL    H1211016   7.391   0.110   7.015  2.0819 -0.2256  1.3120
   43MOL    H1311017   7.412   0.051   6.852  1.6705  0.9178  0.7048
   43MOL    H1411018   7.447   7.707   7.098  1.1870  0.1483  0.7365
   43MOL    C1511019   7.238   7.816   6.979  0.2037  0.3499 -0.0759
   43MOL    N1611020   7.214   7.689   6.913 -0.1831  0.5054 -0.1554
   43MOL    C1711021   7.178   7.573   6.971  0.2629 -0.0916 -0.6124
   43MOL    O1811022   7.177   7.551   7.091  0.1673  0.4260 -0.1634
   43MOL    C1911023   7.138   7.458   6.878  0.1199  0.2275  0.7658
   43MOL    C2011024   7.128   0.069   6.942  0.1155 -0.5938  0.2940
   43MOL    H2111025   7.225   7.807   7.087  1.7151  0.1738  0.0991
   43MOL    H2211026   7.219   7.682   6.812  0.1164 -0.7382 -0.0715
   43MOL    H2311027   7.209   7.421   6.804  1.7667 -1.8626  3.2645
   43MOL    H2411028   7.111   7.376   6.945  3.1391 -1.1852  0.3462
   43MOL    H2511029   7.047   7.483   6.824  0.7900 -1.1701 -1.0572
   43MOL    H2611030   7.131   0.076   6.834  0.9124 -0.0407  0.3452
   43MOL    H2711031   7.029   0.036   6.973 -0.1938 -0.9635 -1.0829
   43MOL    C2811032   7.162   0.219   6.973 -0.2234  0.0382  0.8300
   43MOL    N2911033   7.206   0.259   7.105 -0.8825  0.1432 -0.1735
   43MOL    C3011034   7.156   0.227   7.224  0.0477  0.0951 -0.6319
   43MOL    O3111035   7.070   0.137   7.237  0.2393 -0.5948  0.5235
   43MOL    C3211036   7.213   0.291   7.348  0.4513 -0.4116 -0.0251
   43MOL    C3311037   7.039   0.302   6.919 -0.5058 -0.0545  0.2686
   43MOL    H3411038   7.242   0.243   6.903 -0.5170 -0.0771  0.4539
   43MOL    H3511039   7.274   0.334   7.111 -0.3480 -0.4527  1.5531
   43MOL    H3611040   7.165   0.252   7.438 -1.8330  0.3524 -0.8592
   43MOL    H3711041   7.320   0.274   7.349  0.5132 -0.1263 -0.8921
   43MOL    H3811042   7.193   0.398   7.343  0.1384 -0.5317 -1.5821
   43MOL    H3911043   7.034   0.264   6.817 -1.6485  2.9516 -0.8572
   43MOL    H4011044   6.951   0.277   6.977 -0.4261  0.9118  0.8241
   43MOL    C4111045   7.036   0.449   6.906 -0.5214 -1.0271 -0.3183
   43MOL    N4211046   7.156   0.509   6.857 -0.4233  0.2652  0.2182
   43MOL    C4311047   7.265   0.542   6.912  0.9890 -0.6757 -0.0454
   43MOL    O4411048   7.296   0.530   7.033  0.9250 -0.1226 -0.1781
   43MOL    C4511049   7.358   0.617   6.817 -0.1220 -0.4373 -0.3826
   43MOL    C4611050   6.978   0.525   7.032  0.0237 -0.4326  0.6282
   43MOL    H4711051   6.957   0.473   6.835 -1.9515 -1.8205  0.9749
   43MOL    H4811052   7.152   0.530   6.759  1.4406 -0.1802  0.0311
   43MOL    H4911053   7.340   0.725   6.814 -1.6479 -0.6341  0.9883
   43MOL    H5011054   7.464   0.612   6.843 -0.3377 -2.0612  0.2105
   43MOL    H5111055   7.353   0.578   6.715 -2.1585  0.5215 -0.6790
   43MOL    H5211056   6.893   0.461   7.055 -0.0601 -1.3167 -2.0227
   43MOL    H5311057   7.046   0.509   7.116 -3.2950 -1.5233  3.2288
   43MOL    C5411058   6.952   0.681   7.019 -0.4838 -0.5133 -0.7516
   43MOL    N5511059   7.054   0.757   7.097 -0.0449  0.1232  0.1858
   43MOL    C5611060   7.073   0.744   7.232  0.1919 -0.5728 -0.1591
   43MOL    O5711061   7.014   0.668   7.308  0.5735 -0.5280 -0.4282
   43MOL    C5811062   7.177   0.841   7.292 -1.0081  0.0183 -0.3273
   43MOL    C5911063   6.810   0.722   7.051  0.0368  0.2088  0.5102
   43MOL    H6011064   6.983   0.710   6.919 -2.6567 -1.5912 -1.7916
   43MOL    H6111065   7.131   0.807   7.054 -0.2170 -0.3858 -0.7308
   43MOL    H6211066   7.126   0.936   7.312  0.1194  0.0599  2.4842
   43MOL    H6311067   7.204   0.798   7.388 -1.2935  0.7418  0.0772
   43MOL    H6411068   7.263   0.853   7.226  0.4380 -2.9095  0.9474
   43MOL    H6511069   6.779   0.688   7.150  1.1211 -0.1781  0.7282
   43MOL    H6611070   6.821   0.830   7.051  0.6620  0.1504  0.6500
   43MOL    C6711071   6.696   0.693   6.948 -1.0055  0.2119 -0.0459
   43MOL    N6811072   6.723   0.717   6.808  0.1619 -0.2580 -0.1375
   43MOL    C6911073   6.712   0.628   6.707  0.8802  0.1181 -0.4933
   43MOL    O7011074   6.713   0.506   6.727 -0.2384  0.1148 -0.2232
   43MOL    C7111075   6.692   0.684   6.570 -0.3437 -0.3241 -0.1288
   43MOL    C7211076   6.568   0.755   6.989 -0.5137  0.4739  0.3213
   43MOL    H7311077   6.677   0.586   6.958 -1.0698  0.2769  0.5136
   43MOL    H7411078   6.742   0.812   6.780 -1.3886 -0.5781 -2.4426
   43MOL    H7511079   6.592   0.726   6.559  0.2441  1.0043 -0.4102
   43MOL    H7611080   6.763   0.765   6.557 -0.4703 -0.3126 -0.7266
   43MOL    H7711081   6.721   0.612   6.494 -2.1322  1.1409 -2.2715
   43MOL    H7811082   6.574   0.792   7.092 -0.4352  2.7087 -0.4489
   43MOL    H7911083   6.549   0.846   6.933  0.7631  1.2695  1.1475
   43MOL    C8011084   6.429   0.672   6.982 -0.2524 -1.0002  0.4044
   43MOL    N8111085   6.400   0.633   6.842  0.3043  0.5577  0.1182
   43MOL    C8211086   6.353   0.518   6.797 -0.4485 -0.0683 -0.3834
   43MOL    O8311087   6.320   0.425   6.866 -0.4026 -0.3044 -0.0939
   43MOL    C8411088   6.336   0.495   6.644  0.2882 -0.0216  0.1101
   43MOL    C8511089   6.302   0.745   7.034 -0.3293 -0.3459  0.6178
   43MOL    H8611090   6.432   0.577   7.036  0.9464 -2.7460 -2.5983
   43MOL    H8711091   6.425   0.707   6.779  0.3746 -0.5094 -1.1467
   43MOL    H8811092   6.228   0.490   6.632  0.4436  0.3549 -1.6028
   43MOL    H8911093   6.380   0.583   6.599  0.8832  0.4773  1.6337
   43MOL    H9011094   6.382   0.399   6.618 -0.8717 -0.6826  0.4427
   43MOL    H9111095   6.257   0.815   6.964 -0.6401 -1.3917 -0.2379
   43MOL    H9211096   6.221   0.673   7.034  1.2178 -2.1406  0.7474
   43MOL    C9311097   6.307   0.813   7.168  0.4960  0.3946 -0.1361
   43MOL    N9411098   6.328   0.722   7.282  0.1679  0.2106  0.0437
   43MOL    C9511099   6.236   0.642   7.333  0.4300  0.4249 -0.3743
   43MOL    O9611100   6.124   0.628   7.292  0.2123  0.1255  0.2096
   43MOL    C9711101   6.278   0.555   7.449  0.4047  0.2967  0.6762
   43MOL    C9811102   6.191   0.910   7.188  0.4690  0.2655 -0.3368
   43MOL    H9911103   6.384   0.891   7.167 -1.1249  2.0736  0.9737
   43MOL   H10011104   6.417   0.704   7.325 -0.2032 -0.5349  0.5205
   43MOL   H10111105   6.317   0.608   7.535  1.7737  0.5086 -0.0581
   43MOL   H10211106   6.184   0.504   7.471 -0.4716  1.5641 -0.0350
   43MOL   H10311107   6.338   0.473   7.411  1.0347  0.3442  1.5700
   43MOL   H10411108   6.101   0.850   7.197  0.0939  1.1292  2.3246
   43MOL   H10511109   6.202   0.953   7.288  4.5733 -0.8062 -0.2333
   43MOL   C10611110   6.179   1.025   7.081 -0.7588 -0.6108 -0.1111
   43MOL   N10711111   6.248   1.141   7.118  0.3573 -0.6207 -0.6864
   43MOL   C10811112   6.366   1.200   7.076 -0.0528  0.7652 -0.3572
   43MOL   O10911113   6.453   1.135   7.020 -0.0613 -0.3550  0.0136
   43MOL   C11011114   6.399   1.345   7.111  0.5605  0.1859 -0.5899
   43MOL   C11111115   6.026   1.064   7.064  0.8941  0.2116  0.4263
   43MOL   H11211116   6.223   1.005   6.983  2.7736  0.9307  1.0885
   43MOL   H11311117   6.190   1.204   7.170  0.0583 -0.9161 -0.6560
   43MOL   H11411118   6.455   1.396   7.032 -1.4299  0.8325 -1.6147
   43MOL   H11511119   6.300   1.389   7.123 -0.2177 -2.2531  2.5516
   43MOL   H11611120   6.445   1.350   7.209 -2.8350  3.4617  0.9405
   43MOL   H11711121   5.966   0.975   7.047  2.4864 -0.8557  0.2434
   43MOL   H11811122   5.992   1.120   7.151 -0.3261  1.5775 -0.9068
   43MOL   C11911123   6.001   1.161   6.944  0.0790  0.2338 -0.0770
   43MOL   N12011124   5.880   1.244   6.980 -0.6802  1.0242  0.0749
   43MOL   C12111125   5.886   1.358   7.051  0.0074 -0.1870 -0.0751
   43MOL   O12211126   5.977   1.379   7.125 -0.5015 -0.4170  0.1960
   43MOL   C12311127   5.767   1.455   7.051 -0.3230 -0.3854 -0.4714
   43MOL   C12411128   5.976   1.086   6.813  0.0196  0.4880 -1.0256
   43MOL   H12511129   6.087   1.224   6.924  0.1936 -0.2014 -0.9800
   43MOL   H12611130   5.801   1.217   6.922 -0.6036 -1.0105  0.8534
   43MOL   H12711131   5.797   1.555   7.083  0.4271 -0.7851  0.1261
   43MOL   H12811132   5.739   1.473   6.948  1.5624 -1.7720 -1.2612
   43MOL   H12911133   5.678   1.416   7.100  0.2607 -1.3600 -0.1793
   43MOL   H13011134   6.055   1.015   6.789  0.7845  1.3196 -0.9974
   43MOL   H13111135   5.896   1.015   6.830 -1.6779  2.6265  0.2137
   43MOL   C13211136   5.952   1.171   6.688 -0.1012 -0.4033  0.2069
   43MOL   N13311137   5.805   1.171   6.657 -0.5453 -0.0492  0.0981
   43MOL   C13411138   5.734   1.276   6.619  0.0554 -0.5717 -0.4593
   43MOL   O13511139   5.772   1.390   6.630  0.2155  0.0136 -0.5330
   43MOL   C13611140   5.612   1.245   6.537  0.1347 -0.0502  0.3091
   43MOL   C13711141   6.025   1.143   6.553  0.2069  0.0049  0.4516
   43MOL   H13811142   5.968   1.274   6.720  1.4194  0.5672 -3.4382
   43MOL   H13911143   5.763   1.080   6.642  0.4989 -0.4078 -0.7857
   43MOL   H14011144   5.545   1.331   6.540 -0.0824 -0.2553  1.6169
   43MOL   H14111145   5.635   1.231   6.432  1.1108  0.6627  0.4153
   43MOL   H14211146   5.562   1.159   6.581  0.0411  0.8172  1.9491
   43MOL   H14311147   6.026   1.034   6.545  0.3317 -0.1333  2.2592
   43MOL   H14411148   5.967   1.186   6.471  0.1059 -0.2632  0.3812
   43MOL   C14511149   6.170   1.190   6.538  0.4640 -0.3115  1.0071
   43MOL   N14611150   6.252   1.132   6.649  0.7357 -0.3008  0.6731
   43MOL   C14711151   6.311   1.008   6.653 -0.8856  0.2284 -0.1845
   43MOL   O14811152   6.282   0.916   6.587 -0.0629  0.0377 -0.8387
   43MOL   C14911153   6.421   1.004   6.748  0.3216 -0.1458 -0.2152
   43MOL   C15011154   6.176   1.350   6.527 -0.3840  0.1240 -0.6568
   43MOL   H15111155   6.209   1.161   6.440  0.7945  0.0931  1.0160
   43MOL   H15211156   6.278   1.191   6.727 -0.4707  0.6291  0.3843
   43MOL   H15311157   6.509   0.964   6.698  3.3046 -0.8814  5.1591
   43MOL   H15411158   6.461   1.100   6.780 -0.4915  0.9896 -2.4794
   43MOL   H15511159   6.392   0.945   6.835 -3.1978 -0.3559 -1.4490
   43MOL   H15611160   6.127   1.394   6.441  0.4396  1.6100 -0.3865
   43MOL   H15711161   6.119   1.388   6.612  0.8676  0.6085 -0.0064
   43MOL   C15811162   6.321   1.415   6.534 -0.1916 -0.6477  0.0408
   43MOL   N15911163   6.328   1.514   6.647 -0.1536 -0.0661 -0.0101
   43MOL   C16011164   6.327   1.484   6.779  0.2504  0.5089 -0.3869
   43MOL   O16111165   6.302   1.370   6.818 -0.2433 -0.1373 -0.5776
   43MOL   C16211166   6.336   1.595   6.880 -0.0209  0.2900  0.7129
   43MOL   C16311167   6.357   1.484   6.403  0.0000  0.4936 -0.3882
   43MOL   H16411168   6.384   1.326   6.546 -0.5526 -1.0611 -1.0943
   43MOL   H16511169   6.332   1.612   6.622 -1.4752 -0.1567 -0.6403
   43MOL   H16611170   6.257   1.569   6.950 -0.5378  1.2940  0.5041
   43MOL   H16711171   6.424   1.599   6.945 -0.2746 -1.0334  1.1600
   43MOL   H16811172   6.308   1.695   6.849  0.5114 -0.3161 -1.9004
   43MOL   H16911173   6.280   1.556   6.373  0.6473  2.1298  1.7475
   43MOL   H17011174   6.447   1.542   6.425  0.3073  0.0875 -0.5830
   43MOL   C17111175   6.384   1.382   6.284 -0.4543 -0.4551  0.7507
   43MOL   N17211176   6.492   1.283   6.323 -0.5611 -0.1264 -0.8864
   43MOL   C17311177   6.478   1.147   6.314 -0.8718  0.5208  0.3400
   43MOL   O17411178   6.402   1.094   6.235 -0.0931 -0.4817  0.3760
   43MOL   C17511179   6.585   1.059   6.394 -0.8438 -0.1223 -0.2335
   43MOL   C17611180   6.439   1.457   6.159 -0.1461 -1.0533 -0.1742
   43MOL   H17711181   6.291   1.332   6.254  0.1466  0.4469 -2.9478
   43MOL   H17811182   6.571   1.305   6.381 -2.1733  1.5155  0.7464
   43MOL   H17911183   6.587   1.081   6.500 -0.2230  1.4110 -0.5416
   43MOL   H18011184   6.553   0.958   6.371  1.8911 -1.4027  1.2591
   43MOL   H18111185   6.684   1.078   6.352 -1.2953  2.0129 -0.3890
   43MOL   H18211186   6.355   1.510   6.114 -0.9869 -0.4405  2.0518
   43MOL   H18311187   6.506   1.542   6.171 -0.6029 -0.8553  1.0536
   43MOL   C18411188   6.488   1.368   6.039 -0.4249 -0.1631 -0.8262
   43MOL   N18511189   6.388   1.266   6.010 -0.5211  0.8854 -0.4216
   43MOL   C18611190   6.339   1.233   5.893 -0.0063 -0.1453 -0.4314
   43MOL   O18711191   6.370   1.298   5.790  0.0612  0.0587  0.1756
   43MOL   C18811192   6.222   1.135   5.904 -0.5342 -0.6748 -1.2310
   43MOL   C18911193   6.630   1.302   6.052  0.7208  0.6215  0.1802
   43MOL   H19011194   6.513   1.434   5.955  2.2960 -0.1534 -0.0669
   43MOL   H19111195   6.358   1.214   6.091 -0.8176  1.5347 -0.1161
   43MOL   H19211196   6.225   1.092   6.004  1.5998 -1.9275 -1.8112
   43MOL   H19311197   6.133   1.188   5.871 -2.6455 -3.9971 -1.1334
   43MOL   H19411198   6.249   1.062   5.827  2.4434 -0.5878 -0.3089
   43MOL   H19511199   6.623   1.215   6.117  2.6064 -0.9510 -1.6209
   43MOL   H19611200   6.648   1.250   5.958  0.7578 -0.8684  0.9916
   43MOL   C19711201   6.758   1.382   6.088  0.1388  0.2906 -0.2163
   43MOL   N19811202   6.765   1.489   5.990  0.7671 -0.5225  0.3433
   43MOL   C19911203   6.812   1.611   6.002  0.5452 -0.4907 -0.5300
   43MOL   O20011204   6.869   1.653   6.105  0.4867 -0.0242 -0.7806
   43MOL   C20111205   6.796   1.691   5.873 -0.0898  0.0183 -0.0897
   43MOL   C20211206   6.877   1.280   6.085 -0.6564 -0.6240 -0.6654
   43MOL   H20311207   6.743   1.419   6.190  1.0158 -3.1227  1.2258
   43MOL   H20411208   6.746   1.457   5.896  1.6913 -2.2847  0.7467
   43MOL   H20511209   6.730   1.644   5.801  0.5247  1.5254 -1.6842
   43MOL   H20611210   6.741   1.783   5.895 -0.0794  0.5933 -2.3690
   43MOL   H20711211   6.899   1.713   5.844 -0.4062  1.6956  0.0001
   43MOL   H20811212   6.852   1.187   6.136 -0.6995 -2.3776 -3.7403
   43MOL   H20911213   6.887   1.259   5.978 -1.2205 -0.2945 -0.7825
   43MOL   C21011214   7.011   1.328   6.140 -0.0747 -0.3499 -0.7850
   43MOL   N21111215   7.114   1.226   6.128 -0.7203  0.0753 -0.4117
   43MOL   C21211216   7.243   1.255   6.106 -0.8707  0.7338 -0.1345
   43MOL   O21311217   7.287   1.367   6.084 -0.1282 -0.3404 -0.1981
   43MOL   C21411218   7.351   1.146   6.114 -0.3500  0.0148  0.2998
   43MOL   C21511219   7.005   1.385   6.288 -0.1899  0.3044  0.4236
   43MOL   H21611220   7.033   1.409   6.070  2.2179 -1.0973 -0.9952
   43MOL   H21711221   7.090   1.128   6.141 -1.3662 -0.1309 -2.9800
   43MOL   H21811222   7.426   1.168   6.190 -1.3016  0.7082  1.0420
   43MOL   H21911223   7.302   1.054   6.148 -0.2122 -0.4480 -0.7204
   43MOL   H22011224   7.391   1.138   6.013  0.9705  2.2789  0.6067
   43MOL   H22111225   7.104   1.410   6.327  0.1746 -1.4594  0.6791
   43MOL   H22211226   6.942   1.473   6.274 -2.3627 -1.0106  1.6542
   43MOL   C22311227   6.944   1.300   6.407  0.2358  0.1251  0.1700
   43MOL   N22411228   6.917   1.396   6.523  0.6926 -0.5295 -0.3906
   43MOL   C22511229   6.793   1.457   6.542 -0.5530 -0.2996  0.0533
   43MOL   O22611230   6.695   1.438   6.472  0.0558  0.1469 -0.0171
   43MOL   C22711231   6.774   1.547   6.663 -0.1986  0.0508  0.2727
   43MOL   C22811232   7.048   1.188   6.452 -0.2836 -0.4560 -1.1299
   43MOL   H22911233   6.850   1.264   6.366  0.0055  0.5163  0.3488
   43MOL   H23011234   6.989   1.408   6.592 -1.7353  0.9834  2.0022
   43MOL   H23111235   6.843   1.526   6.745 -0.3890  0.9958  0.6797
   43MOL   H23211236   6.789   1.650   6.631 -0.7330 -0.2002 -0.8029
   43MOL   H23311237   6.679   1.518   6.708 -0.3759  0.6976  0.3159
   43MOL   H23411238   7.095   1.153   6.360 -0.1121 -0.4874 -1.0307
   43MOL   H23511239   7.121   1.233   6.519 -1.3455  1.7810 -1.4498
   43MOL   C23611240   6.983   1.071   6.533  0.3530 -0.0497  0.4212
   43MOL   N23711241   6.922   1.132   6.651  0.6271  0.2332 -0.7698
   43MOL   C23811242   6.816   1.086   6.722 -0.7941  0.1633 -0.1768
   43MOL   O23911243   6.769   0.976   6.701 -0.7411  0.3539 -0.4466
   43MOL   C24011244   6.756   1.173   6.819  1.0243  0.0118  0.0912
   43MOL   C24111245   7.086   0.961   6.567 -0.1362 -0.8162  0.5582
   43MOL   H24211246   6.904   1.041   6.463 -0.7282  0.8880  1.2092
   43MOL   H24311247   6.961   1.223   6.673 -1.4942  0.6813  1.3450
   43MOL   H24411248   6.837   1.201   6.887  0.7297 -0.2647  0.5644
   43MOL   H24511249   6.708   1.262   6.780 -0.8556 -0.9147  0.2083
   43MOL   H24611250   6.688   1.114   6.881  0.5327 -2.3985 -2.6058
   43MOL   H24711251   7.165   1.007   6.627  0.3230 -2.5096  1.2906
   43MOL   H24811252   7.032   0.888   6.627 -0.6719 -1.1113 -0.2768
   43MOL   C24911253   7.128   0.880   6.443  0.0360  0.4211  0.1021
   43MOL   N25011254   7.021   0.823   6.356 -0.2716 -0.0919  0.0876
   43MOL   C25111255   6.987   0.869   6.239  0.5677  0.2397  0.1186
   43MOL   O25211256   7.039   0.960   6.182  0.2417  0.0546  0.0754
   43MOL   C25311257   6.869   0.800   6.176 -0.1686  0.4955 -0.4741
   43MOL   C25411258   7.223   0.771   6.486  0.3767  0.2096  0.2103
   43MOL   H25511259   7.191   0.941   6.378 -1.1891 -0.9030 -2.3818
   43MOL   H25611260   6.970   0.743   6.390 -1.0921  0.5550  0.3929
   43MOL   H25711261   6.835   0.829   6.077 -0.6475  2.5116  0.2675
   43MOL   H25811262   6.869   0.691   6.183  0.6613  0.5548  0.7956
   43MOL   H25911263   6.781   0.831   6.232 -0.9089 -0.9067 -0.8266
   43MOL   H26011264   7.161   0.700   6.539 -2.1247  1.3700 -1.0846
   43MOL   H26111265   7.279   0.722   6.406 -3.2374 -1.1847 -1.5791
   43MOL   H26211266   7.309   0.804   6.544 -0.2504  1.8392  0.2437
   44MOL     C111267   3.200   4.300   4.111  0.4648 -0.1165  0.3971
   44MOL     N211268   3.244   4.258   3.985 -0.0533 -0.6546 -0.3484
   44MOL     C311269   3.176   4.268   3.866  0.2267  0.3082 -0.1169
   44MOL     O411270   3.065   4.319   3.853 -0.0366 -0.1485 -0.0847
   44MOL     C511271   3.253   4.205   3.751 -0.0009  0.2262  0.7801
   44MOL     C611272   3.167   4.170   4.194 -0.5654  0.2552  0.2469
   44MOL     H711273   3.278   4.356   4.163 -0.3518  2.2653 -0.8543
   44MOL     H811274   3.339   4.224   3.983 -0.5730 -2.1688  0.0870
   44MOL     H911275   3.351   4.166   3.778 -0.5733 -3.2569 -1.8843
   44MOL    H1011276   3.203   4.117   3.713  2.7211 -1.3254  0.6486
   44MOL    H1111277   3.262   4.273   3.666  0.6207  0.8039  1.3002
   44MOL    H1211278   3.089   4.125   4.133 -0.9653  1.2382  0.0128
   44MOL    H1311279   3.256   4.107   4.188  0.2572  1.3056  1.1476
   44MOL    H1411280   3.113   4.366   4.101  1.0976  0.5524 -0.9016
   44MOL    C1511281   3.124   4.193   4.340  0.1180 -0.2873 -0.4322
   44MOL    N1611282   3.096   4.060   4.396 -0.0069 -0.2036  0.0498
   44MOL    C1711283   3.176   4.003   4.490 -0.1969  0.1697 -0.0400
   44MOL    O1811284   3.279   4.056   4.525 -0.1163  0.1728 -0.2479
   44MOL    C1911285   3.149   3.864   4.540  0.1392  0.2419  0.3355
   44MOL    C2011286   2.996   4.281   4.346 -0.2405 -0.2208  0.4509
   44MOL    H2111287   3.199   4.250   4.394 -1.6251  1.1820  0.4735
   44MOL    H2211288   3.018   4.003   4.366  0.6956 -0.2861 -1.6736
   44MOL    H2311289   3.096   3.848   4.634 -2.1649  0.0953 -0.9699
   44MOL    H2411290   3.104   3.800   4.465  0.5378 -0.4471  0.6714
   44MOL    H2511291   3.248   3.819   4.552 -0.3958 -1.1597 -0.3846
   44MOL    H2611292   2.981   4.350   4.263  0.7252  2.0861  2.1243
   44MOL    H2711293   2.907   4.218   4.339 -0.6010  0.3116  0.1533
   44MOL    C2811294   2.978   4.361   4.472  0.6883 -0.3559 -0.2206
   44MOL    N2911295   2.984   4.264   4.577 -0.1683  0.2749 -0.0237
   44MOL    C3011296   2.998   4.296   4.706  0.0838  0.5027 -0.8415
   44MOL    O3111297   2.994   4.410   4.751 -0.3173 -0.7076  0.0788
   44MOL    C3211298   3.009   4.177   4.803  0.4021 -0.7291  0.5465
   44MOL    C3311299   2.840   4.443   4.485  0.2460  0.3798  0.2519
   44MOL    H3411300   3.059   4.432   4.491  1.0072 -0.4049 -1.3663
   44MOL    H3511301   2.987   4.168   4.546  1.6271  0.1388  0.5492
   44MOL    H3611302   3.062   4.100   4.747  1.6230  1.5281 -1.5145
   44MOL    H3711303   3.056   4.196   4.899  1.1064  0.5454 -0.0324
   44MOL    H3811304   2.914   4.134   4.833 -0.6558 -0.1747 -1.8190
   44MOL    H3911305   2.766   4.378   4.532  1.0235 -0.7073 -0.0043
   44MOL    H4011306   2.858   4.524   4.555  2.2626  0.3129 -0.1572
   44MOL    C4111307   2.783   4.514   4.359  0.3334  0.2890  0.2607
   44MOL    N4211308   2.727   4.643   4.405  0.6853  0.6041 -0.3259
   44MOL    C4311309   2.771   4.767   4.386  0.3211  1.6266 -0.0082
   44MOL    O4411310   2.882   4.786   4.340 -0.6901 -0.1490  0.1605
   44MOL    C4511311   2.679   4.884   4.422 -0.3710 -0.1452  0.4886
   44MOL    C4611312   2.674   4.441   4.287 -0.0597  0.0718 -0.5415
   44MOL    H4711313   2.868   4.536   4.295  1.8197 -1.0982  1.7150
   44MOL    H4811314   2.639   4.635   4.455 -0.7694  1.4182 -2.6975
   44MOL    H4911315   2.601   4.874   4.346 -1.2397  1.3725  1.1528
   44MOL    H5011316   2.639   4.867   4.522 -0.2282  2.3321  0.9993
   44MOL    H5111317   2.727   4.981   4.409  0.4582 -0.6155  0.0215
   44MOL    H5211318   2.688   4.333   4.285 -0.0386  0.0488  0.4163
   44MOL    H5311319   2.573   4.441   4.330  0.7216 -0.4999  1.3373
   44MOL    C5411320   2.647   4.478   4.141 -0.5180 -0.1460 -0.3638
   44MOL    N5511321   2.513   4.481   4.103 -0.2485  0.0106  0.0462
   44MOL    C5611322   2.440   4.376   4.085 -0.1624 -0.2565 -0.9035
   44MOL    O5711323   2.458   4.264   4.126 -0.1767  0.2304  0.1590
   44MOL    C5811324   2.315   4.412   4.017 -0.4041 -0.3864  0.1179
   44MOL    C5911325   2.739   4.398   4.044 -0.0903  0.4630 -0.3412
   44MOL    H6011326   2.675   4.582   4.128 -0.4110 -0.2481 -0.9816
   44MOL    H6111327   2.483   4.567   4.058 -0.5281 -0.6222 -1.0002
   44MOL    H6211328   2.289   4.515   3.991 -1.6386 -1.1240 -1.6746
   44MOL    H6311329   2.313   4.346   3.930  3.2001  2.0051 -1.9034
   44MOL    H6411330   2.231   4.377   4.077  0.1048 -1.8222  0.0141
   44MOL    H6511331   2.846   4.408   4.060 -0.1806 -0.2542  0.7837
   44MOL    H6611332   2.716   4.294   4.066  0.4615  0.0231 -1.8371
   44MOL    C6711333   2.720   4.422   3.893 -0.0048  0.1728  0.2988
   44MOL    N6811334   2.783   4.309   3.829 -0.0346 -0.0592 -0.6477
   44MOL    C6911335   2.722   4.194   3.789 -0.7215 -0.3471 -0.2630
   44MOL    O7011336   2.600   4.184   3.790 -0.2982 -0.0412  0.4045
   44MOL    C7111337   2.811   4.082   3.743  0.6113 -0.0511  0.7896
   44MOL    C7211338   2.776   4.558   3.845 -0.9672 -0.1142 -0.5949
   44MOL    H7311339   2.616   4.421   3.861  0.2469  0.3584 -0.5325
   44MOL    H7411340   2.883   4.297   3.834 -0.5116 -4.0841  1.9291
   44MOL    H7511341   2.752   3.993   3.721 -0.8254  1.3581 -1.2644
   44MOL    H7611342   2.867   4.108   3.653  0.3946 -0.1797  0.6182
   44MOL    H7711343   2.885   4.051   3.816  0.1592 -2.9077  0.1183
   44MOL    H7811344   2.711   4.634   3.888 -2.3227 -2.3401  1.4450
   44MOL    H7911345   2.873   4.581   3.890 -0.9554 -0.7083 -0.3116
   44MOL    C8011346   2.788   4.585   3.690 -0.1000 -0.6377 -0.7977
   44MOL    N8111347   2.910   4.525   3.632 -0.9214  0.5328 -0.0744
   44MOL    C8211348   2.935   4.475   3.512  0.8286 -0.0576 -0.8806
   44MOL    O8311349   2.864   4.502   3.423 -0.1438  0.2303 -0.1224
   44MOL    C8411350   3.048   4.382   3.497 -0.7422  0.0750  0.2636
   44MOL    C8511351   2.767   4.729   3.646  0.2202 -0.2526 -0.1978
   44MOL    H8611352   2.704   4.528   3.650 -1.6183  0.5197  0.6323
   44MOL    H8711353   2.982   4.511   3.701  0.9117 -0.4667 -2.1378
   44MOL    H8811354   3.144   4.432   3.516 -1.9004  2.2431  0.5761
   44MOL    H8911355   3.037   4.304   3.571 -1.9710 -0.2724 -0.2731
   44MOL    H9011356   3.040   4.332   3.400  0.7170  1.3098 -0.5364
   44MOL    H9111357   2.766   4.738   3.538  0.6333 -1.4588 -0.3121
   44MOL    H9211358   2.667   4.758   3.680  0.8597 -0.3938  1.8881
   44MOL    C9311359   2.874   4.826   3.701 -0.1419 -0.4062 -0.5186
   44MOL    N9411360   2.841   4.879   3.833  0.2307 -0.7764 -0.4983
   44MOL    C9511361   2.740   4.961   3.862 -0.3676 -0.5472  0.3465
   44MOL    O9611362   2.663   4.995   3.770 -0.3368  0.0944  0.3690
   44MOL    C9711363   2.724   5.008   4.001 -0.4348  0.0713 -0.6608
   44MOL    C9811364   2.917   4.937   3.603  0.1262 -0.3963  0.1180
   44MOL    H9911365   2.962   4.767   3.727 -0.8116 -1.1278  0.0974
   44MOL   H10011366   2.905   4.857   3.908 -0.5280  1.0813  0.7413
   44MOL   H10111367   2.623   5.008   4.041 -1.0995 -1.2475 -2.3040
   44MOL   H10211368   2.780   4.950   4.075 -1.6156 -1.7352 -1.1622
   44MOL   H10311369   2.776   5.104   4.000 -1.2384  0.6461  3.4424
   44MOL   H10411370   2.834   4.975   3.544 -0.0259  1.4726  1.4809
   44MOL   H10511371   2.954   5.020   3.664 -1.5401  1.4713 -1.3209
   44MOL   C10611372   3.030   4.885   3.511  0.9879  0.5387 -0.9147
   44MOL   N10711373   3.156   4.886   3.584  0.0534 -0.3297  0.5782
   44MOL   C10811374   3.207   4.785   3.650 -0.4375  0.1481 -0.2644
   44MOL   O10911375   3.178   4.665   3.639  0.4468  1.3244 -0.1622
   44MOL   C11011376   3.333   4.823   3.725 -0.0960  0.6260  0.1803
   44MOL   C11111377   3.035   4.959   3.378 -0.6992  0.8451 -0.0850
   44MOL   H11211378   2.995   4.787   3.478  0.0875 -0.1254  1.9502
   44MOL   H11311379   3.216   4.967   3.572  0.9633 -0.7882  1.9046
   44MOL   H11411380   3.376   4.922   3.709 -1.2250  1.3848  1.6578
   44MOL   H11511381   3.298   4.831   3.828 -2.6856 -0.2275 -0.5921
   44MOL   H11611382   3.415   4.752   3.713  1.2157  1.7528  2.2225
   44MOL   H11711383   2.939   4.947   3.327 -1.4983 -1.9826  1.9590
   44MOL   H11811384   3.033   5.064   3.406 -1.0433  0.9026 -0.3233
   44MOL   C11911385   3.166   4.925   3.297 -0.4421  0.1602 -0.6756
   44MOL   N12011386   3.246   5.044   3.272  0.1707  0.4169 -0.8830
   44MOL   C12111387   3.336   5.096   3.360  0.3987  0.2469  0.8013
   44MOL   O12211388   3.367   5.047   3.471 -0.3952  0.4316 -0.1794
   44MOL   C12311389   3.388   5.226   3.311  0.4997 -0.6446  0.0309
   44MOL   C12411390   3.131   4.865   3.158 -0.3576  0.1547  0.1644
   44MOL   H12511391   3.230   4.856   3.351  1.3029  3.4766  1.6512
   44MOL   H12611392   3.216   5.093   3.189  1.6778  2.2295 -0.4118
   44MOL   H12711393   3.310   5.278   3.254 -0.0205 -2.9106 -1.4019
   44MOL   H12811394   3.440   5.283   3.388  0.1144  1.1931 -1.0235
   44MOL   H12911395   3.476   5.208   3.250  0.5340  2.3926 -0.8936
   44MOL   H13011396   3.073   4.938   3.103 -0.4448 -0.8526 -1.1012
   44MOL   H13111397   3.223   4.870   3.099 -1.1382 -1.1379 -1.1841
   44MOL   C13211398   3.085   4.716   3.140 -0.2500  0.0250 -0.3914
   44MOL   N13311399   2.953   4.699   3.199  0.0411  0.1158  0.1678
   44MOL   C13411400   2.838   4.750   3.147  0.6633 -0.1942 -0.7562
   44MOL   O13511401   2.826   4.829   3.054  0.1705 -0.0277 -0.2102
   44MOL   C13611402   2.712   4.706   3.217  0.2136 -0.0350 -0.8223
   44MOL   C13711403   3.195   4.626   3.196 -0.4710  0.1847 -0.2951
   44MOL   H13811404   3.061   4.686   3.038  1.3417  3.0552 -1.7239
   44MOL   H13911405   2.950   4.630   3.272  3.9380  0.7442  1.0477
   44MOL   H14011406   2.696   4.607   3.176 -1.3084 -0.0291 -0.2531
   44MOL   H14111407   2.745   4.683   3.318 -0.7457 -0.9906 -0.7160
   44MOL   H14211408   2.627   4.774   3.218  0.2159 -0.0278  0.3701
   44MOL   H14311409   3.295   4.650   3.159 -0.3562  1.6405  0.8977
   44MOL   H14411410   3.207   4.646   3.303  0.4646 -0.4108 -0.2783
   44MOL   C14511411   3.160   4.476   3.172  0.1082 -0.9693  1.3192
   44MOL   N14611412   3.261   4.403   3.245  0.0118  0.6899 -0.3717
   44MOL   C14711413   3.271   4.270   3.273  0.0142 -1.0604  0.3420
   44MOL   O14811414   3.186   4.187   3.235 -0.2417  0.4908 -0.4376
   44MOL   C14911415   3.381   4.230   3.365  0.2413  0.2254 -0.2782
   44MOL   C15011416   3.151   4.429   3.025  0.4806 -0.1940 -0.4904
   44MOL   H15111417   3.060   4.462   3.213 -1.6246  0.2546 -2.2754
   44MOL   H15211418   3.328   4.460   3.295 -0.0200  0.7243 -0.3677
   44MOL   H15311419   3.481   4.248   3.326  0.0809  2.9165  0.4802
   44MOL   H15411420   3.382   4.294   3.453  0.3952  0.2694 -0.3118
   44MOL   H15511421   3.359   4.124   3.377 -1.0930  0.3143 -1.7568
   44MOL   H15611422   3.103   4.332   3.038  0.2893  0.0293  0.4792
   44MOL   H15711423   3.076   4.485   2.967  0.0906  0.3001  0.4831
   44MOL   C15811424   3.275   4.403   2.951  0.3579 -0.0016  0.1823
   44MOL   N15911425   3.346   4.523   2.920  0.7062  0.4212  0.0677
   44MOL   C16011426   3.476   4.545   2.937 -0.3897 -0.2649  0.3627
   44MOL   O16111427   3.549   4.472   2.999  0.6056 -0.1033  0.0006
   44MOL   C16211428   3.531   4.678   2.880 -0.1212  0.1959 -0.2995
   44MOL   C16311429   3.251   4.322   2.825 -0.1524  0.1888 -0.0108
   44MOL   H16411430   3.336   4.346   3.021  1.3240  0.9149  0.1043
   44MOL   H16511431   3.304   4.597   2.865  1.6667 -0.0741 -1.3381
   44MOL   H16611432   3.567   4.657   2.779 -0.5590  2.6963 -1.0028
   44MOL   H16711433   3.449   4.749   2.875 -1.8638 -1.7845 -0.8725
   44MOL   H16811434   3.619   4.710   2.935 -0.0547  0.6912 -0.6946
   44MOL   H16911435   3.201   4.378   2.746 -0.0620  0.8764  0.4155
   44MOL   H17011436   3.350   4.294   2.790 -0.9144 -0.8716 -1.3620
   44MOL   C17111437   3.169   4.193   2.839  0.1567  0.4893  0.3693
   44MOL   N17211438   3.235   4.104   2.943 -0.5963  0.1538 -0.1239
   44MOL   C17311439   3.347   4.030   2.938 -0.5523  0.1843 -0.2854
   44MOL   O17411440   3.430   4.041   2.854 -0.1869 -1.0059  0.4372
   44MOL   C17511441   3.363   3.938   3.064  0.1788  0.3937  0.1370
   44MOL   C17611442   3.147   4.117   2.707 -0.3888 -0.3559 -1.4632
   44MOL   H17711443   3.072   4.218   2.883  1.8334  2.3449  3.2557
   44MOL   H17811444   3.183   4.090   3.028  0.2999 -0.1680  0.3729
   44MOL   H17911445   3.264   3.903   3.092  1.0012 -2.2306 -0.1124
   44MOL   H18011446   3.438   3.862   3.042 -2.2271 -2.0553  0.2040
   44MOL   H18111447   3.402   3.996   3.149 -0.3078  0.5608  0.2480
   44MOL   H18211448   3.242   4.080   2.667 -0.9146 -0.8743 -2.2272
   44MOL   H18311449   3.099   4.026   2.742  1.1483 -0.6061  0.0721
   44MOL   C18411450   3.069   4.184   2.591  0.5635  0.1247  0.1373
   44MOL   N18511451   2.926   4.209   2.620  0.4569  0.1598 -0.5096
   44MOL   C18611452   2.870   4.316   2.678 -0.1033  0.0823 -0.4250
   44MOL   O18711453   2.927   4.415   2.704  0.3091 -0.3659  0.4827
   44MOL   C18811454   2.721   4.296   2.697 -0.0691  0.4438 -0.4179
   44MOL   C18911455   3.065   4.107   2.455  0.8006  0.5031  0.6175
   44MOL   H19011456   3.111   4.279   2.559  1.6292 -0.8028 -1.2470
   44MOL   H19111457   2.857   4.143   2.588  0.7487 -0.5144  0.2412
   44MOL   H19211458   2.697   4.192   2.721  3.1162 -0.2898 -0.1547
   44MOL   H19311459   2.691   4.352   2.786  2.2715  3.2267 -1.2888
   44MOL   H19411460   2.669   4.335   2.610  0.2299 -0.5144 -1.0365
   44MOL   H19511461   3.005   4.019   2.480  0.4745  0.8568  1.0924
   44MOL   H19611462   3.000   4.168   2.392  3.6274  0.6699 -2.2689
   44MOL   C19711463   3.201   4.071   2.396  0.1321  0.4740  0.2793
   44MOL   N19811464   3.252   4.194   2.336  0.1236 -0.2583 -0.2536
   44MOL   C19911465   3.382   4.215   2.316  0.3181  0.1524 -0.4733
   44MOL   O20011466   3.473   4.147   2.367 -0.4676  0.4625  0.1103
   44MOL   C20111467   3.412   4.339   2.236 -0.0534  0.7545 -0.4988
   44MOL   C20211468   3.189   3.956   2.286 -0.4887 -0.9340  0.7887
   44MOL   H20311469   3.267   4.051   2.480 -1.7227 -0.7627  1.4703
   44MOL   H20411470   3.186   4.256   2.291 -1.0618  0.2409  2.1033
   44MOL   H20511471   3.483   4.400   2.292 -1.3016  0.9102  0.9463
   44MOL   H20611472   3.456   4.319   2.138  2.2286 -0.3645  0.7144
   44MOL   H20711473   3.329   4.408   2.226  0.3940  1.0806 -2.1816
   44MOL   H20811474   3.105   3.978   2.220 -0.3074 -2.1793  0.1141
   44MOL   H20911475   3.279   3.963   2.225 -0.6883  0.1368  0.6109
   44MOL   C21011476   3.170   3.807   2.349 -0.2363  0.3158  0.9208
   44MOL   N21111477   3.263   3.777   2.450 -0.0114  0.1027  0.6435
   44MOL   C21211478   3.244   3.757   2.583 -0.6523  0.6085 -0.5875
   44MOL   O21311479   3.130   3.758   2.633 -0.2133 -0.1996 -0.7164
   44MOL   C21411480   3.364   3.735   2.676  0.2535  0.5744 -0.3915
   44MOL   C21511481   3.169   3.691   2.249 -0.0225  0.5879  0.3612
   44MOL   H21611482   3.070   3.818   2.393 -0.4201  0.3867  0.4893
   44MOL   H21711483   3.362   3.766   2.430 -0.7166 -3.3075 -1.2352
   44MOL   H21811484   3.391   3.825   2.730 -1.7237  0.4134  0.9228
   44MOL   H21911485   3.338   3.661   2.752  2.4302 -0.3572 -0.5260
   44MOL   H22011486   3.444   3.692   2.615 -0.3001 -1.4763  0.3089
   44MOL   H22111487   3.198   3.728   2.151  2.4527 -1.8127  0.1107
   44MOL   H22211488   3.258   3.630   2.268 -0.5288 -0.2964 -0.0996
   44MOL   C22311489   3.041   3.612   2.236  0.3618  0.0057 -0.1785
   44MOL   N22411490   2.976   3.583   2.367 -0.0265 -0.0948  0.5788
   44MOL   C22511491   3.023   3.496   2.462  0.6320 -0.1285  0.7042
   44MOL   O22611492   3.126   3.422   2.444  0.4715  0.3088 -0.3103
   44MOL   C22711493   2.952   3.503   2.601 -0.0110 -0.0929 -0.2545
   44MOL   C22811494   3.049   3.491   2.143  0.2573 -0.9489  0.1246
   44MOL   H22911495   2.973   3.678   2.184 -0.3429 -1.4627 -1.1552
   44MOL   H23011496   2.895   3.635   2.397 -2.0209 -1.3306 -2.3623
   44MOL   H23111497   2.887   3.590   2.603 -0.0517 -0.1362  1.9147
   44MOL   H23211498   2.886   3.416   2.610 -1.7241  1.4054  2.6385
   44MOL   H23311499   3.018   3.506   2.688 -0.8392  0.7372  0.3555
   44MOL   H23411500   3.117   3.418   2.185  0.5922 -0.0049  1.2522
   44MOL   H23511501   2.956   3.435   2.146  0.2789 -1.2058 -2.3459
   44MOL   C23611502   3.075   3.519   1.992  0.1511 -0.7190  0.1222
   44MOL   N23711503   2.948   3.529   1.920  0.1379 -0.1918 -0.0886
   44MOL   C23811504   2.864   3.630   1.902 -0.1047 -0.1251 -0.6003
   44MOL   O23911505   2.878   3.734   1.962 -0.0574 -0.5090 -0.1344
   44MOL   C24011506   2.750   3.618   1.809 -0.3112 -0.0544 -0.5221
   44MOL   C24111507   3.173   3.420   1.926  0.6518  0.3945  0.6305
   44MOL   H24211508   3.130   3.613   1.980  1.3588 -1.5502 -1.0090
   44MOL   H24311509   2.902   3.444   1.890 -3.2053  0.8449  1.8740
   44MOL   H24411510   2.794   3.662   1.720 -3.1367  2.9746 -0.5363
   44MOL   H24511511   2.738   3.510   1.801  1.8595 -0.4735  1.5936
   44MOL   H24611512   2.653   3.662   1.835 -0.3688  0.4965 -1.6208
   44MOL   H24711513   3.269   3.421   1.978  1.7380 -2.6347 -1.2192
   44MOL   H24811514   3.131   3.320   1.931 -0.6734  0.8875 -0.2501
   44MOL   C24911515   3.210   3.445   1.775  0.6740 -0.3115  0.6079
   44MOL   N25011516   3.329   3.378   1.734  0.3596 -0.2658  0.6874
   44MOL   C25111517   3.324   3.253   1.689 -0.3050  0.5001 -0.1581
   44MOL   O25211518   3.217   3.195   1.665  0.4247 -0.0449  0.1407
   44MOL   C25311519   3.448   3.173   1.689  0.0712 -0.1941 -0.4713
   44MOL   C25411520   3.227   3.590   1.730  0.4976  0.6753  0.4443
   44MOL   H25511521   3.122   3.414   1.718  0.3920 -1.6185  1.7321
   44MOL   H25611522   3.417   3.419   1.761  0.4836  1.1993 -1.8504
   44MOL   H25711523   3.539   3.224   1.721  1.6884 -1.8432 -2.2865
   44MOL   H25811524   3.446   3.094   1.764  1.2132  0.7283  0.5490
   44MOL   H25911525   3.471   3.128   1.592  0.1720  0.6695 -0.8531
   44MOL   H26011526   3.132   3.644   1.728 -1.2306 -2.3194 -0.0238
   44MOL   H26111527   3.302   3.629   1.800 -0.5002  0.5586  1.5967
   44MOL   H26211528   3.260   3.596   1.626 -2.0117 -0.1751 -0.4166
   45MOL     C111529   7.064   7.687   7.803 -0.1905 -0.4699 -0.3560
   45MOL     N211530   7.208   7.689   7.765  0.1077 -0.4838 -0.3308
   45MOL     C311531   7.316   7.709   0.005  0.4898 -0.8410 -0.6048
   45MOL     O411532   7.299   7.774   0.110 -0.5787 -0.1033 -0.2792
   45MOL     C511533   7.446   7.642   7.815 -0.0655  0.0542 -0.2323
   45MOL     C611534   7.003   7.826   7.775 -0.3705 -0.2494 -0.3890
   45MOL     H711535   7.015   7.608   7.747 -5.8284  1.7392  1.1218
   45MOL     H811536   7.223   7.653   7.671  0.8633  0.0376 -0.4131
   45MOL     H911537   7.527   7.675   0.039 -0.9186  1.1437  0.3039
   45MOL    H1011538   7.436   7.533   7.821  1.4787 -0.1206 -0.6134
   45MOL    H1111539   7.482   7.658   7.714  1.2631 -0.8104  0.0968
   45MOL    H1211540   7.054   0.049   0.008 -1.7382 -1.6929  1.8773
   45MOL    H1311541   7.031   0.020   7.676  3.5035 -1.2260  0.2848
   45MOL    H1411542   7.049   7.663   0.068  0.5597  1.0591  0.1205
   45MOL    C1511543   6.858   7.819   7.799 -0.0543 -0.3940  0.2723
   45MOL    N1611544   6.794   7.740   7.692  0.2242 -0.4020 -0.3014
   45MOL    C1711545   6.722   7.624   7.716 -0.2197  0.8015 -0.4907
   45MOL    O1811546   6.715   7.567   7.825  0.0251  0.3431  0.0624
   45MOL    C1911547   6.655   7.564   7.602  0.3913  0.4202 -0.4754
   45MOL    C2011548   6.794   0.126   7.794 -0.1250 -0.1914  0.6136
   45MOL    H2111549   6.859   7.770   0.056 -1.7106  1.2362  1.1479
   45MOL    H2211550   6.783   7.780   7.600  1.8033  0.7723 -0.0127
   45MOL    H2311551   6.603   7.636   7.539 -1.9227 -0.6090  0.2107
   45MOL    H2411552   6.732   7.520   7.538  1.6601  2.2111 -0.2049
   45MOL    H2511553   6.594   7.478   7.631  1.0208 -0.5887 -2.0998
   45MOL    H2611554   6.857   0.195   0.011 -1.7037 -0.3141  2.6016
   45MOL    H2711555   6.803   0.158   7.691 -1.0636 -0.3424  0.4854
   45MOL    C2811556   6.642   0.142   7.835  0.6721  0.8674 -0.3269
   45MOL    N2911557   6.605   0.072   0.121 -0.5982 -0.1380  0.4018
   45MOL    C3011558   6.633   0.121   0.242 -0.8773 -0.1829  0.3934
   45MOL    O3111559   6.712   0.211   0.268 -0.1051 -0.7748 -0.1685
   45MOL    C3211560   6.594   0.036   0.362  0.1044  0.2063  0.8816
   45MOL    C3311561   6.538   0.106   7.732 -0.8138 -0.1596  0.3714
   45MOL    H3411562   6.626   0.249   0.005  1.7299  1.2295 -2.3380
   45MOL    H3511563   6.545   7.832   0.106 -1.4000  0.2208  1.6703
   45MOL    H3611564   6.486   0.044   0.366  0.0992  1.0620 -0.4181
   45MOL    H3711565   6.620   7.770   0.357  1.4862  0.4362  2.6115
   45MOL    H3811566   6.643   0.078   0.450  2.6138 -1.4476  0.3170
   45MOL    H3911567   6.557   0.160   7.640  2.4691 -0.8820  0.5398
   45MOL    H4011568   6.535   7.838   7.712  0.9925 -0.0798 -0.4703
   45MOL    C4111569   6.394   0.140   7.773  0.1209  0.4061  0.9120
   45MOL    N4211570   6.299   0.071   7.679 -0.5315 -0.4173 -0.2871
   45MOL    C4311571   6.238   7.799   7.680 -0.0797 -1.1291 -0.8169
   45MOL    O4411572   6.136   7.785   7.611  0.4322 -0.7230 -0.1440
   45MOL    C4511573   6.293   7.683   7.752  0.0671  0.2916 -0.2907
   45MOL    C4611574   6.360   0.291   7.768 -0.4966  0.2025  0.1874
   45MOL    H4711575   6.378   0.105   0.035 -3.1689 -4.6363 -1.1164
   45MOL    H4811576   6.273   0.136   7.606 -3.6833  2.1329  2.9250
   45MOL    H4911577   6.384   7.701   7.809  0.1206  1.2596 -0.6662
   45MOL    H5011578   6.212   7.652   7.817 -2.1712  1.1428 -2.5745
   45MOL    H5111579   6.309   7.601   7.682 -2.0879 -0.6260  0.2659
   45MOL    H5211580   6.447   0.339   7.813 -0.0265  0.9518 -1.4949
   45MOL    H5311581   6.344   0.334   7.669  1.9094  0.9089  0.0852
   45MOL    C5411582   6.245   0.342   0.028  0.4424 -0.4023  0.3836
   45MOL    N5511583   6.127   0.268   0.019 -0.1929  0.2373  0.3485
   45MOL    C5611584   6.103   0.153   0.090  0.4324  0.4352  0.2612
   45MOL    O5711585   6.179   0.115   0.179 -0.3706  0.4776 -0.4538
   45MOL    C5811586   5.971   0.066   0.076 -0.1211  0.5509 -0.0655
   45MOL    C5911587   6.216   0.491   0.012  0.0806 -0.0093 -0.0084
   45MOL    H6011588   6.284   0.324   0.128  3.1369 -2.3683 -0.9228
   45MOL    H6111589   6.055   0.295   7.793 -0.5495 -1.5959 -0.0591
   45MOL    H6211590   5.985   7.810   0.026  1.6153  1.6674 -1.7720
   45MOL    H6311591   5.923   0.038   0.169  1.7550 -1.8677  0.2109
   45MOL    H6411592   5.903   0.126   0.015 -1.7103 -0.6032  0.5369
   45MOL    H6511593   6.309   0.548   0.005 -0.4910  0.6667 -3.1245
   45MOL    H6611594   6.178   0.518   7.753 -0.3551  0.3967  0.2683
   45MOL    C6711595   6.124   0.557   0.121  0.5276  0.6518  0.7676
   45MOL    N6811596   6.029   0.645   0.056 -0.0885 -0.5912 -0.0134
   45MOL    C6911597   5.908   0.596   0.022 -0.2744 -0.2986 -0.1337
   45MOL    O7011598   5.885   0.482   7.822 -0.3385 -0.0893 -0.1461
   45MOL    C7111599   5.789   0.693   0.030  0.6837 -0.3869 -0.8317
   45MOL    C7211600   6.211   0.641   0.220  0.6535  0.7470  0.7751
   45MOL    H7311601   6.079   0.476   0.179  0.8891  0.6310  1.0215
   45MOL    H7411602   6.043   0.746   0.057  0.1905 -0.6188  1.8280
   45MOL    H7511603   5.813   0.771   0.103 -1.9801 -1.6857  1.5056
   45MOL    H7611604   5.780   0.744   7.774 -1.1769 -0.3662 -0.6558
   45MOL    H7711605   5.698   0.646   0.065  0.6373  0.6977  0.5568
   45MOL    H7811606   6.295   0.585   0.261  1.1089  0.4181 -0.5541
   45MOL    H7911607   6.248   0.726   0.162  0.2356  0.0668 -0.5153
   45MOL    C8011608   6.122   0.707   0.327 -0.0902  0.1716 -0.6491
   45MOL    N8111609   6.176   0.817   0.405  0.1127 -0.2248 -0.8472
   45MOL    C8211610   6.189   0.944   0.358  0.1170  0.6196 -0.3180
   45MOL    O8311611   6.157   0.986   0.250 -0.4311 -0.1790 -0.2891
   45MOL    C8411612   6.260   1.054   0.434  0.1348  0.0077 -0.8594
   45MOL    C8511613   6.063   0.604   0.431  0.3223  0.0190 -0.3853
   45MOL    H8611614   6.037   0.750   0.274 -1.8277  0.1026  1.9683
   45MOL    H8711615   6.201   0.803   0.502  0.7404 -1.4494 -1.1706
   45MOL    H8811616   6.343   1.101   0.381  1.5152  1.5291  2.5096
   45MOL    H8911617   6.188   1.131   0.461  1.4443  0.0560  2.8270
   45MOL    H9011618   6.302   1.029   0.532  0.4017 -2.5635 -1.5941
   45MOL    H9111619   6.063   0.504   0.389  0.5611 -0.3960  0.5946
   45MOL    H9211620   6.134   0.600   0.513  2.3827  1.9417 -2.0168
   45MOL    C9311621   5.922   0.655   0.485 -0.3977 -0.2730  0.2881
   45MOL    N9411622   5.901   0.602   0.613 -0.6146 -0.0252  0.5223
   45MOL    C9511623   5.858   0.677   0.714  0.4790  0.2261  0.4912
   45MOL    O9611624   5.807   0.789   0.702 -0.2710 -0.7162  0.5661
   45MOL    C9711625   5.877   0.612   0.856 -0.2079  0.1535  0.1790
   45MOL    C9811626   5.805   0.619   0.394 -0.5983 -0.2447 -0.1149
   45MOL    H9911627   5.933   0.763   0.498 -1.4255 -0.3811  2.3349
   45MOL   H10011628   5.919   0.505   0.636 -2.9349 -0.3272  1.2480
   45MOL   H10111629   5.947   0.530   0.842 -1.9255 -0.9182 -2.4438
   45MOL   H10211630   5.931   0.679   0.923  2.3462 -1.2313 -0.4349
   45MOL   H10311631   5.780   0.578   0.892  0.4389 -0.5951  1.2507
   45MOL   H10411632   5.827   0.661   0.296  0.5580 -0.4554  0.0427
   45MOL   H10511633   5.797   0.510   0.388  0.7882 -0.2591 -2.1292
   45MOL   C10611634   5.665   0.672   0.430  0.5613  0.0687 -0.0208
   45MOL   N10711635   5.562   0.590   0.366 -0.0013 -0.4930  0.6735
   45MOL   C10811636   5.456   0.527   0.423 -0.1421  0.2486 -0.0346
   45MOL   O10911637   5.426   0.543   0.542  0.2721 -0.3711  0.2080
   45MOL   C11011638   5.370   0.445   0.333  0.0593  0.3554 -0.1105
   45MOL   C11111639   5.660   0.824   0.393  0.9952 -0.6755 -0.0582
   45MOL   H11211640   5.647   0.662   0.537 -1.1415 -1.1024 -0.3837
   45MOL   H11311641   5.569   0.582   0.265  0.1394  0.2174  0.6266
   45MOL   H11411642   5.278   0.402   0.373 -0.3409 -0.3985 -1.8011
   45MOL   H11511643   5.345   0.496   0.240 -1.0745  2.5770  1.3712
   45MOL   H11611644   5.437   0.364   0.305  0.0787 -0.7005  2.8467
   45MOL   H11711645   5.750   0.878   0.420 -0.1641  2.4644 -2.1492
   45MOL   H11811646   5.656   0.841   0.286  1.8243 -1.3000 -0.1926
   45MOL   C11911647   5.550   0.914   0.460  0.5939  0.0027  1.0255
   45MOL   N12011648   5.549   0.923   0.607  0.3790 -0.1481  0.5640
   45MOL   C12111649   5.490   1.014   0.685 -0.3582  0.1469  0.1124
   45MOL   O12211650   5.428   1.114   0.644 -0.0458 -0.0606  0.1324
   45MOL   C12311651   5.509   0.999   0.835 -0.1678 -0.2684  0.0586
   45MOL   C12411652   5.404   0.893   0.398  0.3879 -0.1046  0.2795
   45MOL   H12511653   5.579   1.012   0.423  2.2603 -0.2926  1.5179
   45MOL   H12611654   5.610   0.859   0.655  1.6056  1.0845  0.6405
   45MOL   H12711655   5.511   1.098   0.881 -0.7715 -0.4591  0.4968
   45MOL   H12811656   5.421   0.949   0.873 -0.9202  0.2634 -0.9496
   45MOL   H12911657   5.590   0.940   0.877 -0.8308 -1.4194 -0.2564
   45MOL   H13011658   5.410   0.799   0.343 -1.6662  0.7364 -1.4507
   45MOL   H13111659   5.324   0.876   0.469 -2.7151  0.8232 -2.8667
   45MOL   C13211660   5.359   0.986   0.294  0.8547  0.1243  0.1141
   45MOL   N13311661   5.361   1.118   0.346 -0.1526  0.1410  0.6626
   45MOL   C13411662   5.381   1.232   0.273 -0.2998 -0.0869 -0.5685
   45MOL   O13511663   5.386   1.240   0.150  0.2589 -0.0904  0.0326
   45MOL   C13611664   5.410   1.360   0.355  0.5155  0.6193  0.3959
   45MOL   C13711665   5.215   0.944   0.240  0.3172 -0.0330 -0.2207
   45MOL   H13811666   5.441   0.987   0.222  1.4455  0.8120  0.7841
   45MOL   H13911667   5.339   1.121   0.444  2.6763  1.9695  1.3088
   45MOL   H14011668   5.358   1.355   0.451  0.6459 -0.6423  0.4158
   45MOL   H14111669   5.517   1.365   0.375  0.8302 -2.7847 -0.1079
   45MOL   H14211670   5.370   1.445   0.300  1.4521 -0.1726 -1.5410
   45MOL   H14311671   5.152   0.952   0.328  0.8880 -1.3278  0.3164
   45MOL   H14411672   5.187   1.019   0.165  1.2401  1.7780  1.1981
   45MOL   C14511673   5.191   0.805   0.181  0.0965  0.5185  0.4001
   45MOL   N14611674   5.256   0.790   0.051 -0.2686 -0.2040  0.7944
   45MOL   C14711675   5.371   0.737   0.024  0.6823 -0.6346 -0.6070
   45MOL   O14811676   5.460   0.706   0.108  0.1849  0.3815 -0.4474
   45MOL   C14911677   5.415   0.722   7.721  0.1117  0.0931  0.4539
   45MOL   C15011678   5.048   0.743   0.170  0.3818  0.6007  0.0695
   45MOL   H15111679   5.241   0.730   0.243 -3.0800 -1.2606  0.8824
   45MOL   H15211680   5.200   0.832   7.818 -1.4626  0.0674  1.8385
   45MOL   H15311681   5.476   0.806   7.689  0.6407  0.6413  2.7966
   45MOL   H15411682   5.459   0.623   7.710 -0.3982 -0.4191  2.7028
   45MOL   H15511683   5.331   0.713   7.652  0.6327  1.7214 -0.4173
   45MOL   H15611684   4.979   0.825   0.156 -2.1091 -1.2852  0.9996
   45MOL   H15711685   5.033   0.687   0.078  2.0294  0.5181 -0.1664
   45MOL   C15811686   5.008   0.659   0.292  0.5843  0.1577  0.1349
   45MOL   N15911687   4.900   0.561   0.260  0.3469 -0.4933  1.0789
   45MOL   C16011688   4.781   0.576   0.202  0.6892  0.5783  0.6816
   45MOL   O16111689   4.728   0.681   0.185  0.0876  0.2339  0.0724
   45MOL   C16211690   4.714   0.442   0.154  0.1140 -0.1052  0.7588
   45MOL   C16311691   4.960   0.754   0.408  0.5487  0.3494  0.7701
   45MOL   H16411692   5.090   0.602   0.335 -0.1190  0.0303  1.3539
   45MOL   H16511693   4.929   0.465   0.252 -1.2349 -0.8675 -0.6396
   45MOL   H16611694   4.770   0.359   0.197 -1.2830 -2.4409 -1.7843
   45MOL   H16711695   4.616   0.444   0.202 -0.4143 -0.3930 -0.2915
   45MOL   H16811696   4.710   0.445   0.045 -1.7416 -1.9167  0.7382
   45MOL   H16911697   5.040   0.828   0.412 -0.2195  1.1755  0.7639
   45MOL   H17011698   4.875   0.811   0.372 -0.3423 -1.8603 -0.7431
   45MOL   C17111699   4.947   0.690   0.543  0.3027 -0.1555  0.2596
   45MOL   N17211700   4.861   0.766   0.640 -0.2037  0.4027  0.7438
   45MOL   C17311701   4.830   0.900   0.633  0.7151 -0.3727 -0.3332
   45MOL   O17411702   4.896   0.986   0.576 -0.2217  0.6402  0.4845
   45MOL   C17511703   4.699   0.943   0.705  0.1485  0.3082  0.3057
   45MOL   C17611704   5.083   0.659   0.606 -0.0622 -0.2237  0.7395
   45MOL   H17711705   4.902   0.596   0.511  0.3527 -1.0222  2.6402
   45MOL   H17811706   4.810   0.717   0.712  1.7152 -1.7778  0.6965
   45MOL   H17911707   4.612   0.910   0.648 -0.2409  0.6796  0.6925
   45MOL   H18011708   4.694   0.898   0.804 -0.0042 -0.2248  0.0634
   45MOL   H18111709   4.698   1.051   0.715 -1.0459  0.1139  2.5054
   45MOL   H18211710   5.118   0.586   0.533 -1.1803 -1.9155  1.8653
   45MOL   H18311711   5.146   0.748   0.607 -1.5180  0.8273  1.4208
   45MOL   C18411712   5.094   0.589   0.743 -0.3581 -0.0725 -0.4838
   45MOL   N18511713   5.236   0.566   0.758 -0.1282 -0.1165 -0.3763
   45MOL   C18611714   5.304   0.548   0.874 -0.3285 -0.1366  0.2098
   45MOL   O18711715   5.238   0.547   0.984  0.1568 -0.0072 -0.0717
   45MOL   C18811716   5.451   0.537   0.872 -0.8885  0.2833 -0.2025
   45MOL   C18911717   5.029   0.447   0.753 -0.4960  0.2918 -0.1034
   45MOL   H19011718   5.058   0.657   0.820  1.1780 -1.1070  1.1617
   45MOL   H19111719   5.288   0.565   0.672  0.0002  1.2920 -0.3222
   45MOL   H19211720   5.482   0.522   0.975 -0.5904  0.4466 -0.2661
   45MOL   H19311721   5.466   0.437   0.832 -0.5391  0.4010 -0.3705
   45MOL   H19411722   5.508   0.614   0.820  0.4013  0.0524  0.8319
   45MOL   H19511723   5.067   0.390   0.668 -0.2797 -0.8829  0.7636
   45MOL   H19611724   5.071   0.375   0.823 -1.8661 -2.2373 -1.7530
   45MOL   C19711725   4.873   0.428   0.759 -0.5664  0.2875 -0.2117
   45MOL   N19811726   4.833   0.476   0.891  0.0263 -0.0955 -0.0901
   45MOL   C19911727   4.732   0.566   0.911 -0.0306  0.3278 -0.0201
   45MOL   O20011728   4.688   0.639   0.820  0.5797 -0.0607  0.5264
   45MOL   C20111729   4.690   0.592   1.058 -0.3221  0.0371 -0.4362
   45MOL   C20211730   4.848   0.278   0.741  0.0446 -0.2844  0.8868
   45MOL   H20311731   4.826   0.487   0.681 -1.5657 -0.5406 -0.2325
   45MOL   H20411732   4.870   0.438   0.977 -1.4786 -0.3965  0.4385
   45MOL   H20511733   4.772   0.615   1.126  1.4443 -0.3235 -2.3843
   45MOL   H20611734   4.613   0.669   1.066 -0.0892  0.5318 -2.4980
   45MOL   H20711735   4.654   0.495   1.093  0.0282  0.0978  0.0967
   45MOL   H20811736   4.872   0.266   0.635 -1.2507  4.4236 -0.0948
   45MOL   H20911737   4.911   0.216   0.804  0.1972  0.4112  1.4342
   45MOL   C21011738   4.695   0.243   0.741  0.0596 -1.1347  0.0933
   45MOL   N21111739   4.678   0.093   0.731 -0.1925  0.3468 -0.7523
   45MOL   C21211740   4.636   0.017   0.835 -0.0649 -0.8978  0.1766
   45MOL   O21311741   4.634   0.061   0.948 -0.2264 -0.1437 -0.2490
   45MOL   C21411742   4.605   7.711   0.807  0.6356 -0.0484 -0.1045
   45MOL   C21511743   4.621   0.310   0.619 -0.3422  0.9881 -0.5108
   45MOL   H21611744   4.638   0.284   0.824  2.0172  0.8784  0.4675
   45MOL   H21711745   4.699   0.050   0.642  0.8570 -0.1197 -0.2820
   45MOL   H21811746   4.567   7.657   0.894  1.3112 -1.8952 -0.9364
   45MOL   H21911747   4.540   7.697   0.721 -0.0684  0.7917  0.2856
   45MOL   H22011748   4.698   7.658   0.785  1.6562  1.7275 -0.1315
   45MOL   H22111749   4.693   0.383   0.581  0.9810  0.1265  0.2725
   45MOL   H22211750   4.612   0.246   0.531  2.1412  0.7251 -0.6255
   45MOL   C22311751   4.484   0.374   0.634 -0.7197  0.1337 -0.5465
   45MOL   N22411752   4.394   0.294   0.716 -0.5799  0.1212 -0.1308
   45MOL   C22511753   4.344   0.168   0.692  0.0401  0.1671 -0.1054
   45MOL   O22611754   4.346   0.107   0.583 -0.3042  0.1137  0.2047
   45MOL   C22711755   4.284   0.082   0.813 -0.2138 -0.2009 -1.1220
   45MOL   C22811756   4.423   0.410   0.502 -0.0646 -0.5715  0.7457
   45MOL   H22911757   4.500   0.469   0.686 -1.3469 -0.6570  1.1130
   45MOL   H23011758   4.378   0.328   0.810 -0.3814  0.3880 -0.1923
   45MOL   H23111759   4.285   0.137   0.907  2.4578  0.8128 -1.6921
   45MOL   H23211760   4.180   0.050   0.807 -0.2191 -0.2485 -0.7424
   45MOL   H23311761   4.343   7.833   0.834 -1.1183 -0.5561 -0.0261
   45MOL   H23411762   4.486   0.395   0.414  0.4750  2.0270  0.6501
   45MOL   H23511763   4.344   0.338   0.481 -0.0903 -0.7278  1.3496
   45MOL   C23611764   4.358   0.553   0.504 -0.1674 -0.6949  0.3764
   45MOL   N23711765   4.240   0.550   0.413 -0.4920 -0.6758  0.3197
   45MOL   C23811766   4.117   0.531   0.466 -0.2475 -0.0741  0.4424
   45MOL   O23911767   4.099   0.484   0.581 -0.0335  0.4103  0.2904
   45MOL   C24011768   4.004   0.568   0.373 -0.1034 -0.5120  1.0827
   45MOL   C24111769   4.462   0.665   0.462 -0.4770  0.0864  0.5043
   45MOL   H24211770   4.337   0.585   0.606 -1.1154 -1.1663  0.3386
   45MOL   H24311771   4.256   0.585   0.319  1.1353 -0.6557  0.5764
   45MOL   H24411772   3.907   0.534   0.410 -1.8805 -0.0137 -2.7977
   45MOL   H24511773   4.012   0.671   0.341 -1.5060 -0.2975  1.3911
   45MOL   H24611774   4.021   0.505   0.286  1.4597  2.4838 -0.8587
   45MOL   H24711775   4.496   0.711   0.555 -0.2015  1.4631 -0.2679
   45MOL   H24811776   4.561   0.627   0.436 -1.6189 -1.4757 -1.7732
   45MOL   C24911777   4.427   0.774   0.359 -0.2232 -0.3052  0.2850
   45MOL   N25011778   4.449   0.723   0.219  0.4262  0.5265  0.7016
   45MOL   C25111779   4.358   0.684   0.132  0.2625  0.5446  0.3458
   45MOL   O25211780   4.238   0.672   0.163 -0.5465  0.1191 -1.2222
   45MOL   C25311781   4.403   0.666   7.828  0.0693  0.4804 -0.0411
   45MOL   C25411782   4.510   0.906   0.379  0.2425 -0.0714  0.5141
   45MOL   H25511783   4.320   0.797   0.364 -0.0030  0.7638  0.2026
   45MOL   H25611784   4.543   0.710   0.186  0.0646 -2.2424  0.5956
   45MOL   H25711785   4.510   0.642   7.823  0.2901  1.3854  0.2010
   45MOL   H25811786   4.351   0.578   7.791 -0.0559  0.4882  0.1165
   45MOL   H25911787   4.380   0.758   7.776  0.0315 -0.0904 -1.0478
   45MOL   H26011788   4.486   0.975   0.460  1.0713  0.3224  0.4293
   45MOL   H26111789   4.612   0.884   0.410  0.1540 -1.5806 -0.2027
   45MOL   H26211790   4.522   0.958   0.284  0.4654 -2.2440 -0.6937
   46MOL     C111791   6.680   3.276   1.255  0.5626  0.8414  0.1467
   46MOL     N211792   6.784   3.370   1.292 -0.9635  0.0625  0.4702
   46MOL     C311793   6.877   3.426   1.205 -0.4082 -0.5891  0.4644
   46MOL     O411794   6.898   3.382   1.092  0.4184  0.0917  0.1881
   46MOL     C511795   6.961   3.552   1.247  0.0483  0.2931  0.3378
   46MOL     C611796   6.569   3.272   1.362 -0.1992 -0.1642 -0.2618
   46MOL     H711797   6.634   3.301   1.160 -1.4760 -0.4713  0.7447
   46MOL     H811798   6.776   3.414   1.383 -1.2943 -0.1981  0.5677
   46MOL     H911799   6.993   3.621   1.168 -0.9650  1.3109  0.7899
   46MOL    H1011800   6.890   3.608   1.308 -0.1242 -1.0981  1.4210
   46MOL    H1111801   7.041   3.524   1.315 -0.0204 -1.3668 -0.2458
   46MOL    H1211802   6.577   3.362   1.422  1.4146 -0.9019  0.6613
   46MOL    H1311803   6.466   3.265   1.325 -0.3302  0.6103 -0.0443
   46MOL    H1411804   6.719   3.174   1.253 -1.5402  0.0106 -0.1411
   46MOL    C1511805   6.565   3.162   1.477  0.2340  0.3908 -0.1493
   46MOL    N1611806   6.536   3.026   1.433  0.2380  0.3020  0.2507
   46MOL    C1711807   6.581   2.917   1.494 -1.6849  0.0362  0.2812
   46MOL    O1811808   6.674   2.924   1.573 -0.0089 -0.2321 -0.1907
   46MOL    C1911809   6.538   2.779   1.441 -0.2470  0.0996  0.3101
   46MOL    C2011810   6.453   3.198   1.586 -0.3472 -0.1344 -0.0946
   46MOL    H2111811   6.665   3.168   1.520 -0.1715 -0.9915  1.0432
   46MOL    H2211812   6.472   3.018   1.356  1.7258 -1.7246 -0.7911
   46MOL    H2311813   6.431   2.767   1.426 -0.8546 -0.9883  4.7469
   46MOL    H2411814   6.591   2.755   1.349  1.7731  1.4625  1.0653
   46MOL    H2511815   6.573   2.701   1.509  4.0602  1.6320  0.0231
   46MOL    H2611816   6.422   3.301   1.572  0.8795  0.5625  1.9967
   46MOL    H2711817   6.369   3.131   1.573 -0.5723  0.1735 -0.2101
   46MOL    C2811818   6.483   3.167   1.736  0.4166 -0.4878 -0.5395
   46MOL    N2911819   6.376   3.199   1.839  0.1203  0.1655 -0.1378
   46MOL    C3011820   6.365   3.121   1.947 -0.7637 -0.6301 -0.1443
   46MOL    O3111821   6.422   3.013   1.963 -0.3781  0.3189  0.0182
   46MOL    C3211822   6.294   3.190   2.061  0.2302  0.6786  0.6709
   46MOL    C3311823   6.618   3.212   1.794 -0.2546  0.3887  0.3901
   46MOL    H3411824   6.493   3.059   1.735  1.6439 -0.3908 -0.1773
   46MOL    H3511825   6.332   3.289   1.826 -0.5161  0.0759  1.2870
   46MOL    H3611826   6.354   3.266   2.111  0.9028  0.0397  0.8405
   46MOL    H3711827   6.202   3.235   2.022 -1.4945 -2.5996  0.8167
   46MOL    H3811828   6.257   3.124   2.139 -0.2339  0.9313  0.6675
   46MOL    H3911829   6.639   3.159   1.887  0.6112  2.0313  1.1509
   46MOL    H4011830   6.693   3.175   1.725 -0.8779 -0.3214  0.0865
   46MOL    C4111831   6.630   3.371   1.811 -0.4855 -0.8723 -0.1656
   46MOL    N4211832   6.766   3.425   1.774  0.0527 -0.2788 -0.3889
   46MOL    C4311833   6.802   3.497   1.665 -0.0467 -0.1157 -0.3012
   46MOL    O4411834   6.724   3.510   1.568  0.4831 -0.1394  0.0705
   46MOL    C4511835   6.933   3.568   1.666  0.2187 -0.6081 -0.4546
   46MOL    C4611836   6.588   3.430   1.940  0.1158  0.1215 -0.1393
   46MOL    H4711837   6.561   3.414   1.739 -1.3044 -0.0438  1.0914
   46MOL    H4811838   6.837   3.402   1.842 -1.4272 -1.3407  0.8587
   46MOL    H4911839   6.981   3.555   1.569  2.0978  1.3355  0.1814
   46MOL    H5011840   6.935   3.676   1.682 -0.1705 -0.6838  0.1367
   46MOL    H5111841   6.994   3.523   1.744 -1.1014  0.8252  1.4626
   46MOL    H5211842   6.598   3.536   1.919  0.6153  0.0926 -0.0446
   46MOL    H5311843   6.483   3.422   1.968  0.7509 -1.5669  1.9113
   46MOL    C5411844   6.678   3.423   2.069 -0.2356 -0.2482  0.9064
   46MOL    N5511845   6.736   3.288   2.096 -0.5568  0.1993  0.0614
   46MOL    C5611846   6.860   3.246   2.056 -0.0467 -0.1431  0.1654
   46MOL    O5711847   6.934   3.306   1.979  0.5449 -0.0920  0.2172
   46MOL    C5811848   6.910   3.125   2.137 -0.7334 -0.1457  0.2089
   46MOL    C5911849   6.610   3.474   2.194  0.2747 -0.7813  0.4231
   46MOL    H6011850   6.759   3.494   2.055 -2.0697  1.2575 -2.7701
   46MOL    H6111851   6.693   3.222   2.160 -2.4426 -0.4646 -1.8414
   46MOL    H6211852   6.825   3.062   2.163  0.2236 -1.3410  0.4877
   46MOL    H6311853   6.980   3.071   2.073 -1.3928 -0.3806 -0.3186
   46MOL    H6411854   6.957   3.176   2.221 -0.1126  0.6937 -0.6321
   46MOL    H6511855   6.571   3.572   2.166 -3.1100 -1.3033  2.9679
   46MOL    H6611856   6.515   3.424   2.210  0.0043 -0.0179  1.2824
   46MOL    C6711857   6.694   3.494   2.325 -0.0085  0.6229  0.2698
   46MOL    N6811858   6.600   3.552   2.422 -0.4203  0.1250  0.5679
   46MOL    C6911859   6.537   3.496   2.531  0.0734 -0.8626 -0.6939
   46MOL    O7011860   6.564   3.382   2.577 -0.4564 -0.2442 -0.2254
   46MOL    C7111861   6.424   3.576   2.594  0.2851  0.3981  0.5088
   46MOL    C7211862   6.823   3.570   2.305 -0.8129 -0.0850 -0.0829
   46MOL    H7311863   6.714   3.395   2.367 -1.2496  1.3452  2.6373
   46MOL    H7411864   6.585   3.650   2.402  0.6267  0.3027  0.6384
   46MOL    H7511865   6.427   3.553   2.700 -0.3076 -0.0153  0.4381
   46MOL    H7611866   6.431   3.685   2.593  0.6553  0.3718 -0.8176
   46MOL    H7711867   6.323   3.546   2.565  1.1682 -0.2836 -2.0465
   46MOL    H7811868   6.882   3.520   2.229 -0.2872 -0.8082  0.7956
   46MOL    H7911869   6.781   3.660   2.260  2.1254  1.2352 -0.2915
   46MOL    C8011870   6.917   3.616   2.420 -0.3749  0.0292 -0.1462
   46MOL    N8111871   7.010   3.712   2.364 -0.0217 -0.2419  0.8197
   46MOL    C8211872   7.062   3.813   2.432 -0.3204 -0.2863 -0.0754
   46MOL    O8311873   7.026   3.848   2.545  0.1570  0.8097  0.5450
   46MOL    C8411874   7.156   3.897   2.351 -0.5779 -0.4951 -0.3315
   46MOL    C8511875   6.994   3.494   2.481  0.1096  0.3883 -0.5919
   46MOL    H8611876   6.859   3.657   2.502 -2.7580 -0.5615 -1.5006
   46MOL    H8711877   7.050   3.684   2.275  0.0717 -0.5037  0.9463
   46MOL    H8811878   7.212   3.846   2.273  0.2963  0.2450 -0.1875
   46MOL    H8911879   7.092   3.972   2.304 -0.2085 -0.0350 -0.0985
   46MOL    H9011880   7.241   3.934   2.407 -0.0324 -2.8610  0.4669
   46MOL    H9111881   6.997   3.422   2.399  0.2168  1.2209 -1.3189
   46MOL    H9211882   7.097   3.528   2.493 -0.0724  0.8791 -0.4028
   46MOL    C9311883   6.934   3.435   2.610  0.5627 -0.0068 -0.6558
   46MOL    N9411884   6.940   3.524   2.725 -0.9355 -0.6191 -0.7618
   46MOL    C9511885   7.052   3.578   2.777 -0.4213 -0.0421  0.3182
   46MOL    O9611886   7.165   3.552   2.741  0.1856  0.1782 -0.3752
   46MOL    C9711887   7.033   3.685   2.879  0.3351  0.2526  0.1625
   46MOL    C9811888   6.994   3.295   2.648  1.2307  0.4403  0.1851
   46MOL    H9911889   6.828   3.425   2.587  0.4646  1.9115 -1.0849
   46MOL   H10011890   6.859   3.572   2.760 -0.5777 -0.0258 -0.7281
   46MOL   H10111891   7.058   3.781   2.833  1.7140 -0.3312 -0.3381
   46MOL   H10211892   6.936   3.686   2.928  0.3887 -0.2078  0.2796
   46MOL   H10311893   7.106   3.667   2.958 -0.9659  1.8457  1.7435
   46MOL   H10411894   6.974   3.229   2.563 -1.2723  1.2978  0.0663
   46MOL   H10511895   7.102   3.305   2.648  1.3288  0.1394  4.0353
   46MOL   C10611896   6.940   3.223   2.772  0.0505  0.0777 -0.3287
   46MOL   N10711897   6.985   3.082   2.767 -0.0763 -0.3489 -0.3535
   46MOL   C10811898   7.091   3.021   2.820  0.5263 -0.3299 -0.7767
   46MOL   O10911899   7.182   3.084   2.883 -0.7293  0.0638  0.1200
   46MOL   C11011900   7.101   2.875   2.794 -0.0173 -0.2962 -0.0515
   46MOL   C11111901   6.791   3.221   2.797 -0.0593 -0.2061 -0.0878
   46MOL   H11211902   6.987   3.268   2.859  2.2999 -1.3186 -0.7672
   46MOL   H11311903   6.924   3.015   2.724  0.6972 -1.4697  0.2635
   46MOL   H11411904   7.203   2.850   2.821  0.7926  3.0544  0.2426
   46MOL   H11511905   7.034   2.807   2.848  0.0890 -0.7971 -0.5515
   46MOL   H11611906   7.080   2.848   2.691 -1.4288 -2.0732  0.6799
   46MOL   H11711907   6.760   3.323   2.773 -0.6499 -0.8588 -2.1812
   46MOL   H11811908   6.740   3.169   2.716 -0.7693  1.4630 -0.7463
   46MOL   C11911909   6.747   3.180   2.943 -0.5812 -0.1680 -0.1416
   46MOL   N12011910   6.610   3.148   2.933 -0.4285 -0.3396  0.7907
   46MOL   C12111911   6.560   3.025   2.953 -0.1768 -0.5651 -0.6656
   46MOL   O12211912   6.627   2.929   2.986  0.3619 -0.8038  0.1547
   46MOL   C12311913   6.409   3.005   2.965 -0.4931 -0.1249  0.1225
   46MOL   C12411914   6.776   3.287   3.053  0.7491  0.8946 -1.0612
   46MOL   H12511915   6.802   3.088   2.960  1.3311  0.9424 -0.2413
   46MOL   H12611916   6.552   3.226   2.907  1.4970  0.8585  0.0260
   46MOL   H12711917   6.386   2.977   3.068  0.1099 -2.1647 -0.2627
   46MOL   H12811918   6.343   3.090   2.949 -1.9422 -1.0046  1.2209
   46MOL   H12911919   6.387   2.929   2.889  1.7309 -0.1577 -0.5337
   46MOL   H13011920   6.884   3.285   3.067  0.4479  0.5308  1.4307
   46MOL   H13111921   6.742   3.373   2.996  0.7177  0.7738 -1.2265
   46MOL   C13211922   6.708   3.272   3.194  0.1262 -0.0968 -0.2323
   46MOL   N13311923   6.735   3.390   3.279 -0.3108  0.0649 -0.0552
   46MOL   C13411924   6.668   3.503   3.270  0.7798 -0.3875 -0.1464
   46MOL   O13511925   6.575   3.517   3.189  0.0111 -0.3454 -0.3662
   46MOL   C13611926   6.683   3.605   3.377 -0.0071  0.0886 -0.0163
   46MOL   C13711927   6.766   3.149   3.266 -0.0319  0.0354 -0.2779
   46MOL   H13811928   6.601   3.254   3.191  0.3034 -1.2621  0.0920
   46MOL   H13911929   6.797   3.389   3.358 -0.1020 -0.8704 -0.2264
   46MOL   H14011930   6.679   3.547   3.469  1.6705  0.8416  0.5465
   46MOL   H14111931   6.779   3.656   3.374  1.7755 -2.9896  2.0558
   46MOL   H14211932   6.601   3.676   3.383  1.7109  2.0093  0.9907
   46MOL   H14311933   6.758   3.067   3.194 -1.7728  0.1559 -0.2355
   46MOL   H14411934   6.871   3.164   3.291  0.2611 -0.1865 -1.3580
   46MOL   C14511935   6.696   3.099   3.397 -0.1057 -0.4403  0.5146
   46MOL   N14611936   6.800   3.031   3.476  0.1023  0.0232 -0.2052
   46MOL   C14711937   6.826   3.068   3.599  1.0287 -0.5997 -0.3508
   46MOL   O14811938   6.750   3.146   3.668  0.3258  0.7166  0.1045
   46MOL   C14911939   6.955   3.010   3.659  0.0676 -0.1817 -0.6212
   46MOL   C15011940   6.575   3.017   3.364  0.6227 -0.4786  0.4797
   46MOL   H15111941   6.658   3.189   3.446 -1.3104 -0.6756  0.0240
   46MOL   H15211942   6.871   2.978   3.428  1.6452  0.5155  1.4720
   46MOL   H15311943   6.968   2.902   3.652  0.6230 -0.1191 -0.6297
   46MOL   H15411944   7.034   3.067   3.610 -0.1211  1.2542  0.7189
   46MOL   H15511945   6.967   3.026   3.766  0.4149 -1.5870 -0.4422
   46MOL   H15611946   6.528   3.059   3.275  0.7305 -1.2760  0.0430
   46MOL   H15711947   6.611   2.924   3.321 -0.3001  0.1256 -1.6599
   46MOL   C15811948   6.473   2.988   3.473  0.5263 -0.5706  0.0740
   46MOL   N15911949   6.519   2.896   3.581 -0.6905 -0.4581 -0.2468
   46MOL   C16011950   6.459   2.893   3.702  0.8239 -0.3941 -0.1868
   46MOL   O16111951   6.373   2.973   3.741 -0.3021 -0.7816  0.2420
   46MOL   C16211952   6.493   2.778   3.798 -0.6139 -0.4287 -0.2909
   46MOL   C16311953   6.339   2.929   3.414  0.0468  0.2446 -0.0213
   46MOL   H16411954   6.456   3.084   3.523  0.3403 -1.7005  2.2336
   46MOL   H16511955   6.580   2.819   3.558  0.3165  1.3225 -4.1342
   46MOL   H16611956   6.404   2.723   3.827 -0.3701 -0.0006  1.2868
   46MOL   H16711957   6.562   2.709   3.750 -1.3525 -2.4149  1.4576
   46MOL   H16811958   6.538   2.820   3.887 -1.4730 -1.3166  0.5659
   46MOL   H16911959   6.263   2.950   3.489 -0.6728 -2.8021  0.1412
   46MOL   H17011960   6.309   2.996   3.333  1.3614  2.9332  1.6328
   46MOL   C17111961   6.337   2.778   3.375 -0.6266  0.4264  0.0385
   46MOL   N17211962   6.449   2.752   3.289  0.0742  0.2200  0.1667
   46MOL   C17311963   6.529   2.640   3.284 -0.4042  0.3685 -0.4262
   46MOL   O17411964   6.507   2.542   3.353 -0.2056  0.2676 -0.2452
   46MOL   C17511965   6.657   2.649   3.195  0.4001  0.8080 -0.3298
   46MOL   C17611966   6.200   2.734   3.323 -0.1326 -0.7959  0.4959
   46MOL   H17711967   6.347   2.713   3.462 -3.6300  1.3604  1.1355
   46MOL   H17811968   6.481   2.827   3.229 -0.7115 -1.5113 -2.4977
   46MOL   H17911969   6.670   2.586   3.107 -1.4574 -0.6499  0.3818
   46MOL   H18011970   6.675   2.752   3.167 -0.7647  0.6568 -1.6750
   46MOL   H18111971   6.738   2.633   3.266 -0.8060  2.3396  1.4582
   46MOL   H18211972   6.121   2.788   3.374  0.3526  0.5850 -0.1913
   46MOL   H18311973   6.203   2.761   3.218  1.0504 -2.9934 -0.0816
   46MOL   C18411974   6.170   2.577   3.318  0.8394 -0.4089 -0.2642
   46MOL   N18511975   6.033   2.565   3.258  0.0916 -0.0183  0.0011
   46MOL   C18611976   6.008   2.492   3.147  0.0556  0.1296  0.1577
   46MOL   O18711977   6.098   2.448   3.082  0.0232 -0.0955  0.2481
   46MOL   C18811978   5.868   2.474   3.102 -0.7677 -0.2132  0.9362
   46MOL   C18911979   6.152   2.517   3.450 -0.0773  0.4583 -0.2013
   46MOL   H19011980   6.243   2.519   3.262  1.4494  0.4571 -0.3816
   46MOL   H19111981   5.960   2.615   3.306  1.2221 -0.1551  1.9217
   46MOL   H19211982   5.846   2.371   3.075  2.2948 -1.1725  1.9352
   46MOL   H19311983   5.808   2.502   3.189 -1.5579  0.2372  0.2503
   46MOL   H19411984   5.840   2.542   3.021 -1.1180 -0.7167  0.6302
   46MOL   H19511985   6.192   2.589   3.522 -0.2745 -0.8300  1.2423
   46MOL   H19611986   6.047   2.512   3.479 -0.2113  0.6544 -0.6606
   46MOL   C19711987   6.202   2.378   3.496  0.1128 -0.0522 -0.0283
   46MOL   N19811988   6.347   2.368   3.507 -0.4792 -0.2475 -0.6109
   46MOL   C19911989   6.415   2.303   3.597 -0.6886  0.2659  0.0712
   46MOL   O20011990   6.366   2.244   3.689  0.1726 -0.2808 -0.0929
   46MOL   C20111991   6.563   2.295   3.564  0.4089 -0.9136  0.0696
   46MOL   C20211992   6.158   2.258   3.404 -0.5231 -0.7888  0.5282
   46MOL   H20311993   6.167   2.356   3.597 -1.0428  2.2441  0.0915
   46MOL   H20411994   6.401   2.426   3.445 -0.1687  0.0095 -0.1033
   46MOL   H20511995   6.604   2.199   3.593  0.0325 -1.2772 -0.5882
   46MOL   H20611996   6.562   2.293   3.455 -2.7434  0.9103 -0.0189
   46MOL   H20711997   6.625   2.380   3.594  0.8207 -1.1957  0.0221
   46MOL   H20811998   6.180   2.292   3.302  2.5562 -1.8915  0.7812
   46MOL   H20911999   6.214   2.166   3.423  1.3833  0.5470  1.4534
   46MOL   C21012000   6.005   2.229   3.417  0.2660 -0.1974  0.4305
   46MOL   N21112001   5.996   2.163   3.550  0.0102 -0.0360 -0.7470
   46MOL   C21212002   5.941   2.209   3.663 -0.4539 -0.4090  0.5113
   46MOL   O21312003   5.858   2.299   3.663 -0.2900  0.3758  0.2790
   46MOL   C21412004   5.988   2.141   3.787 -0.1556 -0.2118  0.0017
   46MOL   C21512005   5.954   2.130   3.309 -0.6714  0.0649 -0.1787
   46MOL   H21612006   5.941   2.317   3.412  1.8242  0.8564 -1.8338
   46MOL   H21712007   6.056   2.082   3.555 -1.2364 -0.9423 -0.0131
   46MOL   H21812008   5.981   2.032   3.777  1.2371 -0.2938 -0.3302
   46MOL   H21912009   6.093   2.167   3.804 -0.2501  0.1634  0.0108
   46MOL   H22012010   5.938   2.168   3.880  2.0160  1.5523  0.7174
   46MOL   H22112011   5.978   2.183   3.217 -0.7721  1.2191  0.4492
   46MOL   H22212012   6.014   2.040   3.321 -0.4273  0.1496 -0.7175
   46MOL   C22312013   5.809   2.076   3.306  0.3764  0.0883  0.2516
   46MOL   N22412014   5.708   2.172   3.349 -0.1476  0.6892 -0.1139
   46MOL   C22512015   5.595   2.204   3.278 -0.7508  0.4972  0.3064
   46MOL   O22612016   5.565   2.133   3.183 -0.0790  0.6450 -0.3438
   46MOL   C22712017   5.511   2.323   3.324 -0.7871 -0.6702  0.0348
   46MOL   C22812018   5.794   1.948   3.386  0.0766  0.1334 -0.0015
   46MOL   H22912019   5.789   2.050   3.202  0.3770  0.0797  0.2534
   46MOL   H23012020   5.730   2.225   3.433  0.2180 -1.0763  0.9244
   46MOL   H23112021   5.559   2.421   3.320 -0.9879 -0.5580  0.3413
   46MOL   H23212022   5.419   2.330   3.265 -0.8892  0.9540  0.3442
   46MOL   H23312023   5.472   2.303   3.424  0.5360 -0.6451  0.5739
   46MOL   H23412024   5.861   1.876   3.340 -0.2888  0.0710 -0.4375
   46MOL   H23512025   5.841   1.957   3.484 -1.2102 -0.2383  0.6574
   46MOL   C23612026   5.657   1.879   3.397  0.3178 -0.9730  0.0756
   46MOL   N23712027   5.592   1.888   3.263  0.1712 -0.4458  0.0835
   46MOL   C23812028   5.583   1.785   3.179 -0.2708  0.0223 -0.4444
   46MOL   O23912029   5.600   1.666   3.210 -0.2212  0.3761 -0.0504
   46MOL   C24012030   5.558   1.818   3.029  0.0343  0.3261 -0.0712
   46MOL   C24112031   5.579   1.931   3.516 -0.4026  0.7649  0.1073
   46MOL   H24212032   5.676   1.775   3.426  0.5311 -0.5617  1.4084
   46MOL   H24312033   5.580   1.981   3.227 -0.1054 -1.1521 -1.6658
   46MOL   H24412034   5.583   1.727   2.974 -1.9088  1.0965 -2.3348
   46MOL   H24512035   5.457   1.846   2.998  0.4595  0.0599 -1.7763
   46MOL   H24612036   5.626   1.891   2.984  0.6314 -0.6105 -0.7196
   46MOL   H24712037   5.628   1.901   3.609  0.2550 -0.8080 -0.7197
   46MOL   H24812038   5.589   2.039   3.517 -0.2612  0.7511  0.1937
   46MOL   C24912039   5.431   1.889   3.515 -0.2891  0.4378  0.1404
   46MOL   N25012040   5.350   1.942   3.622 -0.4650  0.2133  0.3656
   46MOL   C25112041   5.285   2.061   3.618  0.5756  0.3267  0.2310
   46MOL   O25212042   5.298   2.133   3.520  0.2028 -0.9558  0.1404
   46MOL   C25312043   5.194   2.095   3.737 -0.1586 -0.2763  0.0540
   46MOL   C25412044   5.408   1.735   3.510  0.2425 -0.7518 -0.2839
   46MOL   H25512045   5.385   1.920   3.421  1.0399 -0.6010 -0.8792
   46MOL   H25612046   5.327   1.885   3.703 -0.4606 -0.1780  0.0933
   46MOL   H25712047   5.183   2.204   3.740 -0.4028 -0.3251  2.2827
   46MOL   H25812048   5.094   2.052   3.732 -0.6498  0.8513  0.0287
   46MOL   H25912049   5.239   2.069   3.833  0.6772  1.3811  0.1284
   46MOL   H26012050   5.447   1.703   3.414  2.0677  1.4656 -0.3106
   46MOL   H26112051   5.460   1.680   3.588  0.1917 -0.9394 -0.3827
   46MOL   H26212052   5.301   1.712   3.510 -0.1057  0.8108 -1.3409
   47MOL     C112053   6.309   3.647   1.943 -0.9174 -0.9026 -0.4933
   47MOL     N212054   6.341   3.657   1.804  0.3546 -0.4674 -0.4682
   47MOL     C312055   6.317   3.567   1.704  0.1824 -0.0537  0.0996
   47MOL     O412056   6.271   3.450   1.724 -0.3384  0.3758 -0.1493
   47MOL     C512057   6.358   3.621   1.567 -0.5027 -0.5290 -0.2832
   47MOL     C612058   6.168   3.718   1.969  1.0308 -0.0713 -0.5423
   47MOL     H712059   6.294   3.548   1.985 -1.4881 -0.4748  0.3187
   47MOL     H812060   6.405   3.732   1.782  0.2489 -0.5409 -1.0395
   47MOL     H912061   6.452   3.581   1.528  0.0587  0.5300 -0.0283
   47MOL    H1012062   6.293   3.589   1.485  0.9109  1.3261 -2.1884
   47MOL    H1112063   6.360   3.730   1.565  0.6906 -0.5399  0.2617
   47MOL    H1212064   6.169   3.819   1.926 -0.3787 -0.0662 -0.5855
   47MOL    H1312065   6.092   3.663   1.913  0.0508 -0.4277  1.1246
   47MOL    H1412066   6.393   3.688   2.000 -2.0420  3.3718 -1.6768
   47MOL    C1512067   6.125   3.730   2.121 -0.2276 -0.4436  0.4992
   47MOL    N1612068   6.111   3.599   2.179 -0.5116  0.4947  0.0514
   47MOL    C1712069   6.194   3.547   2.271  0.6233 -0.1158  0.4869
   47MOL    O1812070   6.303   3.595   2.308  0.1446 -0.6249  0.1420
   47MOL    C1912071   6.159   3.412   2.328  0.0204  0.5297  0.6521
   47MOL    C2012072   5.988   3.795   2.126 -0.0355  0.0334  0.2319
   47MOL    H2112073   6.200   3.784   2.180 -1.2612  2.4488 -0.7468
   47MOL    H2212074   6.037   3.537   2.149  1.9063 -2.4471 -0.0757
   47MOL    H2312075   6.240   3.340   2.310  0.0500  0.8320 -0.4499
   47MOL    H2412076   6.139   3.413   2.435 -0.2970 -0.7345  0.6197
   47MOL    H2512077   6.077   3.369   2.270  0.1866 -1.6074  1.9243
   47MOL    H2612078   5.989   3.860   2.039  0.2196  0.8686  0.8535
   47MOL    H2712079   5.915   3.714   2.117 -0.5604  0.5778 -0.4501
   47MOL    C2812080   5.944   3.874   2.249 -0.1292  0.1392  0.2856
   47MOL    N2912081   5.974   3.801   2.376 -0.4372 -0.7735  0.5301
   47MOL    C3012082   5.997   3.854   2.497 -0.3971 -0.4567 -0.2302
   47MOL    O3112083   5.995   3.973   2.525  0.0565 -0.4291  0.5490
   47MOL    C3212084   6.028   3.756   2.609 -0.6421 -0.2454  0.2074
   47MOL    C3312085   5.795   3.900   2.238 -0.4058  0.0055 -0.2927
   47MOL    H3412086   5.999   3.968   2.241 -0.7833  0.6192  1.3427
   47MOL    H3512087   5.972   3.701   2.370  0.9473 -0.6728 -2.0658
   47MOL    H3612088   6.116   3.695   2.589 -2.5488 -2.5120 -1.6541
   47MOL    H3712089   6.052   3.809   2.701 -0.9205 -1.9102  1.2688
   47MOL    H3812090   5.943   3.694   2.638 -0.6970 -0.2751 -0.0158
   47MOL    H3912091   5.740   3.808   2.221 -0.9079  0.6165 -2.1421
   47MOL    H4012092   5.756   3.954   2.324 -0.1504 -0.1214 -0.0977
   47MOL    C4112093   5.748   4.004   2.121  0.0714  0.4047 -0.4765
   47MOL    N4212094   5.791   4.134   2.158  0.1280 -0.8473  0.5912
   47MOL    C4312095   5.887   4.214   2.102 -0.5083  0.0753 -0.3477
   47MOL    O4412096   5.949   4.187   2.007 -0.8207 -0.0732  0.7385
   47MOL    C4512097   5.892   4.354   2.161 -0.2742 -0.3162  0.3605
   47MOL    C4612098   5.591   4.008   2.110 -0.0494  0.1002 -0.8732
   47MOL    H4712099   5.794   3.989   2.023  1.4568 -0.1262  0.2398
   47MOL    H4812100   5.749   4.186   2.235 -0.1527  1.6708 -1.2029
   47MOL    H4912101   5.960   4.365   2.245 -0.2404 -0.6000  0.3695
   47MOL    H5012102   5.925   4.427   2.088  0.2475 -1.7219 -0.8276
   47MOL    H5112103   5.795   4.392   2.195 -1.5782 -1.4698 -1.9090
   47MOL    H5212104   5.543   4.015   2.207 -0.4970  2.2959 -1.2301
   47MOL    H5312105   5.563   4.102   2.062  0.7647  0.5099 -0.5419
   47MOL    C5412106   5.524   3.893   2.033  0.1885 -0.3779 -0.0930
   47MOL    N5512107   5.583   3.882   1.899 -0.9068 -0.0382 -0.9635
   47MOL    C5612108   5.622   3.762   1.853 -0.0631  0.2253  0.5295
   47MOL    O5712109   5.607   3.656   1.914  0.0901  0.0422 -0.2971
   47MOL    C5812110   5.686   3.767   1.714  0.1597  0.3372  0.0243
   47MOL    C5912111   5.368   3.918   2.027 -0.4817  0.9015 -0.7448
   47MOL    H6012112   5.534   3.798   2.086 -0.7868 -1.9287 -2.6117
   47MOL    H6112113   5.603   3.970   1.852 -3.3072 -0.0115 -2.0126
   47MOL    H6212114   5.647   3.837   1.641 -0.3124 -1.9536 -1.9927
   47MOL    H6312115   5.790   3.798   1.726  0.4147 -0.4837 -0.0302
   47MOL    H6412116   5.687   3.668   1.668  0.5706 -1.3120  3.3999
   47MOL    H6512117   5.329   3.895   2.126 -0.3011 -0.1463 -0.9088
   47MOL    H6612118   5.362   4.026   2.012 -0.6035  1.1192  0.7774
   47MOL    C6712119   5.288   3.831   1.929 -0.0155 -0.2755 -0.2271
   47MOL    N6812120   5.305   3.880   1.793  0.3197  0.8499  0.2652
   47MOL    C6912121   5.277   3.812   1.681 -0.5727 -0.4509  0.1359
   47MOL    O7012122   5.205   3.712   1.679  0.1498  0.1521 -0.3546
   47MOL    C7112123   5.333   3.870   1.551  0.8436  0.6540  0.1912
   47MOL    C7212124   5.138   3.824   1.965  0.4553 -0.4147 -0.1085
   47MOL    H7312125   5.320   3.727   1.928 -1.3284 -0.6649 -1.9816
   47MOL    H7412126   5.365   3.960   1.781  0.2592  0.7305 -0.8783
   47MOL    H7512127   5.367   3.795   1.480 -1.4543  0.3456 -0.6140
   47MOL    H7612128   5.246   3.917   1.505  1.6062  1.8062 -0.0900
   47MOL    H7712129   5.411   3.946   1.559  0.6900  1.0030 -1.3478
   47MOL    H7812130   5.108   3.912   2.021  2.6446  0.5892 -0.4418
   47MOL    H7912131   5.083   3.828   1.871  1.7589 -0.4604 -0.8770
   47MOL    C8012132   5.110   3.686   2.028 -0.0277 -0.1193  0.2046
   47MOL    N8112133   5.100   3.585   1.923  0.0554 -0.7863  0.3759
   47MOL    C8212134   5.148   3.462   1.910  0.2685 -0.5475  1.2293
   47MOL    O8312135   5.222   3.421   2.000  0.4988 -0.3779 -0.3132
   47MOL    C8412136   5.106   3.374   1.796  0.2699 -0.2920  0.3220
   47MOL    C8512137   4.999   3.688   2.132 -0.2057  1.0964  0.1032
   47MOL    H8612138   5.197   3.670   2.092 -0.0973  0.3988  0.4253
   47MOL    H8712139   5.062   3.611   1.833  1.7792 -0.0888 -0.1687
   47MOL    H8812140   5.008   3.327   1.806  0.0523 -0.1054 -0.9090
   47MOL    H8912141   5.124   3.427   1.703 -0.6774 -0.9833 -0.2639
   47MOL    H9012142   5.174   3.288   1.791  0.4093 -0.3808  2.8521
   47MOL    H9112143   5.027   3.613   2.206  1.3084 -1.5511 -3.0273
   47MOL    H9212144   5.005   3.780   2.191 -1.3852  0.4184  1.3344
   47MOL    C9312145   4.853   3.667   2.075 -0.1636  0.3059 -0.4795
   47MOL    N9412146   4.809   3.785   2.004 -0.0177  0.5261  0.5704
   47MOL    C9512147   4.699   3.783   1.929 -0.2741  0.1350 -0.4621
   47MOL    O9612148   4.630   3.686   1.891 -0.8238  0.5726 -0.0882
   47MOL    C9712149   4.658   3.923   1.883  0.0072  0.8810  0.6041
   47MOL    C9812150   4.745   3.633   2.183 -0.4797  0.1172  0.2315
   47MOL    H9912151   4.857   3.586   2.002  1.9138 -2.7256  2.8337
   47MOL   H10012152   4.860   3.871   2.018  1.5553 -0.1534 -0.8475
   47MOL   H10112153   4.575   3.912   1.813 -0.1252 -1.3551  1.0650
   47MOL   H10212154   4.630   3.986   1.968  0.0531  1.0645  0.4824
   47MOL   H10312155   4.745   3.966   1.833  0.3684 -2.8133 -2.0979
   47MOL   H10412156   4.697   3.728   2.209 -0.6218 -0.4154  1.9830
   47MOL   H10512157   4.668   3.575   2.133  2.1625 -0.7996 -2.9381
   47MOL   C10612158   4.783   3.541   2.308 -1.0363  0.2705  0.2713
   47MOL   N10712159   4.867   3.429   2.269 -0.0919  0.0882 -0.5072
   47MOL   C10812160   4.848   3.337   2.176 -0.4725 -0.2057  0.4309
   47MOL   O10912161   4.739   3.323   2.119  0.5531 -0.2293  0.4830
   47MOL   C11012162   4.964   3.245   2.156 -0.5102 -0.3781  0.3420
   47MOL   C11112163   4.664   3.497   2.384 -0.2312 -0.3098  0.4092
   47MOL   H11212164   4.841   3.606   2.374  0.5251 -1.4939  0.6835
   47MOL   H11312165   4.961   3.428   2.308 -0.5070 -1.8011  0.4763
   47MOL   H11412166   4.971   3.219   2.050 -0.8850  0.6948  0.0426
   47MOL   H11512167   5.055   3.294   2.192 -0.2911  0.1232 -0.8486
   47MOL   H11612168   4.949   3.160   2.222 -2.1019  0.8222  1.5511
   47MOL   H11712169   4.623   3.577   2.447  0.2822 -0.3317  0.7722
   47MOL   H11812170   4.581   3.480   2.315 -0.4133 -0.4625  0.6631
   47MOL   C11912171   4.682   3.370   2.472 -0.2807  0.0518  0.7613
   47MOL   N12012172   4.549   3.343   2.537  0.0721  0.0852 -0.2769
   47MOL   C12112173   4.514   3.219   2.577  0.3571 -0.2373  0.3064
   47MOL   O12212174   4.583   3.122   2.558 -0.3337  0.2061 -0.2013
   47MOL   C12312175   4.375   3.214   2.644 -0.0851 -0.4823  0.1202
   47MOL   C12412176   4.802   3.382   2.578 -0.0992 -1.1092 -0.1662
   47MOL   H12512177   4.703   3.293   2.398 -0.0410 -0.0049  0.8869
   47MOL   H12612178   4.498   3.422   2.573  2.1618  1.6171 -0.6086
   47MOL   H12712179   4.367   3.297   2.714 -0.9532  0.4488 -1.0534
   47MOL   H12812180   4.304   3.219   2.561 -0.2015  1.7053  0.3200
   47MOL   H12912181   4.359   3.123   2.702 -1.0569 -0.0831  0.4918
   47MOL   H13012182   4.842   3.480   2.555 -1.5457 -0.9535 -2.1308
   47MOL   H13112183   4.771   3.400   2.681 -1.4034 -0.7190 -0.6161
   47MOL   C13212184   4.911   3.283   2.566  0.0592  0.3521 -0.3733
   47MOL   N13312185   4.856   3.142   2.582  0.4906  0.2421 -0.1919
   47MOL   C13412186   4.910   3.035   2.523 -0.0200  0.1804 -0.5191
   47MOL   O13512187   5.018   3.039   2.465 -0.2307 -0.3967 -0.0932
   47MOL   C13612188   4.832   2.906   2.527  0.1174 -0.4499 -0.4710
   47MOL   C13712189   5.037   3.290   2.657  0.2332  0.0473 -0.0869
   47MOL   H13812190   4.933   3.276   2.459  0.9443 -0.0564 -0.1658
   47MOL   H13912191   4.758   3.134   2.606  0.2129 -0.1883 -1.4252
   47MOL   H14012192   4.917   2.841   2.550 -0.4128 -1.1424 -0.4443
   47MOL   H14112193   4.767   2.900   2.614  1.9146 -0.8541  0.8866
   47MOL   H14212194   4.785   2.880   2.432 -1.3470 -1.1741  0.4389
   47MOL   H14312195   5.014   3.264   2.761  1.1679 -0.6828 -0.0531
   47MOL   H14412196   5.107   3.211   2.629 -1.3666 -1.6211  0.4933
   47MOL   C14512197   5.108   3.425   2.650 -0.3078 -0.3406  0.4653
   47MOL   N14612198   5.223   3.416   2.570 -0.3152  0.0729 -0.2883
   47MOL   C14712199   5.224   3.432   2.439  0.3875 -0.1576 -0.0115
   47MOL   O14812200   5.127   3.445   2.365 -0.4983  0.3575 -0.1082
   47MOL   C14912201   5.365   3.444   2.381  0.3356 -0.1614 -0.1307
   47MOL   C15012202   5.139   3.485   2.786 -0.1669  0.2217 -0.2978
   47MOL   H15112203   5.047   3.499   2.598 -0.0592 -0.3874  0.1090
   47MOL   H15212204   5.311   3.393   2.614  1.1669 -1.9885 -4.0652
   47MOL   H15312205   5.446   3.386   2.425  0.3716 -0.1868 -0.2305
   47MOL   H15412206   5.351   3.414   2.277 -0.0583 -0.3761 -0.0183
   47MOL   H15512207   5.392   3.549   2.368  0.6284  0.0107  1.7194
   47MOL   H15612208   5.054   3.465   2.851  1.2239  0.4614  1.6148
   47MOL   H15712209   5.223   3.437   2.836 -0.1445  3.2502  2.7083
   47MOL   C15812210   5.156   3.636   2.782 -0.9502 -0.0786 -0.3778
   47MOL   N15912211   5.211   3.686   2.908  0.2166  0.4117 -0.5032
   47MOL   C16012212   5.297   3.783   2.922 -0.3366 -0.1530 -0.0491
   47MOL   O16112213   5.340   3.856   2.832 -0.3827 -0.4337 -0.1390
   47MOL   C16212214   5.348   3.820   3.061  0.0754 -0.5119  0.4264
   47MOL   C16312215   5.036   3.714   2.747  0.4898  0.3210  0.3171
   47MOL   H16412216   5.224   3.657   2.699  1.6600  0.9263  1.9334
   47MOL   H16512217   5.175   3.644   2.993  0.4211  1.9118  0.3484
   47MOL   H16612218   5.263   3.836   3.128 -0.2246  0.2538 -0.1232
   47MOL   H16712219   5.412   3.742   3.100  1.1069  0.1862  0.1528
   47MOL   H16812220   5.400   3.916   3.051  0.6541 -0.9909 -1.2962
   47MOL   H16912221   4.959   3.658   2.694  1.5379 -1.7030  0.8898
   47MOL   H17012222   4.981   3.740   2.837  0.2278 -3.1929  1.2533
   47MOL   C17112223   5.051   3.845   2.668 -1.2165  0.0487  0.3845
   47MOL   N17212224   4.927   3.919   2.661 -0.6963 -0.0744 -0.3308
   47MOL   C17312225   4.819   3.883   2.597 -0.3691  0.6651 -0.1936
   47MOL   O17412226   4.811   3.777   2.541  0.2727  0.7562 -0.3423
   47MOL   C17512227   4.697   3.970   2.596  0.0162  0.1934  0.0183
   47MOL   C17612228   5.117   3.831   2.523 -0.8137 -0.6053  0.3829
   47MOL   H17712229   5.114   3.913   2.726 -0.2372 -0.0633 -0.5489
   47MOL   H17812230   4.916   3.999   2.723 -0.8361 -0.2683 -0.1049
   47MOL   H17912231   4.624   3.938   2.671 -1.1426 -1.1602 -1.6280
   47MOL   H18012232   4.718   4.075   2.614  1.7266 -0.0867 -0.3392
   47MOL   H18112233   4.649   3.956   2.499  0.3312  1.1351 -0.2705
   47MOL   H18212234   5.139   3.731   2.485 -0.6949 -1.1713  1.9176
   47MOL   H18312235   5.043   3.866   2.451  0.9826 -0.0802 -1.2568
   47MOL   C18412236   5.235   3.928   2.474 -0.1183  0.1564 -0.6392
   47MOL   N18512237   5.351   3.898   2.564  0.3531 -0.3958  0.2492
   47MOL   C18612238   5.476   3.862   2.520 -0.2437  0.0932 -0.6409
   47MOL   O18712239   5.496   3.834   2.407 -0.2878  0.2760  0.6729
   47MOL   C18812240   5.596   3.893   2.611  0.7961  0.0345  0.0217
   47MOL   C18912241   5.193   4.072   2.457 -0.0020  0.5680  0.3493
   47MOL   H19012242   5.256   3.889   2.374 -1.8858  1.1266 -1.4162
   47MOL   H19112243   5.328   3.919   2.660  1.0553 -2.1115  0.8117
   47MOL   H19212244   5.688   3.854   2.568  1.3564 -1.5503  2.5287
   47MOL   H19312245   5.617   4.000   2.615 -2.0809  0.6085  0.9135
   47MOL   H19412246   5.580   3.858   2.713  0.4918  0.2231  0.0404
   47MOL   H19512247   5.104   4.080   2.395 -0.9448 -0.2242  1.5771
   47MOL   H19612248   5.168   4.100   2.560 -2.0379 -0.2757  0.1124
   47MOL   C19712249   5.298   4.177   2.389  0.7082 -0.9291 -0.5239
   47MOL   N19812250   5.396   4.218   2.485  0.3990  0.4738  0.0688
   47MOL   C19912251   5.528   4.239   2.461 -0.1936  0.7397 -0.2531
   47MOL   O20012252   5.578   4.236   2.350  0.2924  0.6549 -0.6936
   47MOL   C20112253   5.615   4.261   2.588 -0.5788 -0.5576 -0.0496
   47MOL   C20212254   5.223   4.293   2.317  0.4790 -0.1598 -0.4084
   47MOL   H20312255   5.347   4.121   2.309  0.3265 -2.0357  0.0042
   47MOL   H20412256   5.362   4.228   2.580  1.8850  1.6141  0.5048
   47MOL   H20512257   5.602   4.208   2.682  1.9394 -1.8453 -0.3989
   47MOL   H20612258   5.721   4.268   2.563 -0.0982  0.8352  2.1476
   47MOL   H20712259   5.608   4.362   2.630  0.6192  0.6665 -2.6437
   47MOL   H20812260   5.148   4.250   2.250 -0.7991  0.2735  0.7081
   47MOL   H20912261   5.163   4.346   2.391  0.4641 -1.1220  0.2810
   47MOL   C21012262   5.300   4.393   2.234 -0.0412 -0.1239 -0.0027
   47MOL   N21112263   5.207   4.510   2.203  0.2254  0.4263  0.2041
   47MOL   C21212264   5.187   4.616   2.281 -0.0118  0.6987  0.2833
   47MOL   O21312265   5.228   4.619   2.396  0.0073 -0.1789  0.3648
   47MOL   C21412266   5.092   4.722   2.240 -0.4394 -0.8509 -0.2098
   47MOL   C21512267   5.350   4.336   2.095  0.3216  0.4823 -0.5939
   47MOL   H21612268   5.382   4.433   2.295  0.1146 -0.9783  0.3558
   47MOL   H21712269   5.179   4.506   2.106  2.8912 -0.1654 -0.5688
   47MOL   H21812270   5.073   4.726   2.133 -0.4744 -1.6630 -0.2423
   47MOL   H21912271   4.994   4.698   2.280  0.4838 -0.9564  2.0884
   47MOL   H22012272   5.127   4.817   2.281 -1.0508 -0.7849  0.1598
   47MOL   H22112273   5.409   4.245   2.110 -0.5517  0.0459  0.2946
   47MOL   H22212274   5.267   4.303   2.033  0.4453 -0.1249 -0.4412
   47MOL   C22312275   5.451   4.406   2.001 -0.1204  0.3893 -0.0207
   47MOL   N22412276   5.411   4.544   1.967 -0.1944 -0.3671 -0.3425
   47MOL   C22512277   5.299   4.604   1.926  0.0127 -0.0383 -0.1328
   47MOL   O22612278   5.199   4.537   1.909  0.5887  0.2153 -0.2781
   47MOL   C22712279   5.304   4.752   1.900 -0.7052  0.2500 -0.6108
   47MOL   C22812280   5.481   4.317   1.872  0.1094  0.0436 -0.1597
   47MOL   H22912281   5.535   4.416   2.069 -1.5089 -1.0185  1.9928
   47MOL   H23012282   5.492   4.603   1.958  0.2002 -0.8606 -0.0736
   47MOL   H23112283   5.228   4.774   1.825 -1.1329 -3.4602 -1.3294
   47MOL   H23212284   5.266   4.793   1.993 -0.7383 -1.2938  0.0689
   47MOL   H23312285   5.403   4.790   1.872 -0.4842  0.2282  0.1502
   47MOL   H23412286   5.549   4.241   1.909  1.6716  0.8100 -1.3476
   47MOL   H23512287   5.385   4.278   1.840 -1.5360  2.6331  1.4057
   47MOL   C23612288   5.553   4.401   1.755  0.2411 -0.1520 -0.0450
   47MOL   N23712289   5.575   4.312   1.640  0.3589  0.0069  0.2957
   47MOL   C23812290   5.613   4.176   1.636  0.3385  0.0104  0.0369
   47MOL   O23912291   5.624   4.107   1.737  0.4114  0.2654 -0.0668
   47MOL   C24012292   5.644   4.115   1.501  0.0883 -0.5899  0.0105
   47MOL   C24112293   5.686   4.471   1.799  0.2858 -0.6478 -0.1635
   47MOL   H24212294   5.472   4.465   1.720  0.2556 -0.7972 -1.2936
   47MOL   H24312295   5.560   4.355   1.550  0.6263  0.6576  0.5601
   47MOL   H24412296   5.746   4.129   1.466 -0.6544 -1.9755 -2.8825
   47MOL   H24512297   5.614   4.010   1.494  0.0121 -0.6353  1.0305
   47MOL   H24612298   5.584   4.170   1.428 -0.8582  0.2456  1.3873
   47MOL   H24712299   5.657   4.537   1.881  2.5405  0.9605 -0.6074
   47MOL   H24812300   5.761   4.407   1.846  0.6387 -0.4849 -0.5000
   47MOL   C24912301   5.753   4.550   1.686 -0.6650  0.1596 -0.7631
   47MOL   N25012302   5.659   4.599   1.586  0.0139 -0.3113 -0.1888
   47MOL   C25112303   5.574   4.702   1.588  0.2160  0.2663 -0.4391
   47MOL   O25212304   5.581   4.777   1.684 -0.7100 -0.4403 -0.5976
   47MOL   C25312305   5.484   4.713   1.462  0.3428  0.3853  0.6411
   47MOL   C25412306   5.869   4.471   1.621  0.2988  0.0248 -0.7491
   47MOL   H25512307   5.802   4.631   1.739 -0.5911  0.4660 -1.3056
   47MOL   H25612308   5.661   4.538   1.506  0.9109 -0.5292 -0.0016
   47MOL   H25712309   5.536   4.720   1.366 -0.7282 -0.6914 -0.0347
   47MOL   H25812310   5.401   4.642   1.455  0.6165  0.2628 -1.8465
   47MOL   H25912311   5.419   4.800   1.477 -3.6549 -2.5343  0.9191
   47MOL   H26012312   5.844   4.378   1.570 -2.4779  0.5914 -0.4457
   47MOL   H26112313   5.911   4.532   1.541  1.2522 -0.2512 -0.4657
   47MOL   H26212314   5.944   4.443   1.695 -1.9643 -1.9713  0.8495
   48MOL     C112315   3.848   5.630   3.069  0.7883  0.3062  0.2319
   48MOL     N212316   3.962   5.632   2.975  0.3061  0.0427 -0.0880
   48MOL     C312317   3.943   5.612   2.843  0.1938  0.6169  0.4447
   48MOL     O412318   4.034   5.613   2.770  0.4756 -0.2370 -0.0267
   48MOL     C512319   3.806   5.567   2.785 -0.4454  0.3326 -0.1206
   48MOL     C612320   3.901   5.679   3.210  0.4583  0.4463  0.0439
   48MOL     H712321   3.772   5.701   3.036 -1.0673 -2.5589 -1.7969
   48MOL     H812322   4.053   5.650   3.014 -0.3027 -1.6752  2.2235
   48MOL     H912323   3.728   5.632   2.824 -0.5564  0.3810 -0.4246
   48MOL    H1012324   3.814   5.574   2.676  2.2570 -2.0833 -0.1385
   48MOL    H1112325   3.786   5.465   2.818  0.6458 -0.0973 -0.7503
   48MOL    H1212326   3.996   5.631   3.231 -0.0677 -1.5861 -1.9777
   48MOL    H1312327   3.939   5.780   3.196  0.9683 -0.0227 -2.2260
   48MOL    H1412328   3.800   5.533   3.078  0.3795  0.6583  2.0252
   48MOL    C1512329   3.811   5.669   3.331  0.4330 -0.2295  0.4032
   48MOL    N1612330   3.667   5.699   3.295  0.1661  0.2509  0.0507
   48MOL    C1712331   3.562   5.616   3.274 -0.1751 -0.8549  0.1300
   48MOL    O1812332   3.572   5.495   3.253  0.3404  0.3745 -0.5742
   48MOL    C1912333   3.420   5.682   3.274  0.1611 -0.1426 -0.3985
   48MOL    C2012334   3.868   5.740   3.453 -0.1777  0.1055 -0.0052
   48MOL    H2112335   3.804   5.565   3.365 -2.3096  0.7091  2.9317
   48MOL    H2212336   3.645   5.798   3.295  1.2059  0.4979  0.9348
   48MOL    H2312337   3.344   5.634   3.335 -0.1588  1.1100  0.1909
   48MOL    H2412338   3.422   5.785   3.307  0.2992 -0.1141 -0.4944
   48MOL    H2512339   3.378   5.670   3.174 -0.5795  0.8989 -0.2124
   48MOL    H2612340   3.957   5.688   3.489 -1.8966 -3.5753 -0.8840
   48MOL    H2712341   3.894   5.843   3.426  1.1881 -0.9550 -2.9589
   48MOL    C2812342   3.777   5.738   3.574 -0.0402  0.5174 -0.5381
   48MOL    N2912343   3.838   5.822   3.677 -0.5455 -0.0330 -0.2267
   48MOL    C3012344   3.770   5.921   3.736  0.3415 -1.2096 -0.0989
   48MOL    O3112345   3.649   5.941   3.714 -0.2147 -0.0487  0.0338
   48MOL    C3212346   3.852   6.008   3.835  1.4250 -0.3610  0.3111
   48MOL    C3312347   3.739   5.600   3.632  0.3176 -0.0349  0.0080
   48MOL    H3412348   3.679   5.774   3.544 -0.9626 -1.6484 -0.2115
   48MOL    H3512349   3.938   5.831   3.690 -0.8623  0.7410  1.9171
   48MOL    H3612350   3.941   5.958   3.874  1.3485  0.0705  1.0504
   48MOL    H3712351   3.865   6.105   3.787 -0.1613 -0.9366 -1.3411
   48MOL    H3812352   3.789   6.021   3.922 -1.1352 -1.7945 -1.2606
   48MOL    H3912353   3.694   5.534   3.558 -0.5942 -1.6474  1.9549
   48MOL    H4012354   3.824   5.533   3.644  0.0771 -0.3460 -0.0227
   48MOL    C4112355   3.638   5.588   3.752  0.1275  0.4819 -0.2116
   48MOL    N4212356   3.535   5.689   3.736  0.1988  0.0128  0.6197
   48MOL    C4312357   3.404   5.672   3.723 -0.4942 -0.1696  0.5248
   48MOL    O4412358   3.338   5.565   3.740  0.0015  0.2290  0.5112
   48MOL    C4512359   3.321   5.801   3.691 -0.0909 -0.7205  0.3207
   48MOL    C4612360   3.689   5.591   3.902  0.0205 -0.3161  0.3436
   48MOL    H4712361   3.581   5.495   3.752 -0.0229  0.5732 -0.3351
   48MOL    H4812362   3.563   5.780   3.701  0.7461 -0.7090 -0.8687
   48MOL    H4912363   3.214   5.785   3.705 -0.2052  0.3629  0.6762
   48MOL    H5012364   3.364   5.862   3.770  1.2813 -1.2985  0.0258
   48MOL    H5112365   3.355   5.841   3.596  0.8314 -0.0168  0.9476
   48MOL    H5212366   3.712   5.696   3.919  0.9802 -0.4696  0.0820
   48MOL    H5312367   3.606   5.559   3.963 -1.2043 -0.5272 -1.3915
   48MOL    C5412368   3.806   5.495   3.932 -0.0704 -0.5631 -0.3383
   48MOL    N5512369   3.774   5.355   3.898  0.4641 -0.4788  0.7513
   48MOL    C5612370   3.858   5.270   3.835 -0.2049  0.6567  0.6763
   48MOL    O5712371   3.963   5.306   3.785 -0.5978 -0.0003  0.2510
   48MOL    C5812372   3.815   5.126   3.819  0.2575  0.8049 -0.4911
   48MOL    C5912373   3.855   5.494   4.074  0.2351 -0.0336  0.0214
   48MOL    H6012374   3.888   5.533   3.870  1.0662  0.8029  1.9527
   48MOL    H6112375   3.683   5.315   3.912  0.0049  0.3802  0.2651
   48MOL    H6212376   3.890   5.068   3.874  0.3235  0.7341 -0.6565
   48MOL    H6312377   3.717   5.109   3.862  0.4269  0.5771 -0.1893
   48MOL    H6412378   3.821   5.094   3.715  0.6871  2.8998 -1.1444
   48MOL    H6512379   3.776   5.456   4.138  1.7734 -1.3137  1.2224
   48MOL    H6612380   3.931   5.415   4.075  1.3269  1.0156  1.0910
   48MOL    C6712381   3.927   5.619   4.133 -0.3708  0.3879 -0.1818
   48MOL    N6812382   4.070   5.610   4.107  0.3398 -0.3726  0.0122
   48MOL    C6912383   4.139   5.694   4.028 -0.1926 -0.3059  0.4137
   48MOL    O7012384   4.096   5.799   3.979 -0.5790 -0.1902 -0.0993
   48MOL    C7112385   4.281   5.645   3.993  0.2611  0.1339  0.2002
   48MOL    C7212386   3.900   5.634   4.287  0.4250 -0.3493  0.6792
   48MOL    H7312387   3.882   5.706   4.087  0.0236 -0.7411 -2.7596
   48MOL    H7412388   4.119   5.525   4.129 -0.9921 -0.7754  1.5253
   48MOL    H7512389   4.281   5.542   3.958  0.3104  0.1947  0.0228
   48MOL    H7612390   4.311   5.711   3.911 -0.6348  0.9577  0.5193
   48MOL    H7712391   4.342   5.650   4.083  0.7859  0.1249 -0.1534
   48MOL    H7812392   3.950   5.549   4.334  2.2900  0.6435  0.5439
   48MOL    H7912393   3.953   5.719   4.330  1.6376  0.0502 -1.5472
   48MOL    C8012394   3.753   5.646   4.337  0.1551 -0.9878 -0.0468
   48MOL    N8112395   3.659   5.716   4.251 -0.3345 -0.0810  0.2411
   48MOL    C8212396   3.670   5.843   4.213  0.1422  0.5898  0.3179
   48MOL    O8312397   3.759   5.917   4.234 -0.2173 -0.5453  0.0978
   48MOL    C8412398   3.558   5.893   4.123 -0.3253  0.2380  0.8579
   48MOL    C8512399   3.733   5.684   4.488 -0.4167 -0.1951  1.0451
   48MOL    H8612400   3.709   5.547   4.326 -0.3505 -0.8931  1.0100
   48MOL    H8712401   3.572   5.668   4.230  0.0439 -0.8545  0.4182
   48MOL    H8812402   3.486   5.947   4.184 -0.5876 -1.9110  2.5501
   48MOL    H8912403   3.611   5.958   4.054 -0.5004 -1.7576 -1.2259
   48MOL    H9012404   3.505   5.813   4.071 -1.3635  1.1650  0.4709
   48MOL    H9112405   3.795   5.764   4.526 -1.0384  1.3173 -1.0418
   48MOL    H9212406   3.636   5.733   4.501  0.2535  1.7136 -0.7987
   48MOL    C9312407   3.752   5.561   4.579 -0.0931 -0.5953  0.2729
   48MOL    N9412408   3.639   5.471   4.550  0.0120  0.1675  0.3765
   48MOL    C9512409   3.647   5.339   4.525 -0.0721  0.5170  0.7717
   48MOL    O9612410   3.753   5.273   4.530 -0.1279 -0.7948  0.5089
   48MOL    C9712411   3.508   5.268   4.493  0.3398 -0.1465 -0.3262
   48MOL    C9812412   3.746   5.591   4.730 -0.0817  0.6582 -0.2247
   48MOL    H9912413   3.847   5.516   4.552  0.7449  2.9892 -3.2510
   48MOL   H10012414   3.549   5.514   4.540 -0.8847 -1.7807 -0.1098
   48MOL   H10112415   3.456   5.327   4.418  0.9222  0.7418 -0.0503
   48MOL   H10212416   3.540   5.171   4.456  0.7212  0.8171 -2.6167
   48MOL   H10312417   3.440   5.246   4.576  1.1682 -0.7441  0.2040
   48MOL   H10412418   3.832   5.658   4.736  0.4321 -0.0405  0.3423
   48MOL   H10512419   3.663   5.658   4.751 -2.1149 -1.9087  0.0052
   48MOL   C10612420   3.757   5.478   4.839  0.4872 -0.9114  0.2992
   48MOL   N10712421   3.863   5.391   4.796  0.2577 -0.0540  0.6009
   48MOL   C10812422   3.992   5.427   4.788  0.1066  0.0567 -0.6866
   48MOL   O10912423   4.043   5.534   4.828 -0.4666 -0.3646 -0.2336
   48MOL   C11012424   4.089   5.316   4.738  0.1643 -0.5560  0.4452
   48MOL   C11112425   3.622   5.401   4.879  0.4053  0.1182  0.4075
   48MOL   H11212426   3.804   5.528   4.924  1.3823 -1.2659  0.0116
   48MOL   H11312427   3.836   5.310   4.743 -1.9583  0.5145  0.8217
   48MOL   H11412428   4.087   5.223   4.796 -1.6886  0.5662  2.2745
   48MOL   H11512429   4.089   5.305   4.630  0.5894 -0.4882  0.4396
   48MOL   H11612430   4.193   5.341   4.754 -0.3761  1.5463  0.8426
   48MOL   H11712431   3.571   5.355   4.794 -0.3146  1.1164  0.2881
   48MOL   H11812432   3.643   5.315   4.942  0.0781  1.0067  1.7370
   48MOL   C11912433   3.520   5.483   4.954  0.0812  0.1836  0.1042
   48MOL   N12012434   3.576   5.526   5.084  0.1302  0.5127  0.3317
   48MOL   C12112435   3.561   5.645   5.139  0.0480 -0.1784 -0.1594
   48MOL   O12212436   3.500   5.736   5.075  0.1706  0.0120  0.4304
   48MOL   C12312437   3.633   5.665   5.273 -0.6000  0.4710  0.3820
   48MOL   C12412438   3.396   5.400   4.982  0.0803  0.2906  0.6105
   48MOL   H12512439   3.502   5.565   4.884 -4.3642  1.3133  2.3790
   48MOL   H12612440   3.627   5.455   5.134 -1.0725 -2.0291 -1.9212
   48MOL   H12712441   3.707   5.589   5.297 -0.7613 -0.3364 -1.5802
   48MOL   H12812442   3.672   5.767   5.273 -0.3122  0.3614  0.3569
   48MOL   H12912443   3.547   5.659   5.339 -0.7162  0.2333  0.2080
   48MOL   H13012444   3.370   5.341   4.894  2.3429 -0.7936  0.6436
   48MOL   H13112445   3.429   5.332   5.060 -1.1151  0.9152  1.6703
   48MOL   C13212446   3.267   5.479   5.013 -0.5302 -0.7897 -0.5792
   48MOL   N13312447   3.178   5.407   5.100 -0.3175 -0.1778  0.0573
   48MOL   C13412448   3.121   5.288   5.068 -0.1905 -0.2528  0.5857
   48MOL   O13512449   3.135   5.220   4.969  0.0268 -0.4127 -0.2758
   48MOL   C13612450   3.020   5.245   5.173  0.1448  0.4636 -0.0262
   48MOL   C13712451   3.197   5.516   4.874  0.6148  0.3188 -0.3640
   48MOL   H13812452   3.295   5.568   5.069  0.4163 -3.8492  4.1488
   48MOL   H13912453   3.151   5.450   5.187 -0.9140 -2.5726  1.1039
   48MOL   H14012454   2.934   5.312   5.172 -1.6625 -1.8029 -1.1759
   48MOL   H14112455   2.976   5.150   5.145 -1.0102  0.5859  1.3408
   48MOL   H14212456   3.057   5.238   5.276 -1.2491 -1.1411  0.3927
   48MOL   H14312457   3.181   5.426   4.814  0.0471  0.0631  0.1714
   48MOL   H14412458   3.097   5.554   4.895  1.0447  0.5403  1.3682
   48MOL   C14512459   3.264   5.616   4.774 -0.5672 -0.2932 -0.5804
   48MOL   N14612460   3.285   5.738   4.847  0.4424  0.2357  0.1840
   48MOL   C14712461   3.199   5.837   4.881  0.2863  0.3459 -0.1783
   48MOL   O14812462   3.092   5.849   4.827  0.4537  0.2088  0.4678
   48MOL   C14912463   3.249   5.923   4.997 -0.2097  0.2817 -0.7275
   48MOL   C15012464   3.198   5.646   4.636  0.2843 -0.0803  0.3533
   48MOL   H15112465   3.365   5.587   4.744  0.1427 -0.1625  1.6230
   48MOL   H15212466   3.370   5.741   4.901  1.4240  0.1549 -1.3289
   48MOL   H15312467   3.217   5.874   5.089 -0.9496 -0.0505 -1.1639
   48MOL   H15412468   3.358   5.934   4.997 -0.4134  2.5383 -0.0583
   48MOL   H15512469   3.197   6.019   4.995 -1.0687 -0.1021  1.4857
   48MOL   H15612470   3.096   5.684   4.643  0.5675  1.0451 -1.4065
   48MOL   H15712471   3.259   5.725   4.592  0.4180 -0.7173 -0.6183
   48MOL   C15812472   3.195   5.526   4.532  0.5358  0.3258  0.4408
   48MOL   N15912473   3.208   5.578   4.389  0.2048  0.5758  0.5244
   48MOL   C16012474   3.327   5.592   4.329  0.3687  0.4659  0.8925
   48MOL   O16112475   3.434   5.567   4.386 -0.0198  0.1608  0.1034
   48MOL   C16212476   3.323   5.641   4.185 -0.0874 -0.0673 -0.7354
   48MOL   C16312477   3.066   5.444   4.542  0.1679  0.4095  0.0907
   48MOL   H16412478   3.270   5.451   4.555  0.2302  0.3306  1.4670
   48MOL   H16512479   3.131   5.622   4.340 -0.6603 -0.8811  0.5369
   48MOL   H16612480   3.416   5.618   4.133  0.5449  0.4464  0.1661
   48MOL   H16712481   3.248   5.581   4.133 -2.6387  0.4944  2.1642
   48MOL   H16812482   3.313   5.749   4.177 -0.4311 -0.1500 -1.5856
   48MOL   H16912483   3.051   5.410   4.644 -1.3514  0.5655 -0.0657
   48MOL   H17012484   2.989   5.518   4.519  0.4488  1.0064  1.0606
   48MOL   C17112485   3.052   5.327   4.442 -0.5352  0.4078 -0.3733
   48MOL   N17212486   2.908   5.308   4.431 -0.0670 -0.1314  0.6156
   48MOL   C17312487   2.840   5.290   4.319  0.3315 -0.0507 -0.3277
   48MOL   O17412488   2.892   5.257   4.206 -0.3455  0.3286 -0.5015
   48MOL   C17512489   2.688   5.299   4.326 -0.2057  0.1317 -0.2811
   48MOL   C17612490   3.122   5.199   4.498  0.1351  0.3217  0.0432
   48MOL   H17712491   3.089   5.364   4.346 -1.8552  2.9768  0.0584
   48MOL   H17812492   2.848   5.336   4.508 -0.0302  0.4760  0.4260
   48MOL   H17912493   2.653   5.322   4.225  0.6222 -0.6191 -0.7459
   48MOL   H18012494   2.661   5.197   4.352 -1.6341  0.4810 -0.3575
   48MOL   H18112495   2.658   5.371   4.401 -0.5621  2.6960 -2.7893
   48MOL   H18212496   3.225   5.226   4.524  0.1817  0.7319 -0.5316
   48MOL   H18312497   3.076   5.173   4.593 -0.7071 -1.8039 -0.9366
   48MOL   C18412498   3.112   5.078   4.406  0.6157  1.2570 -0.0698
   48MOL   N18512499   3.132   4.946   4.481  0.2784  0.3595 -0.9316
   48MOL   C18612500   3.247   4.908   4.534  0.1050  0.0768  0.7875
   48MOL   O18712501   3.346   4.973   4.517 -0.0156 -0.6158  0.6377
   48MOL   C18812502   3.250   4.770   4.597 -0.7750 -0.0828 -0.3737
   48MOL   C18912503   3.204   5.092   4.287 -0.5281 -0.3367 -0.5094
   48MOL   H19012504   3.014   5.070   4.359  0.9066  3.1058 -1.0288
   48MOL   H19112505   3.061   4.874   4.488  1.9726 -1.1154  2.0134
   48MOL   H19212506   3.336   4.718   4.555 -1.3703 -1.8581  0.5182
   48MOL   H19312507   3.260   4.786   4.704  0.3425 -0.7590 -0.3755
   48MOL   H19412508   3.158   4.717   4.571 -0.0921 -0.6528 -1.6565
   48MOL   H19512509   3.203   5.198   4.261 -1.9107 -0.5575 -1.4084
   48MOL   H19612510   3.304   5.060   4.316 -1.1903 -1.8579  0.1485
   48MOL   C19712511   3.172   5.024   4.152 -0.2427  0.1176  0.6222
   48MOL   N19812512   3.163   4.876   4.167 -0.2655 -0.5637 -0.0845
   48MOL   C19912513   3.103   4.783   4.092 -0.6974  0.1863 -0.2259
   48MOL   O20012514   3.064   4.805   3.979 -0.0217  0.3719 -0.0219
   48MOL   C20112515   3.095   4.640   4.156  0.1359 -0.1064 -0.0976
   48MOL   C20212516   3.268   5.083   4.039 -0.0560  0.1331  0.2521
   48MOL   H20312517   3.073   5.059   4.122 -0.2188  0.2958  0.7512
   48MOL   H20412518   3.188   4.852   4.261 -0.5992  0.4916  0.2776
   48MOL   H20512519   3.118   4.649   4.262 -0.2307  1.4091 -0.1327
   48MOL   H20612520   2.998   4.590   4.143 -1.2096  2.3186  0.2960
   48MOL   H20712521   3.178   4.579   4.120  0.6813  0.8772 -0.5137
   48MOL   H20812522   3.352   5.136   4.083 -0.6185  0.3732  1.0364
   48MOL   H20912523   3.312   4.995   3.992  3.2562  1.9200 -0.1820
   48MOL   C21012524   3.212   5.168   3.918  0.2364  0.3191  0.4121
   48MOL   N21112525   3.306   5.189   3.812 -0.3097  0.1292 -0.3991
   48MOL   C21212526   3.438   5.226   3.823  0.2456 -0.0281 -0.3283
   48MOL   O21312527   3.500   5.255   3.925  0.2871  0.1148  0.3271
   48MOL   C21412528   3.505   5.226   3.687  0.3363 -0.2210 -0.6163
   48MOL   C21512529   3.161   5.305   3.972 -0.2711  0.3849 -0.1037
   48MOL   H21612530   3.127   5.117   3.873 -0.4489  2.5421 -0.8889
   48MOL   H21712531   3.274   5.168   3.718 -1.1110 -0.0456 -0.0891
   48MOL   H21812532   3.606   5.265   3.699 -0.4676  1.1386  1.8871
   48MOL   H21912533   3.532   5.128   3.647  0.1936 -0.9726  1.1296
   48MOL   H22012534   3.462   5.299   3.618 -1.1650  0.1635  0.7253
   48MOL   H22112535   3.114   5.287   4.069  2.7326 -1.3196  1.1038
   48MOL   H22212536   3.242   5.374   3.997 -0.5593  1.4932 -2.1096
   48MOL   C22312537   3.063   5.381   3.883  0.1004 -0.2737 -0.2214
   48MOL   N22412538   3.123   5.415   3.751 -0.1222  0.1534  0.5732
   48MOL   C22512539   3.086   5.357   3.639 -0.6953 -0.3223 -0.5599
   48MOL   O22612540   3.002   5.273   3.635 -1.0883  0.0289  0.3416
   48MOL   C22712541   3.167   5.401   3.520 -0.1930 -0.0909 -0.0898
   48MOL   C22812542   3.010   5.505   3.956 -0.1376 -0.3562  0.0064
   48MOL   H22912543   2.980   5.315   3.860  2.3953 -3.7126  0.8955
   48MOL   H23012544   3.205   5.474   3.745  0.2628 -0.5020 -0.9885
   48MOL   H23112545   3.265   5.353   3.515  0.2187  0.9136 -3.1237
   48MOL   H23212546   3.118   5.361   3.432  1.7841  0.2641 -1.3985
   48MOL   H23312547   3.166   5.509   3.501  2.5168  0.1912  0.9762
   48MOL   H23412548   2.973   5.490   4.058 -1.1379  0.6527 -0.2008
   48MOL   H23512549   3.093   5.575   3.966 -0.4927  0.2417 -1.1857
   48MOL   C23612550   2.903   5.590   3.878  0.0863  0.0411  0.7234
   48MOL   N23712551   2.818   5.488   3.816  0.3262 -0.1679 -0.5207
   48MOL   C23812552   2.699   5.455   3.855 -0.2386 -0.8856  0.0301
   48MOL   O23912553   2.640   5.500   3.954 -0.2347 -0.1140 -0.2489
   48MOL   C24012554   2.629   5.346   3.769  0.0795 -0.3381  0.3631
   48MOL   C24112555   2.952   5.689   3.782 -0.1717 -0.5427 -0.5003
   48MOL   H24212556   2.844   5.642   3.954  0.0297 -0.3375  0.9395
   48MOL   H24312557   2.850   5.442   3.732  0.7126 -1.2036  0.1840
   48MOL   H24412558   2.699   5.298   3.700 -0.8251 -2.6182  0.9931
   48MOL   H24512559   2.589   5.270   3.836  0.2386  0.3400  1.2258
   48MOL   H24612560   2.542   5.389   3.721 -0.4645 -0.3622  1.3235
   48MOL   H24712561   3.018   5.760   3.832  1.6877 -2.2666 -0.4297
   48MOL   H24812562   3.025   5.637   3.719 -0.2723 -0.4433 -0.6970
   48MOL   C24912563   2.855   5.758   3.684 -0.6385  0.7246  0.8613
   48MOL   N25012564   2.934   5.815   3.576  0.3621 -0.6679  0.3231
   48MOL   C25112565   2.980   5.756   3.464 -0.5416  0.3931 -0.4372
   48MOL   O25212566   2.945   5.641   3.437 -0.0442  0.1045  0.6741
   48MOL   C25312567   3.062   5.848   3.371 -0.8783 -0.3441 -0.4597
   48MOL   C25412568   2.758   5.855   3.742 -0.3951 -0.2109 -0.5984
   48MOL   H25512569   2.792   5.686   3.630 -0.0869  1.3945 -0.6978
   48MOL   H25612570   2.942   5.915   3.588 -0.0478 -0.8179  1.9628
   48MOL   H25712571   2.997   5.934   3.355 -2.2563 -1.4718 -0.8885
   48MOL   H25812572   3.142   5.896   3.428 -0.1621  0.0072 -1.7422
   48MOL   H25912573   3.094   5.813   3.273  0.8357  2.3494 -0.9415
   48MOL   H26012574   2.715   5.916   3.663 -0.9521  2.0081  1.3568
   48MOL   H26112575   2.671   5.807   3.787 -0.9686  1.4128  0.0465
   48MOL   H26212576   2.792   5.929   3.814  4.2899 -1.8057 -1.0302
   49MOL     C112577   3.220   5.235   7.386 -0.2032  0.4152 -0.3610
   49MOL     N212578   3.228   5.364   7.455  0.0159  0.3342 -0.8786
   49MOL     C312579   3.152   5.410   7.550  0.7586 -0.2993 -0.7955
   49MOL     O412580   3.069   5.341   7.601  0.2179 -0.4739  0.1538
   49MOL     C512581   3.181   5.553   7.599  0.4871  0.4086 -0.6082
   49MOL     C612582   3.291   5.118   7.455  0.1808  0.2562  0.0248
   49MOL     H712583   3.117   5.205   7.366 -0.3497 -0.4733  1.6405
   49MOL     H812584   3.282   5.427   7.398 -0.2601  0.3573 -1.1154
   49MOL     H912585   3.095   5.594   7.651  0.0550 -0.2139 -0.8257
   49MOL    H1012586   3.259   5.555   7.675 -1.0949  0.4623  1.0334
   49MOL    H1112587   3.212   5.613   7.513 -1.8655  2.5721 -0.0137
   49MOL    H1212588   3.253   5.119   7.557  0.4430  0.4308  0.1207
   49MOL    H1312589   3.246   5.024   7.424  0.1341 -0.4905  2.3014
   49MOL    H1412590   3.270   5.248   7.290  0.3743 -1.2064 -0.2777
   49MOL    C1512591   3.445   5.114   7.447 -0.0598  0.0985 -0.7217
   49MOL    N1612592   3.484   5.108   7.311 -0.0396  0.5208  0.5620
   49MOL    C1712593   3.557   5.195   7.238  0.0838  0.9155  0.3159
   49MOL    O1812594   3.622   5.279   7.290 -0.8866 -0.1360  0.4376
   49MOL    C1912595   3.569   5.161   7.088 -0.5603  0.0151  0.3069
   49MOL    C2012596   3.493   4.991   7.518  0.9147  0.2339 -0.0315
   49MOL    H2112597   3.482   5.204   7.497 -2.1324 -1.4021  3.8022
   49MOL    H2212598   3.458   5.024   7.261  1.3425  0.8330 -0.6921
   49MOL    H2312599   3.611   5.234   7.019 -2.4613  1.1690  0.3312
   49MOL    H2412600   3.645   5.083   7.080  1.3982  1.8863  0.3297
   49MOL    H2512601   3.476   5.112   7.060  0.8450 -1.7680 -1.3762
   49MOL    H2612602   3.464   4.995   7.623  1.5743  0.2599  0.1508
   49MOL    H2712603   3.449   4.898   7.480 -1.2471  1.1419  0.2151
   49MOL    C2812604   3.646   4.985   7.530  0.2308  0.1114 -0.6883
   49MOL    N2912605   3.685   4.861   7.599  0.4922 -0.1621 -0.5976
   49MOL    C3012606   3.775   4.768   7.556  0.0098  0.0383 -0.2766
   49MOL    O3112607   3.819   4.780   7.442  0.0984 -0.2340 -0.2682
   49MOL    C3212608   3.809   4.658   7.653 -0.2320  0.5550  0.2746
   49MOL    C3312609   3.711   5.102   7.599  0.2089 -1.4940 -0.9725
   49MOL    H3412610   3.669   4.978   7.423 -2.7419 -1.5302 -1.2657
   49MOL    H3512611   3.636   4.842   7.685 -0.4669 -1.2558 -1.3618
   49MOL    H3612612   3.853   4.692   7.747  1.6149 -0.2868 -0.2691
   49MOL    H3712613   3.720   4.602   7.680 -0.1438 -0.2727 -1.1379
   49MOL    H3812614   3.873   4.581   7.611 -1.1257 -0.2225  0.3327
   49MOL    H3912615   3.685   5.194   7.547  0.3452 -0.4756  0.7136
   49MOL    H4012616   3.669   5.121   7.698 -0.2462 -0.5338 -1.3406
   49MOL    C4112617   3.867   5.100   7.606  0.3999 -0.4993 -0.7320
   49MOL    N4212618   3.926   5.189   7.702 -0.1236  0.4813  0.5173
   49MOL    C4312619   3.922   5.181   7.838  0.6990  0.1968 -0.4031
   49MOL    O4412620   3.872   5.094   0.070 -0.1575  0.2866 -0.5336
   49MOL    C4512621   3.984   5.302   0.058  0.4914  0.4297  1.1072
   49MOL    C4612622   3.937   5.099   7.467 -0.2004 -0.2408 -0.1108
   49MOL    H4712623   3.891   5.000   7.642 -0.0981  0.1601  1.5497
   49MOL    H4812624   3.953   5.278   7.664 -1.8145  0.6267 -0.4295
   49MOL    H4912625   3.979   5.389   7.832 -1.8681 -1.2140 -1.0100
   49MOL    H5012626   3.929   5.332   0.148  2.1979  1.3660  1.8476
   49MOL    H5112627   4.086   5.288   0.094  0.8662  0.0425 -0.0955
   49MOL    H5212628   4.022   5.031   7.473 -1.3967 -1.5714  2.8152
   49MOL    H5312629   3.878   5.044   7.393  0.5971 -1.7903  0.3714
   49MOL    C5412630   4.005   5.229   7.422 -0.1904  0.2738  0.3138
   49MOL    N5512631   3.899   5.327   7.402  0.1065  0.7747 -0.4367
   49MOL    C5612632   3.893   5.452   7.456  0.0118 -0.1738  0.1409
   49MOL    O5712633   3.984   5.497   7.527  0.3907  0.2931  0.3009
   49MOL    C5812634   3.770   5.534   7.437 -0.0510 -0.3061 -0.6256
   49MOL    C5912635   4.088   5.212   7.297 -0.3079 -0.1541 -0.1775
   49MOL    H6012636   4.069   5.262   7.503 -1.7159  1.3238  1.1217
   49MOL    H6112637   3.834   5.299   7.330  0.8866 -0.9098 -0.5076
   49MOL    H6212638   3.781   5.596   7.348  0.9374  1.4476  0.6931
   49MOL    H6312639   3.686   5.468   7.417  1.8698 -2.4186 -1.9857
   49MOL    H6412640   3.748   5.608   7.514  0.5583 -3.5447  2.7884
   49MOL    H6512641   4.139   5.116   7.295  0.5649  0.2822  0.5864
   49MOL    H6612642   4.020   5.207   7.212  0.3715 -1.2061 -0.6689
   49MOL    C6712643   4.193   5.325   7.276 -0.4282 -0.0139 -0.2061
   49MOL    N6812644   4.186   5.388   7.147 -0.2944  0.1465 -0.0681
   49MOL    C6912645   4.211   5.339   7.022  0.0793 -0.1862  0.4682
   49MOL    O7012646   4.260   5.223   6.995 -0.1677  0.3820 -0.0463
   49MOL    C7112647   4.191   5.423   6.904  0.9243  0.2435 -0.1683
   49MOL    C7212648   4.341   5.286   7.313 -0.8894  0.0694  1.1619
   49MOL    H7312649   4.166   5.413   7.334 -2.0809 -1.7579  1.7678
   49MOL    H7412650   4.158   5.485   7.151 -0.9601  0.1575 -3.3565
   49MOL    H7512651   4.291   5.459   6.879  1.8087 -1.2799  1.1224
   49MOL    H7612652   4.156   5.361   6.822 -0.0152 -1.8879  1.8157
   49MOL    H7712653   4.134   5.516   6.906  2.3642  1.1335  2.3761
   49MOL    H7812654   4.364   5.194   7.258 -0.9148  0.9715 -0.3809
   49MOL    H7912655   4.403   5.356   7.257 -0.9878 -2.0483 -1.7327
   49MOL    C8012656   4.374   5.260   7.464 -0.3008  0.6646  0.3740
   49MOL    N8112657   4.346   5.385   7.541  0.2821 -0.2200  0.4657
   49MOL    C8212658   4.294   5.395   7.666 -0.3438 -0.3420  0.9496
   49MOL    O8312659   4.257   5.302   7.728  0.2279 -0.2281 -0.2048
   49MOL    C8412660   4.290   5.536   7.719 -0.0046 -0.1901 -0.5108
   49MOL    C8512661   4.516   5.209   7.482 -0.2754  0.3383 -0.2463
   49MOL    H8612662   4.303   5.181   7.489 -1.0290  1.0387 -0.4631
   49MOL    H8712663   4.371   5.475   7.501  1.4015 -0.3483  0.8585
   49MOL    H8812664   4.205   5.571   7.659 -1.5173 -1.1083  1.0530
   49MOL    H8912665   4.271   5.528   7.826  1.1239 -0.1353 -0.3024
   49MOL    H9012666   4.384   5.587   7.700 -0.4997  1.1092  0.4815
   49MOL    H9112667   4.554   5.171   7.387  0.0743 -0.3037  0.1424
   49MOL    H9212668   4.573   5.300   7.501  0.3754 -0.3954  1.4388
   49MOL    C9312669   4.544   5.098   7.584 -0.3824 -0.0464  0.4720
   49MOL    N9412670   4.467   5.119   7.707 -0.2244  0.2877  0.0707
   49MOL    C9512671   4.433   5.019   7.792 -0.0535 -0.2419 -1.2284
   49MOL    O9612672   4.467   4.902   7.777  0.4772 -0.0920 -0.3687
   49MOL    C9712673   4.336   5.057   0.063 -0.0801 -0.2944 -0.4494
   49MOL    C9812674   4.693   5.077   7.618  0.1149 -0.2247 -0.6922
   49MOL    H9912675   4.516   5.005   7.535 -0.5930 -0.5227  1.5042
   49MOL   H10012676   4.425   5.210   7.713 -0.7998  0.1279 -1.3721
   49MOL   H10112677   4.386   5.134   0.124 -0.0552 -1.5732  1.1764
   49MOL   H10212678   4.241   5.098   0.030 -1.4037 -0.9429  2.3782
   49MOL   H10312679   4.321   4.973   0.130 -3.2535 -0.2125 -1.0049
   49MOL   H10412680   4.718   5.160   7.685  0.2145 -1.3497  0.6817
   49MOL   H10512681   4.693   4.990   7.683 -0.5131 -1.4427 -2.2961
   49MOL   C10612682   4.793   5.070   7.494 -0.3875  0.8038  1.1824
   49MOL   N10712683   4.772   4.936   7.429  0.0361  1.1818  0.7734
   49MOL   C10812684   4.785   4.909   7.304 -0.0986  0.6029  0.1980
   49MOL   O10912685   4.814   4.997   7.223  0.1621 -0.1662 -0.2575
   49MOL   C11012686   4.758   4.766   7.258 -0.4017  0.0917 -0.3590
   49MOL   C11112687   4.939   5.086   7.541  0.3155 -0.0477  0.2049
   49MOL   H11212688   4.777   5.150   7.422 -2.2358 -1.5084 -1.0754
   49MOL   H11312689   4.758   4.854   7.485  0.1906  1.0607  0.6346
   49MOL   H11412690   4.692   4.783   7.173  0.7251 -0.8729 -1.4455
   49MOL   H11512691   4.855   4.725   7.230 -0.2261  0.5356 -0.4137
   49MOL   H11612692   4.711   4.694   7.325  0.6034 -2.9651 -2.7955
   49MOL   H11712693   4.954   5.008   7.616 -3.1407 -1.3328 -0.3846
   49MOL   H11812694   4.999   5.072   7.451 -0.3493  1.8118 -0.5323
   49MOL   C11912695   4.978   5.224   7.598 -0.5997  0.0443 -0.4216
   49MOL   N12012696   4.911   5.329   7.533 -0.1270 -0.2279  0.2950
   49MOL   C12112697   4.818   5.411   7.591  0.3600  0.2300 -0.7329
   49MOL   O12212698   4.773   5.388   7.706 -0.2407  0.6540  0.2547
   49MOL   C12312699   4.780   5.534   7.509  0.3488  0.2994  0.0724
   49MOL   C12412700   5.140   5.235   7.606  0.1315 -0.4150  1.0339
   49MOL   H12512701   4.951   5.215   7.703 -1.0075  1.1540 -0.4212
   49MOL   H12612702   4.958   5.366   7.452  1.4696  1.5143  1.9498
   49MOL   H12712703   4.671   5.524   7.502  0.4359  0.0907 -1.2109
   49MOL   H12812704   4.799   5.628   7.561  1.9719  0.1165 -0.1638
   49MOL   H12912705   4.816   5.534   7.406  2.3197  1.2132  0.7339
   49MOL   H13012706   5.173   5.139   7.565 -1.1266 -1.0215  1.4240
   49MOL   H13112707   5.177   5.325   7.558 -1.7347  0.8946  1.9860
   49MOL   C13212708   5.190   5.231   7.754  0.1879  0.1220 -0.2333
   49MOL   N13312709   5.140   5.342   7.838 -0.0871  0.4833 -0.4204
   49MOL   C13412710   5.074   5.335   0.110  0.3284 -0.3843  0.1986
   49MOL   O13512711   5.043   5.228   0.161 -0.1313 -0.1542  0.3345
   49MOL   C13612712   5.031   5.469   0.177  0.0314 -0.3813  0.3762
   49MOL   C13712713   5.347   5.224   7.761 -0.4372 -0.6530  0.5020
   49MOL   H13812714   5.149   5.136   7.786 -0.6860  0.5954  0.0744
   49MOL   H13912715   5.164   5.438   7.816  2.0569  0.7129  2.6340
   49MOL   H14012716   4.964   5.452   0.261 -0.5010 -2.1768 -0.3916
   49MOL   H14112717   5.116   5.523   0.217 -0.0058  0.2334 -0.3613
   49MOL   H14212718   4.977   5.540   0.114 -0.1172  0.9702  1.9756
   49MOL   H14312719   5.373   5.175   7.667 -0.1715  0.5577 -0.0561
   49MOL   H14412720   5.389   5.324   7.750  0.2332 -1.0134 -0.2713
   49MOL   C14512721   5.403   5.157   0.047 -0.3821 -0.1720 -0.2413
   49MOL   N14612722   5.539   5.186   0.075  0.0330  0.2078  0.7890
   49MOL   C14712723   5.633   5.205   7.820  0.1999  0.4166  0.0473
   49MOL   O14812724   5.608   5.221   7.699 -0.5034  0.8303 -0.2417
   49MOL   C14912725   5.772   5.203   0.032 -1.0717  0.0897 -0.4156
   49MOL   C15012726   5.384   5.004   0.035  0.8265  0.1328  0.1505
   49MOL   H15112727   5.353   5.202   0.133  0.5189  0.7828 -0.2113
   49MOL   H15212728   5.572   5.154   0.165 -1.4545  1.5873  1.8382
   49MOL   H15312729   5.776   5.238   0.136  1.3779 -0.1316 -0.4092
   49MOL   H15412730   5.798   5.097   0.034 -1.7012 -0.0556  1.9264
   49MOL   H15512731   5.837   5.261   7.806  0.6021  0.2977  1.3705
   49MOL   H15612732   5.276   4.989   0.035  0.6813  1.1167 -0.3174
   49MOL   H15712733   5.420   4.979   7.775  1.2591  0.4073  0.2360
   49MOL   C15812734   5.438   4.919   0.149  0.0309  0.4576  0.3468
   49MOL   N15912735   5.392   4.778   0.122  0.3107  0.1419 -0.3238
   49MOL   C16012736   5.480   4.678   0.090  0.5324  0.3828 -0.1464
   49MOL   O16112737   5.602   4.688   0.076  0.7530 -0.4371  0.0191
   49MOL   C16212738   5.423   4.533   0.071  0.0344 -0.2491  0.1689
   49MOL   C16312739   5.392   4.951   0.296  0.1801 -0.0372 -0.1611
   49MOL   H16412740   5.545   4.934   0.131  0.0414  2.3126  1.8963
   49MOL   H16512741   5.292   4.762   0.117  0.0452  1.8895 -1.4160
   49MOL   H16612742   5.353   4.507   0.150  0.1059 -2.1037 -0.3464
   49MOL   H16712743   5.366   4.536   7.818 -2.8752  1.7896  1.9719
   49MOL   H16812744   5.493   4.450   0.083  0.9101  0.6119  1.0919
   49MOL   H16912745   5.411   5.058   0.304 -1.5107  0.2399  0.2206
   49MOL   H17012746   5.284   4.947   0.307  0.3780  2.0045  2.9872
   49MOL   C17112747   5.458   4.877   0.421 -0.2763  0.3418 -0.7730
   49MOL   N17212748   5.605   4.844   0.405  0.0776 -0.5006  0.0886
   49MOL   C17312749   5.717   4.929   0.396 -0.2057  0.2164  0.1803
   49MOL   O17412750   5.707   5.050   0.370  0.1748  0.2913  0.0386
   49MOL   C17512751   5.856   4.869   0.406  0.0220  0.0819 -0.0855
   49MOL   C17612752   5.371   4.752   0.450 -0.0584  0.2992  0.2128
   49MOL   H17712753   5.450   4.935   0.512 -0.8759 -0.1994 -0.4777
   49MOL   H17812754   5.629   4.748   0.429  1.7867 -0.3909 -1.1605
   49MOL   H17912755   5.901   4.917   0.493  0.3082 -0.4645  0.0662
   49MOL   H18012756   5.859   4.762   0.427  0.9324  0.1665  0.2275
   49MOL   H18112757   5.923   4.889   0.323 -0.8112  0.2345 -0.7291
   49MOL   H18212758   5.279   4.791   0.495 -0.4745 -0.7600  0.3047
   49MOL   H18312759   5.336   4.701   0.360 -0.9817  0.6450  0.3656
   49MOL   C18412760   5.425   4.647   0.552  0.1473 -0.0566 -0.5554
   49MOL   N18512761   5.504   4.542   0.485 -0.7584 -0.0774  0.4220
   49MOL   C18612762   5.620   4.497   0.521 -0.1173  1.0730  0.3145
   49MOL   O18712763   5.681   4.553   0.608  0.2626  0.2652  0.0969
   49MOL   C18812764   5.676   4.378   0.450 -0.5303  0.3738  0.2788
   49MOL   C18912765   5.305   4.568   0.624 -0.4493  0.4471  0.2159
   49MOL   H19012766   5.473   4.703   0.632  0.2009 -0.1093 -0.5506
   49MOL   H19112767   5.465   4.507   0.399 -2.5618  0.7722  0.8745
   49MOL   H19212768   5.701   4.296   0.517 -1.3708  0.0538  0.2064
   49MOL   H19312769   5.607   4.323   0.386  0.8283 -0.3386 -0.5872
   49MOL   H19412770   5.761   4.397   0.384  0.6791  0.8305  1.9441
   49MOL   H19512771   5.240   4.539   0.541 -1.1264  0.8558  0.5988
   49MOL   H19612772   5.334   4.477   0.677 -2.4579  1.3827  3.0198
   49MOL   C19712773   5.223   4.655   0.715  0.7048  0.4268 -0.4263
   49MOL   N19812774   5.300   4.714   0.827 -0.1263  0.3451  0.5361
   49MOL   C19912775   5.342   4.656   0.944  0.2917  0.1023  0.7382
   49MOL   O20012776   5.313   4.542   0.975 -0.2052  0.6423 -0.5461
   49MOL   C20112777   5.415   4.742   1.037 -0.2967 -0.2631 -0.1626
   49MOL   C20212778   5.103   4.572   0.773  1.0718 -0.2999  0.1980
   49MOL   H20312779   5.175   4.734   0.657 -1.7118 -1.7976 -1.5209
   49MOL   H20412780   5.319   4.813   0.817  1.0100  0.1431  0.7073
   49MOL   H20512781   5.487   4.679   1.089  0.3130 -0.3421 -1.0932
   49MOL   H20612782   5.470   4.830   1.005  1.3793 -0.6107  1.6909
   49MOL   H20712783   5.356   4.779   1.121  1.3038 -0.0851  0.9057
   49MOL   H20812784   5.137   4.481   0.824  2.1638 -0.8522 -1.5027
   49MOL   H20912785   5.061   4.638   0.849  0.4596 -0.3756 -0.0765
   49MOL   C21012786   4.994   4.544   0.669  0.4692  0.2745  0.0258
   49MOL   N21112787   4.946   4.665   0.596  0.6513 -0.1866 -0.0256
   49MOL   C21212788   4.984   4.704   0.469 -0.2765  0.0601 -0.3450
   49MOL   O21312789   5.060   4.639   0.404 -0.0092  0.0976 -0.6784
   49MOL   C21412790   4.936   4.834   0.413 -0.2714  0.0638 -0.6053
   49MOL   C21512791   4.887   4.451   0.728  0.0619  0.1462  0.3532
   49MOL   H21612792   5.047   4.484   0.595 -0.9072 -1.7670  0.6573
   49MOL   H21712793   4.882   4.729   0.643  0.8446  0.4354 -0.6009
   49MOL   H21812794   4.879   4.900   0.479 -2.1722 -1.3995 -0.7415
   49MOL   H21912795   5.022   4.898   0.395  0.2175 -0.0167  1.3598
   49MOL   H22012796   4.874   4.823   0.324  1.5795  1.5144 -2.1176
   49MOL   H22112797   4.919   4.432   0.830 -2.4900  1.5836  1.4447
   49MOL   H22212798   4.794   4.505   0.744  0.5566  1.5070 -1.1839
   49MOL   C22312799   4.855   4.321   0.652 -0.4102  0.1072 -0.3350
   49MOL   N22412800   4.755   4.245   0.718  0.3142 -0.0080  0.5332
   49MOL   C22512801   4.630   4.218   0.676  0.1717 -0.5132 -0.1098
   49MOL   O22612802   4.570   4.280   0.592  0.4954  0.5843 -0.1626
   49MOL   C22712803   4.567   4.095   0.742  0.5905  0.3882 -0.3767
   49MOL   C22812804   4.973   4.222   0.629 -0.1350 -0.4331  0.1616
   49MOL   H22912805   4.817   4.351   0.554 -1.9846  0.1524  0.2791
   49MOL   H23012806   4.790   4.184   0.790 -1.0833  0.8534  1.9539
   49MOL   H23112807   4.538   4.114   0.846  0.4223  0.2685 -0.4021
   49MOL   H23212808   4.478   4.052   0.696  1.2712  0.6221 -1.9146
   49MOL   H23312809   4.639   4.015   0.756 -3.5519 -3.3554  0.7019
   49MOL   H23412810   5.064   4.281   0.617 -0.0266 -0.5426  0.4387
   49MOL   H23512811   4.982   4.167   0.722 -1.0296 -0.8731 -0.0107
   49MOL   C23612812   4.965   4.136   0.499 -0.3335  0.0182 -0.1424
   49MOL   N23712813   4.850   4.041   0.496  0.6194  0.5189  0.2392
   49MOL   C23812814   4.853   3.925   0.566  0.1296 -0.0187  0.0249
   49MOL   O23912815   4.929   3.899   0.660 -0.7073  0.5969 -0.5067
   49MOL   C24012816   4.741   3.829   0.543  0.6258  0.3061 -0.2860
   49MOL   C24112817   5.100   4.072   0.448  0.1712  0.3060  0.0702
   49MOL   H24212818   4.934   4.209   0.425 -0.7538  0.8557  0.8547
   49MOL   H24312819   4.765   4.068   0.448  1.0156  1.7285  0.2003
   49MOL   H24412820   4.743   3.777   0.448  0.9935 -0.5763  0.1932
   49MOL   H24512821   4.723   3.767   0.631  0.8477  1.4799  0.5950
   49MOL   H24612822   4.653   3.894   0.544  0.0940 -0.4066  0.8233
   49MOL   H24712823   5.169   4.151   0.476 -0.3073  0.9058 -0.4345
   49MOL   H24812824   5.136   3.991   0.512 -0.3955 -0.4681 -0.5744
   49MOL   C24912825   5.113   4.040   0.299  0.5800 -0.0701  0.2673
   49MOL   N25012826   5.018   3.949   0.241 -0.5126  0.2117  0.3933
   49MOL   C25112827   5.009   3.815   0.248 -0.6262 -0.0388  0.4973
   49MOL   O25212828   5.090   3.744   0.307 -0.1693  0.7251 -0.4365
   49MOL   C25312829   4.884   3.757   0.186 -0.0944  0.5135 -0.1886
   49MOL   C25412830   5.258   4.000   0.289 -0.1779 -0.2290 -0.3548
   49MOL   H25512831   5.104   4.134   0.244  0.8202 -0.1817  0.0355
   49MOL   H25612832   4.931   3.982   0.202 -0.2956 -1.0677 -1.2726
   49MOL   H25712833   4.866   3.766   0.079 -2.7279 -0.5384  0.1225
   49MOL   H25812834   4.879   3.648   0.191 -1.0166  0.5786  0.4243
   49MOL   H25912835   4.794   3.786   0.240 -0.2647  0.9591 -0.7061
   49MOL   H26012836   5.322   4.070   0.343 -0.2851 -0.9267  0.6891
   49MOL   H26112837   5.279   3.906   0.339 -1.1571 -0.3311 -0.1241
   49MOL   H26212838   5.286   4.015   0.185  0.4097  1.3054  0.0048
   50MOL     C112839   7.815   6.458   7.465 -0.2762 -0.1675  0.2241
   50MOL     N212840   7.746   6.582   7.434 -0.2718 -0.6115 -0.1087
   50MOL     C312841   7.686   6.601   7.314  0.7262 -0.1121  0.5781
   50MOL     O412842   7.668   6.505   7.234 -0.2682  0.2100  0.6623
   50MOL     C512843   7.621   6.736   7.278  0.1550  0.3308  0.4284
   50MOL     C612844   7.728   6.364   7.544 -0.0363  0.2464 -0.1710
   50MOL     H712845   0.031   6.413   7.383  0.4115  0.0839  0.5444
   50MOL     H812846   7.738   6.652   7.506 -0.9538 -0.3780 -0.4057
   50MOL     H912847   7.523   6.724   7.233 -0.0040  1.3377  0.5014
   50MOL    H1012848   7.609   6.796   7.368  2.5841  0.3484  0.7905
   50MOL    H1112849   7.700   6.787   7.222 -1.1766  2.3990  0.4026
   50MOL    H1212850   7.779   6.348   7.639 -0.2160  0.5177 -0.0250
   50MOL    H1312851   7.635   6.412   7.575  0.9114  1.8329  0.2973
   50MOL    H1412852   0.058   6.494   7.526  0.2751  0.3571 -0.8345
   50MOL    C1512853   7.703   6.225   7.476  0.2497  0.7748  0.2761
   50MOL    N1612854   7.634   6.237   7.344  0.2208 -0.4451  0.5764
   50MOL    C1712855   7.638   6.142   7.247 -0.1196 -0.5265  1.3660
   50MOL    O1812856   7.712   6.042   7.255 -0.3451  0.4299 -0.0173
   50MOL    C1912857   7.573   6.162   7.111  0.2787  0.2126 -0.0828
   50MOL    C2012858   7.651   6.108   7.570 -1.1556 -0.5363 -0.5936
   50MOL    H2112859   7.805   6.187   7.467 -1.1627 -3.4648  1.0275
   50MOL    H2212860   7.593   6.325   7.314  1.1281 -0.2679 -0.1497
   50MOL    H2312861   7.483   6.101   7.107 -0.1200  0.7833  0.1009
   50MOL    H2412862   7.553   6.268   7.098  0.0294  0.3281  1.1138
   50MOL    H2512863   7.643   6.128   7.036 -0.8738  0.1960 -1.1646
   50MOL    H2612864   7.675   6.018   7.513 -0.4132  0.3930 -1.7689
   50MOL    H2712865   7.711   6.108   7.661 -0.3878 -0.3852 -1.0987
   50MOL    C2812866   7.500   6.119   7.601 -0.0873  0.1175  0.5297
   50MOL    N2912867   7.470   6.247   7.670 -0.3488 -0.0008 -0.0130
   50MOL    C3012868   7.374   6.337   7.634 -0.3112  0.4617  1.2915
   50MOL    O3112869   7.305   6.317   7.530  0.0353  0.6275  0.1936
   50MOL    C3212870   7.355   6.453   7.719  0.6167 -0.1938 -0.4584
   50MOL    C3312871   7.450   6.008   7.694 -0.3415 -0.0593 -0.1291
   50MOL    H3412872   7.443   6.111   7.508 -2.2505 -0.1494  1.8533
   50MOL    H3512873   7.534   6.272   7.744 -0.6993 -1.3421  0.7713
   50MOL    H3612874   7.340   6.545   7.662  2.6954  0.8259  0.5836
   50MOL    H3712875   7.262   6.426   7.769 -0.1660 -1.0452 -2.3146
   50MOL    H3812876   7.431   6.475   7.794 -1.6193  2.1466  1.1892
   50MOL    H3912877   7.488   5.917   7.648 -0.6481  0.1317 -0.7661
   50MOL    H4012878   7.494   6.015   7.794  0.6530  0.8093 -0.6129
   50MOL    C4112879   7.297   6.001   7.717  0.0539 -0.2349  1.0008
   50MOL    N4212880   7.271   5.912   7.835 -0.8461 -0.2215  0.0756
   50MOL    C4312881   7.266   5.947   0.122  0.5556  0.1041  0.6340
   50MOL    O4412882   7.288   6.060   0.162  0.1809 -0.2342  0.2066
   50MOL    C4512883   7.247   5.845   0.242 -0.8762 -0.1580  0.2312
   50MOL    C4612884   7.227   5.954   7.593 -0.7735 -0.3530 -0.3057
   50MOL    H4712885   7.266   6.104   7.737  0.5191  0.1348 -0.1578
   50MOL    H4812886   7.264   5.813   7.815  2.5096 -0.3259 -0.8647
   50MOL    H4912887   7.329   5.855   0.313 -1.5173  0.4324  0.9109
   50MOL    H5012888   7.156   5.864   0.300 -1.1182 -0.6359  0.0066
   50MOL    H5112889   7.230   5.753   0.186 -0.5950  1.3018 -2.3230
   50MOL    H5212890   7.239   6.028   7.514 -3.0727  0.7439  0.3215
   50MOL    H5312891   7.287   5.866   7.568  2.3461  1.6846 -0.3645
   50MOL    C5412892   7.072   5.932   7.591 -0.2423 -0.1054 -0.2791
   50MOL    N5512893   7.043   5.848   7.473  0.4058 -0.0231  0.5377
   50MOL    C5612894   6.993   5.724   7.485  0.0814  0.4127  0.0461
   50MOL    O5712895   6.959   5.663   7.587 -0.3307  0.4484 -0.0721
   50MOL    C5812896   6.980   5.640   7.356  0.9015  0.1419  0.6608
   50MOL    C5912897   7.006   6.067   7.551 -0.0918  0.5011  0.3630
   50MOL    H6012898   7.029   5.898   7.686 -0.9799 -1.2797 -1.0194
   50MOL    H6112899   7.064   5.887   7.382  0.5944 -0.7047  0.2858
   50MOL    H6212900   6.997   5.535   7.383  0.0369  0.2348  1.5725
   50MOL    H6312901   6.883   5.654   7.308  0.7935  2.5971  1.5463
   50MOL    H6412902   7.050   5.671   7.279 -0.5695  0.2828 -0.6343
   50MOL    H6512903   7.044   6.109   7.458 -0.9134 -1.4030 -0.8539
   50MOL    H6612904   6.900   6.057   7.529 -0.6003  3.7251  1.0251
   50MOL    C6712905   7.007   6.184   7.654 -0.6570  0.0249  0.3776
   50MOL    N6812906   7.003   6.140   7.793 -0.3068  0.0998  0.0590
   50MOL    C6912907   6.893   6.090   0.016 -0.9185 -0.2010  0.0700
   50MOL    O7012908   6.781   6.076   7.800  0.0999  0.4529 -0.1831
   50MOL    C7112909   6.908   6.064   0.164 -0.0844 -0.3124 -0.3504
   50MOL    C7212910   6.902   6.297   7.629  0.1891 -0.1944 -0.0483
   50MOL    H7312911   7.103   6.229   7.628 -2.2672  1.3162 -3.8029
   50MOL    H7412912   7.077   6.151   0.021 -1.0740  1.4511  0.7031
   50MOL    H7512913   7.012   6.087   0.189 -0.0406  1.0791 -1.7624
   50MOL    H7612914   6.854   6.138   0.224 -0.1850  0.8600 -1.8570
   50MOL    H7712915   6.873   5.963   0.186  1.5562 -0.8335 -0.0465
   50MOL    H7812916   6.800   6.259   7.638  0.2192 -0.4519 -0.7918
   50MOL    H7912917   6.920   6.377   7.701 -0.3212 -0.0790 -0.0440
   50MOL    C8012918   6.908   6.374   7.502 -0.2981  0.2502  0.3137
   50MOL    N8112919   6.864   6.505   7.513 -0.0598 -0.0694 -0.3060
   50MOL    C8212920   6.928   6.619   7.494 -0.2607 -0.1095 -0.6311
   50MOL    O8312921   7.049   6.623   7.469 -0.0815 -0.3596 -0.6357
   50MOL    C8412922   6.835   6.744   7.490 -0.3681 -0.9215  0.2706
   50MOL    C8512923   6.831   6.299   7.385 -0.1911  0.0238  0.7866
   50MOL    H8612924   7.014   6.388   7.478 -0.0920 -1.4473  0.2308
   50MOL    H8712925   6.764   6.520   7.512 -0.1985 -0.9524 -0.2992
   50MOL    H8812926   6.737   6.728   7.445 -0.7154 -1.1399  1.0875
   50MOL    H8912927   6.811   6.784   7.589 -0.4631 -2.6037  0.9465
   50MOL    H9012928   6.883   6.820   7.429 -0.6507 -1.4987 -0.6875
   50MOL    H9112929   6.878   6.202   7.366 -0.9637  0.1801 -2.2940
   50MOL    H9212930   6.732   6.281   7.426 -0.7475  0.7423 -0.2252
   50MOL    C9312931   6.841   6.378   7.247 -0.9442  0.4060 -0.2574
   50MOL    N9412932   6.707   6.386   7.189  0.2799  0.6873 -0.4868
   50MOL    C9512933   6.630   6.496   7.205  0.1817 -0.4370  0.8015
   50MOL    O9612934   6.663   6.598   7.254 -0.1877  0.1640  0.1430
   50MOL    C9712935   6.493   6.481   7.148 -0.9221  0.6122  0.4155
   50MOL    C9812936   6.933   6.314   7.139  0.2381  0.2601 -0.3934
   50MOL    H9912937   6.879   6.478   7.269 -0.2608  0.8160 -3.1724
   50MOL   H10012938   6.662   6.304   7.150 -0.2598  0.0698  1.4049
   50MOL   H10112939   6.408   6.510   7.211 -2.1797 -1.2097 -0.3995
   50MOL   H10212940   6.486   6.533   7.053 -0.3875  1.6164  0.9216
   50MOL   H10312941   6.470   6.377   7.126 -0.9539  0.4568  1.1545
   50MOL   H10412942   6.891   6.242   7.070 -2.9940 -1.2567  2.9795
   50MOL   H10512943   6.960   6.401   7.079  2.5872  2.2251  3.3216
   50MOL   C10612944   7.077   6.259   7.180  0.7053  0.3653 -0.4815
   50MOL   N10712945   7.162   6.364   7.236 -0.0401 -0.1910  0.7276
   50MOL   C10812946   7.228   6.461   7.179  0.0676  0.3562 -0.4595
   50MOL   O10912947   7.216   6.494   7.066 -0.4860 -0.4554 -0.0155
   50MOL   C11012948   7.322   6.529   7.281 -0.1085  0.3408  0.6844
   50MOL   C11112949   7.144   6.202   7.052  1.0973  0.7372  0.0183
   50MOL   H11212950   7.069   6.178   7.252 -2.2799  1.4095  0.4149
   50MOL   H11312951   7.173   6.361   7.336 -0.0383 -0.0786  0.7300
   50MOL   H11412952   7.261   6.568   7.363 -0.1299  0.6304  0.5306
   50MOL   H11512953   7.402   6.464   7.317  0.6895  0.1548 -1.3334
   50MOL   H11612954   7.354   6.615   7.223 -0.2249 -1.4441 -2.1096
   50MOL   H11712955   7.128   6.266   6.966  1.7920  1.1864  0.2263
   50MOL   H11812956   7.253   6.198   7.049  1.1085 -0.0612  1.1396
   50MOL   C11912957   7.088   6.058   7.008 -0.2419  0.1147  0.6834
   50MOL   N12012958   7.191   5.955   7.012 -0.6734  0.0524  0.1323
   50MOL   C12112959   7.233   5.904   7.122 -0.1111  0.1480 -0.5642
   50MOL   O12212960   7.186   5.936   7.233 -0.2467  0.4045  0.0950
   50MOL   C12312961   7.345   5.808   7.103 -0.2181  0.9244 -0.4857
   50MOL   C12412962   7.012   6.054   6.871 -0.4160  0.0222 -0.6590
   50MOL   H12512963   7.008   6.035   7.079  0.3509  0.7071  1.5593
   50MOL   H12612964   7.222   5.924   6.921 -0.9222 -2.3983  0.8362
   50MOL   H12712965   7.427   5.827   7.173 -0.3634 -0.0985 -0.0181
   50MOL   H12812966   7.313   5.703   7.106  0.8714  0.6037  0.4637
   50MOL   H12912967   7.397   5.810   7.008 -0.2082  2.8468 -0.4568
   50MOL   H13012968   6.988   6.157   6.845 -1.6002 -0.6431 -2.3130
   50MOL   H13112969   7.076   6.027   6.787  1.0682  0.7623  0.2282
   50MOL   C13212970   6.883   5.963   6.864 -0.3640 -0.2195 -0.5736
   50MOL   N13312971   6.931   5.829   6.873  0.3102 -0.1717  0.3965
   50MOL   C13412972   6.900   5.744   6.966  0.1406 -0.0653  0.4631
   50MOL   O13512973   6.814   5.772   7.044 -0.1688 -0.0043 -0.0216
   50MOL   C13612974   6.963   5.609   6.965  0.5572 -0.1069 -0.1508
   50MOL   C13712975   6.798   5.982   6.729  0.7598 -0.6855  0.2998
   50MOL   H13812976   6.823   5.993   6.950  2.6002 -1.0559  1.8587
   50MOL   H13912977   7.019   5.806   6.828 -0.0994  2.2057 -1.7045
   50MOL   H14012978   7.072   5.615   6.973  0.6431 -2.8964  1.0789
   50MOL   H14112979   6.930   5.567   7.059 -0.4004  1.7116  0.3414
   50MOL   H14212980   6.934   5.541   6.885  0.6872 -0.1067 -0.1982
   50MOL   H14312981   6.787   6.089   6.713  1.3758 -0.7590 -0.6400
   50MOL   H14412982   6.860   5.939   6.651  2.5524  2.1948  0.0631
   50MOL   C14512983   6.663   5.910   6.723 -0.0430  0.4666 -0.0292
   50MOL   N14612984   6.621   5.905   6.582 -0.0496 -0.1896 -0.0697
   50MOL   C14712985   6.647   5.805   6.494  0.6629 -0.1495  0.8836
   50MOL   O14812986   6.738   5.727   6.491  0.6943 -0.4524 -0.4379
   50MOL   C14912987   6.556   5.809   6.372  0.6804  0.1868  0.2521
   50MOL   C15012988   6.554   5.976   6.817  0.4072  0.5744 -0.3343
   50MOL   H15112989   6.680   5.804   6.743  2.3402  0.6688 -0.8969
   50MOL   H15212990   6.555   5.976   6.553  1.0329  0.4032 -1.1389
   50MOL   H15312991   6.536   5.705   6.346 -1.2474  0.4316  0.6920
   50MOL   H15412992   6.462   5.864   6.382 -0.7850 -2.2905  0.6633
   50MOL   H15512993   6.600   5.863   6.288  1.6608 -2.4064 -0.9680
   50MOL   H15612994   6.604   5.996   6.912 -0.3735 -2.9405  0.8951
   50MOL   H15712995   6.533   6.075   6.776  1.3056  0.8553 -0.1389
   50MOL   C15812996   6.434   5.878   6.859 -0.5059 -0.4560  0.2680
   50MOL   N15912997   6.370   5.820   6.738  0.6026 -0.3633  0.5984
   50MOL   C16012998   6.360   5.686   6.716 -0.0533 -0.0350 -0.0816
   50MOL   O16112999   6.391   5.604   6.803  0.0880  0.0011 -0.8580
   50MOL   C16213000   6.288   5.642   6.587  0.0059  0.1851  0.1965
   50MOL   C16313001   6.321   5.945   6.944 -0.1950 -0.1777  0.7822
   50MOL   H16413002   6.477   5.799   6.920 -0.9966  0.4167  1.7743
   50MOL   H16513003   6.333   5.885   6.671  2.0267  1.6117  1.6594
   50MOL   H16613004   6.293   5.725   6.517  0.8715 -0.4533 -0.5021
   50MOL   H16713005   6.334   5.552   6.546 -0.0077  0.9387 -1.4990
   50MOL   H16813006   6.184   5.615   6.606  0.0102  0.8175  1.1880
   50MOL   H16913007   6.278   6.013   6.871  1.0267  0.2962  0.4906
   50MOL   H17013008   6.256   5.867   6.984 -1.2515 -0.6101 -1.7062
   50MOL   C17113009   6.359   6.034   7.064 -0.0881  0.7984 -0.2952
   50MOL   N17213010   6.458   5.964   7.150 -0.5901 -0.2751 -0.1006
   50MOL   C17313011   6.566   6.021   7.199 -0.5804 -0.5816  0.1705
   50MOL   O17413012   6.602   6.133   7.156 -0.2279  0.5871  0.0421
   50MOL   C17513013   6.647   5.936   7.293 -0.2083  0.8121 -0.0127
   50MOL   C17613014   6.222   6.078   7.128 -0.4342 -0.0039  0.6048
   50MOL   H17713015   6.402   6.126   7.022 -1.0398  1.8128  0.9192
   50MOL   H17813016   6.430   5.876   7.191 -1.6233  0.2733  0.4017
   50MOL   H17913017   6.604   5.836   7.288  0.8037  0.3164  1.2755
   50MOL   H18013018   6.752   5.926   7.269 -0.5287 -1.4206 -0.6109
   50MOL   H18113019   6.637   5.978   7.393  1.9379  3.0378 -0.6740
   50MOL   H18213020   6.145   6.104   7.055  0.6439  1.5020 -0.0157
   50MOL   H18313021   6.174   5.995   7.181 -0.6561 -0.6868 -0.6441
   50MOL   C18413022   6.225   6.198   7.223  0.2157 -0.6654  0.0632
   50MOL   N18513023   6.273   6.144   7.350 -0.5498  0.1033  0.1044
   50MOL   C18613024   6.371   6.204   7.422 -0.5063  0.3037 -0.4195
   50MOL   O18713025   6.428   6.305   7.386  0.5846  0.2561  0.4371
   50MOL   C18813026   6.416   6.145   7.555  0.0487  0.4883  0.3189
   50MOL   C18913027   6.088   6.264   7.255  0.3466  0.0715  0.3105
   50MOL   H19013028   6.291   6.278   7.189 -0.8580  1.6575  3.2748
   50MOL   H19113029   6.248   6.048   7.371 -0.6287  0.5469  2.1051
   50MOL   H19213030   6.378   6.043   7.556 -1.0376  0.8875 -0.1002
   50MOL   H19313031   6.525   6.144   7.549  0.0339  3.0777 -1.2323
   50MOL   H19413032   6.374   6.200   7.638  0.5933  0.2315  0.7660
   50MOL   H19513033   6.017   6.189   7.293 -0.1181  0.6470  0.5894
   50MOL   H19613034   6.094   6.348   7.323 -0.0249  1.4825 -1.3682
   50MOL   C19713035   6.016   6.337   7.132  0.0076  0.1472 -0.2460
   50MOL   N19813036   6.104   6.438   7.068 -0.2978  0.7384 -0.2218
   50MOL   C19913037   6.126   6.460   6.943  0.1650 -0.8123  1.1031
   50MOL   O20013038   6.071   6.402   6.852 -0.0425 -0.4884  0.2233
   50MOL   C20113039   6.215   6.577   6.920 -0.0754 -0.3472 -0.0224
   50MOL   C20213040   5.881   6.407   7.179 -0.1672  0.0918 -0.3725
   50MOL   H20313041   5.978   6.261   7.064  1.4885  0.0674 -1.0026
   50MOL   H20413042   6.149   6.501   7.133  1.8639 -1.6432  0.6639
   50MOL   H20513043   6.299   6.558   6.854  0.8801  1.2429  0.7199
   50MOL   H20613044   6.154   6.653   6.871 -1.4811 -0.7681  1.0256
   50MOL   H20713045   6.251   6.619   7.013  0.7978  0.8364 -0.8913
   50MOL   H20813046   5.816   6.335   7.229  1.1162 -1.6629 -1.1610
   50MOL   H20913047   5.902   6.476   7.260  0.1666 -0.0442 -0.3467
   50MOL   C21013048   5.809   6.483   7.059  0.4010  0.2001 -0.4958
   50MOL   N21113049   5.816   6.627   7.077 -0.0458 -0.0431 -0.0674
   50MOL   C21213050   5.806   6.707   6.971 -0.2506 -0.2733 -0.5137
   50MOL   O21313051   5.744   6.684   6.871  0.2113  0.5931  1.2259
   50MOL   C21413052   5.887   6.834   6.984  0.1116 -0.4186  0.0375
   50MOL   C21513053   5.661   6.439   7.062 -0.7057  0.0311 -0.3825
   50MOL   H21613054   5.837   6.467   6.955  0.6711 -0.1316 -0.3740
   50MOL   H21713055   5.878   6.664   7.148 -0.7357  1.0073 -0.0030
   50MOL   H21813056   5.852   6.903   6.908  1.8788  0.5681  0.0947
   50MOL   H21913057   5.864   6.883   7.079 -2.3014  0.2354 -0.8491
   50MOL   H22013058   5.995   6.831   6.973  0.0449  1.1430 -1.2011
   50MOL   H22113059   5.631   6.445   7.167 -0.8422 -2.7758 -0.2305
   50MOL   H22213060   5.604   6.525   7.026 -2.2353 -0.8921 -0.1975
   50MOL   C22313061   5.629   6.309   6.984 -0.3805  0.2073 -0.4002
   50MOL   N22413062   5.660   6.317   6.843 -1.2330  0.3536 -0.3512
   50MOL   C22513063   5.718   6.224   6.769 -0.5581  0.1987  0.3792
   50MOL   O22613064   5.761   6.123   6.822  0.4004 -0.1093  0.2140
   50MOL   C22713065   5.720   6.249   6.614 -0.5319  0.3251  0.0816
   50MOL   C22813066   5.480   6.273   6.994 -0.6844 -0.5538 -0.2812
   50MOL   H22913067   5.700   6.241   7.030  0.7443  1.5046 -0.1750
   50MOL   H23013068   5.641   6.406   6.800  1.0129 -0.1295 -2.3909
   50MOL   H23113069   5.706   6.352   6.578 -0.5701  0.8833  1.6523
   50MOL   H23213070   5.813   6.217   6.567  0.2736  1.4772  0.8737
   50MOL   H23313071   5.642   6.188   6.568 -0.2977 -0.5743  0.8831
   50MOL   H23413072   5.445   6.311   7.090 -1.9078 -0.4297 -0.7613
   50MOL   H23513073   5.418   6.335   6.929  0.1356  1.0447  0.4325
   50MOL   C23613074   5.445   6.125   6.971  0.3016  0.7396 -0.2221
   50MOL   N23713075   5.563   6.037   7.004  0.1523 -0.5265 -0.5531
   50MOL   C23813076   5.591   6.000   7.126 -0.2908  0.1390  0.4756
   50MOL   O23913077   5.518   6.031   7.223 -0.0180  0.5381  0.4018
   50MOL   C24013078   5.730   5.950   7.152 -0.1310  0.0152  0.1877
   50MOL   C24113079   5.379   6.100   6.827  0.4707  0.3241  0.0088
   50MOL   H24213080   5.366   6.103   7.043  0.6333  2.5506  0.7165
   50MOL   H24313081   5.639   6.033   6.937  0.4373  2.3726 -0.4784
   50MOL   H24413082   5.815   6.014   7.125  1.0513 -2.3790 -1.9766
   50MOL   H24513083   5.728   5.921   7.257 -0.2298  1.2867  0.5461
   50MOL   H24613084   5.758   5.866   7.089  1.7675  0.9711 -0.2957
   50MOL   H24713085   5.453   6.113   6.748  1.4798 -1.1791  0.6824
   50MOL   H24813086   5.347   5.996   6.817  1.8950 -0.1304  0.0758
   50MOL   C24913087   5.254   6.192   6.798  0.2303 -0.4104 -0.6356
   50MOL   N25013088   5.154   6.163   6.898 -0.2276  0.0005 -0.5471
   50MOL   C25113089   5.074   6.249   6.965  1.0492  0.6964 -0.0120
   50MOL   O25213090   5.071   6.370   6.956  0.0335  0.4027 -0.1074
   50MOL   C25313091   4.985   6.183   7.076  0.2151  0.4452 -0.6221
   50MOL   C25413092   5.193   6.164   6.661 -0.4373 -0.2351 -0.2304
   50MOL   H25513093   5.268   6.300   6.797  0.3271 -0.4013  0.9489
   50MOL   H25613094   5.144   6.064   6.916 -2.8510 -0.1569 -2.5543
   50MOL   H25713095   4.904   6.244   7.116  0.1013 -0.7278  0.9394
   50MOL   H25813096   4.940   6.093   7.034  0.1817  0.6354 -1.0029
   50MOL   H25913097   5.049   6.150   7.158 -1.5309  0.2872  0.7040
   50MOL   H26013098   5.243   6.212   6.577  0.8002 -2.8321 -1.0054
   50MOL   H26113099   5.200   6.058   6.639 -1.9136 -0.1501 -1.1560
   50MOL   H26213100   5.087   6.191   6.659 -0.5671 -0.7483 -0.2765
   51MOL     C113101   4.138   0.147   5.627  0.4647  0.3640  0.1474
   51MOL     N213102   4.151   0.258   5.537  0.1729 -0.4281  0.8263
   51MOL     C313103   4.091   0.378   5.565 -0.6855  0.2036  0.1953
   51MOL     O413104   4.018   0.389   5.660  0.4934  0.0357  0.1895
   51MOL     C513105   4.095   0.488   5.460 -0.1809 -0.0419  0.1952
   51MOL     C613106   4.063   0.037   5.559 -0.5511  0.6822 -0.2736
   51MOL     H713107   4.239   0.111   5.646  0.7960  1.4898  0.5370
   51MOL     H813108   4.213   0.257   5.457 -0.3735 -1.9497  0.4178
   51MOL     H913109   4.001   0.543   5.466 -0.6164 -0.8353  0.7021
   51MOL    H1013110   4.176   0.561   5.468  0.5626 -0.9557  1.2158
   51MOL    H1113111   4.101   0.444   5.360 -3.0616  0.5008 -0.2614
   51MOL    H1213112   3.969   0.082   5.527  0.3906  3.4707  0.6776
   51MOL    H1313113   4.117   0.026   5.464  2.6769 -0.1220  1.5935
   51MOL    H1413114   4.104   0.167   5.729 -0.6638  2.3788 -0.5907
   51MOL    C1513115   4.055   7.747   5.636  0.1540  0.0104 -0.2196
   51MOL    N1613116   4.189   7.685   5.625 -0.1247 -0.2168 -0.5600
   51MOL    C1713117   4.265   7.632   5.529  0.3202 -0.0238  0.1294
   51MOL    O1813118   4.236   7.632   5.411  0.5613  0.1801 -0.2879
   51MOL    C1913119   4.399   7.580   5.567 -0.2210 -0.2852 -0.0759
   51MOL    C2013120   3.936   7.659   5.580 -0.5347  0.1396 -0.0891
   51MOL    H2113121   4.035   7.778   5.738  0.7214  4.0215 -1.2460
   51MOL    H2213122   4.233   7.686   5.716 -2.0751  0.3287  0.4221
   51MOL    H2313123   4.397   7.495   5.636  2.2428 -1.1265 -0.9974
   51MOL    H2413124   4.463   7.563   5.480 -0.3704  2.4891 -0.7624
   51MOL    H2513125   4.444   7.655   5.631 -2.9304 -0.7173  2.4565
   51MOL    H2613126   3.841   7.712   5.583 -0.3787  0.5573 -1.6729
   51MOL    H2713127   3.963   7.643   5.475  1.3604  0.3077  0.3518
   51MOL    C2813128   3.922   7.528   5.657  0.0647  0.1385  0.7948
   51MOL    N2913129   3.828   7.435   5.595 -0.2583 -0.5723 -0.2007
   51MOL    C3013130   3.849   7.307   5.560 -0.2200  0.6124 -0.4056
   51MOL    O3113131   3.959   7.251   5.586  0.4689 -0.4225 -0.2768
   51MOL    C3213132   3.733   7.219   5.528  0.6034 -0.7560  0.0595
   51MOL    C3313133   3.874   7.534   5.806  0.2544 -1.0830 -0.2194
   51MOL    H3413134   4.019   7.479   5.659  1.0845  2.1131  0.9133
   51MOL    H3513135   3.737   7.471   5.571 -0.2564 -0.5161 -0.1213
   51MOL    H3613136   3.643   7.244   5.585 -0.3564 -1.8232 -0.9581
   51MOL    H3713137   3.706   7.235   5.424  0.0409  1.4205  0.5065
   51MOL    H3813138   3.753   7.112   5.537 -1.9492 -1.2121  0.6756
   51MOL    H3913139   3.862   7.640   5.828  0.3714 -1.0361 -0.3735
   51MOL    H4013140   3.767   7.512   5.811  0.0162 -0.0764 -0.7906
   51MOL    C4113141   3.946   7.441   5.905 -0.3334  0.1527  0.6805
   51MOL    N4213142   3.881   7.310   5.899  0.8887 -0.7451  0.4877
   51MOL    C4313143   3.761   7.272   5.942 -0.2266 -0.0451  0.0211
   51MOL    O4413144   3.687   7.348   6.004 -0.1260  0.1879  0.6846
   51MOL    C4513145   3.721   7.129   5.921  0.3161 -0.1746 -0.0773
   51MOL    C4613146   3.948   7.497   6.045  0.2417 -0.2624  0.0813
   51MOL    H4713147   4.050   7.418   5.883  0.2370  0.0455  3.2851
   51MOL    H4813148   3.920   7.239   5.838  2.2805 -0.2845  0.8301
   51MOL    H4913149   3.618   7.121   5.886 -0.3043  0.7840  1.4814
   51MOL    H5013150   3.791   7.083   5.851  1.3910  4.0974 -2.0052
   51MOL    H5113151   3.728   7.093   6.023  2.9818  1.0845  0.2262
   51MOL    H5213152   3.860   7.559   6.058 -0.0587 -0.0407 -2.6097
   51MOL    H5313153   3.942   7.416   6.117 -0.3592  0.3597  0.7446
   51MOL    C5413154   4.062   7.597   6.074  0.0463  0.1654  0.5926
   51MOL    N5513155   4.188   7.522   6.061  0.3593 -0.0990  0.7238
   51MOL    C5613156   4.287   7.558   5.984  0.6241 -0.2421 -0.3927
   51MOL    O5713157   4.283   7.650   5.901 -0.7183 -0.3430 -0.1848
   51MOL    C5813158   4.413   7.476   5.989 -0.1559 -0.3924  0.2037
   51MOL    C5913159   4.061   7.674   6.208 -0.1033  1.1440 -0.0786
   51MOL    H6013160   4.065   7.670   5.993  1.4656 -0.6631 -0.1132
   51MOL    H6113161   4.210   7.463   6.140  3.3050  0.0719  0.0925
   51MOL    H6213162   4.429   7.410   6.075  0.7919 -0.4958 -0.0425
   51MOL    H6313163   4.430   7.424   5.894  0.9354 -0.1349  0.2505
   51MOL    H6413164   4.502   7.539   5.985 -1.7177  1.7023 -1.9063
   51MOL    H6513165   3.964   7.723   6.198 -0.6113  0.0624 -0.5459
   51MOL    H6613166   4.063   7.597   6.285  0.9558  0.7104 -0.5407
   51MOL    C6713167   4.169   7.778   6.228  0.1127 -0.8385  0.3363
   51MOL    N6813168   4.176   7.816   6.369  1.3195 -0.2298  0.0026
   51MOL    C6913169   4.288   7.800   6.444 -0.1154 -0.4880  0.0217
   51MOL    O7013170   4.400   7.798   6.389 -0.2604 -0.4766  0.3008
   51MOL    C7113171   4.282   7.789   6.594  0.7507  0.8599  0.4187
   51MOL    C7213172   4.161   0.059   6.126  0.2111  0.3404 -0.0127
   51MOL    H7313173   4.258   7.719   6.205  0.9151  0.2577  0.5497
   51MOL    H7413174   4.087   7.829   6.415  1.6091  0.9990  0.2185
   51MOL    H7513175   4.178   7.786   6.626  0.7966 -2.8391  0.3666
   51MOL    H7613176   4.329   7.694   6.620 -3.5587 -1.1969  0.9864
   51MOL    H7713177   4.333   0.039   6.631  0.2153  0.2352  2.7760
   51MOL    H7813178   4.160   0.012   6.028  1.8969 -0.9256  0.5409
   51MOL    H7913179   4.064   0.105   6.139  0.3310  1.2249 -2.2317
   51MOL    C8013180   4.273   0.168   6.107 -0.0822  0.7190 -0.2319
   51MOL    N8113181   4.403   0.098   6.083  0.4004  0.3674  0.8020
   51MOL    C8213182   4.453   0.079   5.963 -0.1677 -0.9619 -0.0339
   51MOL    O8313183   4.387   0.111   5.861  0.1237  0.6147 -0.0126
   51MOL    C8413184   4.593   0.019   5.949  0.2468 -0.2700  0.1533
   51MOL    C8513185   4.279   0.275   6.224  0.1408  0.5555  0.5220
   51MOL    H8613186   4.241   0.219   6.016 -0.9440  2.7858  1.1892
   51MOL    H8713187   4.442   0.064   6.170 -0.9674  0.6896  1.5590
   51MOL    H8813188   4.624   0.004   5.846  2.7285  1.9500  0.5249
   51MOL    H8913189   4.669   0.082   5.995  0.4134 -0.3226 -0.0542
   51MOL    H9013190   4.607   7.772   6.015  0.9825 -0.6041 -0.4300
   51MOL    H9113191   4.178   0.309   6.246 -0.9977 -2.5785  0.3873
   51MOL    H9213192   4.293   0.230   6.322  1.7895 -1.8819 -0.7878
   51MOL    C9313193   4.376   0.401   6.197  0.6375  0.0581  0.0519
   51MOL    N9413194   4.382   0.440   6.052 -0.6078 -0.5342 -0.2287
   51MOL    C9513195   4.291   0.480   5.966 -0.0893 -0.3201 -0.2330
   51MOL    O9613196   4.174   0.503   5.997  0.1431 -0.0496 -0.0796
   51MOL    C9713197   4.340   0.469   5.822  0.2885 -0.6973 -0.8761
   51MOL    C9813198   4.517   0.392   6.247  0.0449  0.1441  0.0174
   51MOL    H9913199   4.333   0.492   6.240 -0.3994 -0.1543 -0.5305
   51MOL   H10013200   4.472   0.439   6.006 -1.2731 -1.4389 -1.5540
   51MOL   H10113201   4.444   0.493   5.800  0.2355  0.3232 -0.0623
   51MOL   H10213202   4.333   0.365   5.789  0.5700 -1.6725  1.9952
   51MOL   H10313203   4.282   0.534   5.757  0.1434 -0.4504 -0.5001
   51MOL   H10413204   4.566   0.316   6.186  0.2532  1.6497 -1.7338
   51MOL   H10513205   4.571   0.483   6.220  1.3309 -1.0058 -1.4232
   51MOL   C10613206   4.539   0.346   6.398  0.1329  0.5077 -0.4987
   51MOL   N10713207   4.462   0.451   6.474 -0.0362  0.0477  0.5739
   51MOL   C10813208   4.353   0.423   6.547 -0.4231  0.3023 -0.1158
   51MOL   O10913209   4.321   0.308   6.576  0.4160  0.2690  0.1065
   51MOL   C11013210   4.270   0.539   6.594  0.9355  0.6942  0.3526
   51MOL   C11113211   4.680   0.357   6.452 -0.5860 -0.3525  0.3067
   51MOL   H11213212   4.501   0.244   6.409 -0.4693  0.7374 -0.4629
   51MOL   H11313213   4.487   0.549   6.465 -1.0002  0.0702 -2.6300
   51MOL   H11413214   4.196   0.494   6.660  0.2044  1.2115 -0.1131
   51MOL   H11513215   4.317   0.625   6.641 -1.1185  1.6711  0.6528
   51MOL   H11613216   4.229   0.576   6.500  2.3920  1.1900 -0.1121
   51MOL   H11713217   4.737   0.294   6.385 -0.6748  0.8771 -0.9446
   51MOL   H11813218   4.719   0.457   6.433  1.7766 -0.8316  2.3782
   51MOL   C11913219   4.700   0.306   6.599  0.1912  0.0069 -0.6330
   51MOL   N12013220   4.845   0.303   6.623 -0.7131  0.4799 -0.2078
   51MOL   C12113221   4.912   0.408   6.659  0.8092 -0.6988  0.2242
   51MOL   O12213222   4.872   0.520   6.654  0.1269 -0.2571 -0.4272
   51MOL   C12313223   5.053   0.380   6.702  0.4939 -0.9529 -0.0444
   51MOL   C12413224   4.638   0.164   6.650  0.7325 -0.5128 -0.2336
   51MOL   H12513225   4.654   0.380   6.664  0.3871 -1.5798  1.3694
   51MOL   H12613226   4.897   0.223   6.589  0.1506  0.2298  1.6549
   51MOL   H12713227   5.056   0.334   6.801  2.5419  0.5810  0.6525
   51MOL   H12813228   5.100   0.307   6.636  1.8655 -0.8912  0.8308
   51MOL   H12913229   5.111   0.471   6.690 -2.2446  0.6438 -1.7047
   51MOL   H13013230   4.606   0.183   6.752  1.5572  1.2085 -0.2816
   51MOL   H13113231   4.543   0.147   6.600 -0.5639 -0.1757  2.0453
   51MOL   C13213232   4.729   0.043   6.642 -0.0102 -0.1057  0.9932
   51MOL   N13313233   4.757   0.005   6.500 -0.5640 -0.2294  0.2804
   51MOL   C13413234   4.858   0.044   6.418  0.4660  0.3525  0.2541
   51MOL   O13513235   4.959   0.106   6.460  0.1144 -0.0612 -0.6425
   51MOL   C13613236   4.837   0.041   6.273 -0.1955 -0.8713 -0.2653
   51MOL   C13713237   4.677   7.765   6.714 -0.1137 -0.1345 -0.2692
   51MOL   H13813238   4.821   0.070   6.692  0.6668  0.1066 -0.3360
   51MOL   H13913239   4.698   7.780   6.451  1.4294 -0.9107 -1.3224
   51MOL   H14013240   4.863   0.134   6.221  2.3796 -1.9872 -1.0298
   51MOL   H14113241   4.867   7.783   6.234  1.8933  0.1922 -1.4099
   51MOL   H14213242   4.730   0.029   6.259 -0.3476 -2.3020  2.0495
   51MOL   H14313243   4.669   7.796   6.818  0.0154 -0.4449 -0.1643
   51MOL   H14413244   4.577   7.738   6.682 -1.0181  2.4763  0.2822
   51MOL   C14513245   4.781   7.643   6.715  0.0367 -0.4256  0.7833
   51MOL   N14613246   4.723   7.544   6.799  0.2171 -0.1875 -0.2246
   51MOL   C14713247   4.651   7.440   6.758  0.3928 -0.3563  0.7439
   51MOL   O14813248   4.626   7.419   6.641  0.7046  0.1439 -0.7285
   51MOL   C14913249   4.619   7.334   6.861 -0.1992 -0.4457 -0.0823
   51MOL   C15013250   4.924   7.684   6.765  0.2558 -0.2019 -0.4414
   51MOL   H15113251   4.781   7.602   6.614  2.7072 -0.3325  0.6983
   51MOL   H15213252   4.750   7.553   6.895  0.2476  2.0192 -0.4150
   51MOL   H15313253   4.611   7.373   6.962 -0.9353 -0.4596 -0.1332
   51MOL   H15413254   4.519   7.302   6.830 -0.0339  1.3977 -2.6734
   51MOL   H15513255   4.693   7.254   6.859  0.6091  0.2896  0.2050
   51MOL   H15613256   4.958   7.760   6.694  0.1027 -0.1595 -0.4708
   51MOL   H15713257   4.915   7.721   6.867 -1.3169  0.1732 -0.6956
   51MOL   C15813258   5.030   7.569   6.768 -0.0703  0.0867  0.0729
   51MOL   N15913259   5.149   7.611   6.843  0.2475  0.7204 -0.1418
   51MOL   C16013260   5.169   7.589   6.977  0.4223 -0.1938  0.4931
   51MOL   O16113261   5.106   7.499   7.040  0.0321  0.1571  0.6065
   51MOL   C16213262   5.281   7.677   7.037 -0.5920  0.1319 -0.0360
   51MOL   C16313263   5.061   7.524   6.625  0.3333 -0.3191  0.0934
   51MOL   H16413264   4.978   7.490   6.822 -0.3132  2.4165  3.4024
   51MOL   H16513265   5.206   7.681   6.797  1.4124 -0.1923 -0.1042
   51MOL   H16613266   5.379   7.627   7.041 -0.3886  0.5290 -0.0330
   51MOL   H16713267   5.300   7.761   6.972 -0.6789  0.6559  0.6076
   51MOL   H16813268   5.263   7.710   7.140 -0.2374  1.1548 -0.2989
   51MOL   H16913269   5.030   7.602   6.555  0.5448 -0.5126 -0.2163
   51MOL   H17013270   5.170   7.526   6.628  0.3441  3.1563  0.1280
   51MOL   C17113271   4.999   7.385   6.591  0.6556 -0.2899 -0.2578
   51MOL   N17213272   5.064   7.280   6.674 -0.1485  0.0636  0.0795
   51MOL   C17313273   5.005   7.185   6.749 -0.0051  0.6125  0.3467
   51MOL   O17413274   4.886   7.166   6.748 -0.5391  0.5521  0.2642
   51MOL   C17513275   5.096   7.097   6.833  0.0739  0.1949  0.4310
   51MOL   C17613276   5.005   7.340   6.445 -0.2080 -0.2379  0.4514
   51MOL   H17713277   4.894   7.388   6.618 -0.3310 -1.8192 -3.6839
   51MOL   H17813278   5.163   7.293   6.691  0.0294 -0.8417 -0.2628
   51MOL   H17913279   5.135   7.015   6.774  1.2968  0.5297  0.7548
   51MOL   H18013280   5.186   7.147   6.869 -0.3258  0.5750  0.9128
   51MOL   H18113281   5.046   7.066   6.925  0.3684 -0.1380  0.4784
   51MOL   H18213282   5.110   7.314   6.434  0.0638  0.5719  1.1045
   51MOL   H18313283   4.959   7.243   6.426 -1.6767  1.0236 -2.7586
   51MOL   C18413284   4.946   7.439   6.338 -0.5399 -0.6280 -0.0737
   51MOL   N18513285   4.800   7.444   6.356 -0.4342  0.0452 -0.0828
   51MOL   C18613286   4.704   7.508   6.287  0.1109  0.1138 -0.1870
   51MOL   O18713287   4.733   7.570   6.184  0.0445  0.0518 -0.1526
   51MOL   C18813288   4.564   7.508   6.338  0.3166  0.3275  0.2039
   51MOL   C18913289   4.988   7.382   6.197  0.1620  0.0507  0.6821
   51MOL   H19013290   4.985   7.540   6.349  2.3212 -1.4699 -1.7058
   51MOL   H19113291   4.762   7.389   6.431  1.2494 -4.9236 -2.6647
   51MOL   H19213292   4.560   7.541   6.442 -2.2579  3.3261 -0.7423
   51MOL   H19313293   4.495   7.577   6.288  0.9255  1.7219  1.2763
   51MOL   H19413294   4.524   7.410   6.314 -0.1796  0.9366 -1.5845
   51MOL   H19513295   4.974   7.274   6.196 -1.0429  0.2043 -0.5017
   51MOL   H19613296   4.922   7.420   6.119  0.4744  1.3143  1.0319
   51MOL   C19713297   5.131   7.409   6.149  0.8242  0.4998  0.4161
   51MOL   N19813298   5.162   7.551   6.137  0.2593 -0.4322  0.3594
   51MOL   C19913299   5.246   7.617   6.211 -0.4752  0.0737 -0.0621
   51MOL   O20013300   5.296   7.570   6.307 -0.2375 -0.9485  0.2439
   51MOL   C20113301   5.255   7.767   6.185 -0.1807  0.1624 -0.6300
   51MOL   C20213302   5.155   7.339   6.010  0.0710  0.7685 -0.1424
   51MOL   H20313303   5.206   7.357   6.209  0.8235 -0.0746 -0.0799
   51MOL   H20413304   5.120   7.586   6.053 -3.0465 -2.3608  1.1091
   51MOL   H20513305   5.246   7.786   6.078  2.5574 -1.8059 -1.2768
   51MOL   H20613306   5.168   7.815   6.228 -0.2081  2.0148 -2.6918
   51MOL   H20713307   5.345   7.818   6.220  0.1525 -1.1316  0.4452
   51MOL   H20813308   5.085   7.375   5.935  0.5309 -0.9637 -1.4252
   51MOL   H20913309   5.249   7.375   5.970  0.6219 -0.5502 -0.0540
   51MOL   C21013310   5.146   7.180   6.018 -0.6450 -0.3155 -0.4152
   51MOL   N21113311   5.275   7.128   6.003  0.3815  0.7704  0.0963
   51MOL   C21213312   5.343   7.030   6.065 -0.5048 -0.2606 -0.3544
   51MOL   O21313313   5.467   7.020   6.049 -0.2791  0.4851 -0.0414
   51MOL   C21413314   5.281   6.943   6.171 -0.5641  1.4894  0.3818
   51MOL   C21513315   5.055   7.118   5.914 -0.4625  0.3943 -0.1881
   51MOL   H21613316   5.111   7.143   6.114 -0.4046 -0.0799 -0.2369
   51MOL   H21713317   5.327   7.166   5.925 -0.4304  1.6505 -0.0232
   51MOL   H21813318   5.355   6.885   6.228 -1.1345  2.6058  2.3146
   51MOL   H21913319   5.226   7.005   6.241  0.7205  1.5479  1.3696
   51MOL   H22013320   5.216   6.868   6.127  2.0414  1.3710 -3.5514
   51MOL   H22113321   5.096   7.145   5.817  1.7551 -0.3165  0.5221
   51MOL   H22213322   5.058   7.009   5.914  0.8788  0.4148  0.9235
   51MOL   C22313323   4.910   7.165   5.907  0.2439 -0.3918 -0.6891
   51MOL   N22413324   4.844   7.136   6.035 -0.0671  0.0576 -0.1796
   51MOL   C22513325   4.719   7.179   6.077  0.5890 -0.8908  0.2696
   51MOL   O22613326   4.651   7.256   6.014  0.2818 -0.5694  0.6002
   51MOL   C22713327   4.672   7.126   6.205 -0.0241 -0.8096 -0.0219
   51MOL   C22813328   4.839   7.113   5.777 -0.3981 -0.1293  0.3854
   51MOL   H22913329   4.908   7.274   5.907 -1.9411 -0.4000  0.0713
   51MOL   H23013330   4.884   7.060   6.087  0.5208  1.0842  0.8811
   51MOL   H23113331   4.573   7.166   6.226 -0.2329 -1.8716  1.0695
   51MOL   H23213332   4.667   7.017   6.202 -0.8721 -0.7347 -2.0124
   51MOL   H23313333   4.744   7.152   6.283  0.8954 -0.2433 -1.0352
   51MOL   H23413334   4.890   7.024   5.741 -1.3317 -0.9341  0.9954
   51MOL   H23513335   4.736   7.083   5.798 -0.2474 -1.0221 -0.0759
   51MOL   C23613336   4.850   7.213   5.661  0.3353 -0.6802  0.5071
   51MOL   N23713337   4.778   7.335   5.692  0.3121 -0.2207 -0.4190
   51MOL   C23813338   4.834   7.453   5.718  0.5151  0.2722 -0.5146
   51MOL   O23913339   4.955   7.473   5.718 -0.5208  0.3698 -0.2764
   51MOL   C24013340   4.750   7.558   5.777  0.4845 -0.4206  0.2454
   51MOL   C24113341   4.803   7.159   5.521  0.2914 -0.0829 -0.0138
   51MOL   H24213342   4.953   7.243   5.642 -0.6194  2.0064 -0.6943
   51MOL   H24313343   4.677   7.329   5.686  0.1504  1.1932  0.4857
   51MOL   H24413344   4.797   7.629   5.846  1.7419 -0.8546 -0.1462
   51MOL   H24513345   4.692   7.615   5.705 -1.6361 -0.9657  1.4908
   51MOL   H24613346   4.671   7.505   5.831  0.1955 -2.0854 -1.7363
   51MOL   H24713347   4.847   7.062   5.499  2.7933  1.3156 -1.4705
   51MOL   H24813348   4.701   7.134   5.550 -0.3813  0.8145 -1.5600
   51MOL   C24913349   4.812   7.260   5.402 -0.1050 -0.0946  0.1076
   51MOL   N25013350   4.740   7.198   5.291  0.0674 -0.5057  0.5745
   51MOL   C25113351   4.613   7.238   5.252  0.4210  0.2564 -0.2423
   51MOL   O25213352   4.558   7.323   5.316  0.0573 -0.8649  0.3360
   51MOL   C25313353   4.564   7.182   5.121 -0.2504  0.3448  0.0401
   51MOL   C25413354   4.945   7.283   5.357 -0.1408  0.0074 -0.1295
   51MOL   H25513355   4.771   7.357   5.429 -0.9604 -0.0588 -1.2769
   51MOL   H25613356   4.766   7.110   5.249 -1.5566 -0.7465  0.0037
   51MOL   H25713357   4.636   7.213   5.046 -1.1209 -0.7601 -1.2931
   51MOL   H25813358   4.555   7.073   5.115 -0.6821  0.3764  0.1023
   51MOL   H25913359   4.465   7.218   5.094 -0.7590 -1.1823 -0.2041
   51MOL   H26013360   4.997   7.195   5.320 -0.2773 -0.2972  0.4033
   51MOL   H26113361   4.941   7.352   5.272  1.2055 -1.4480 -1.3883
   51MOL   H26213362   5.000   7.336   5.436  0.0659  1.3143 -1.1210
   52MOL     C113363   6.325   1.921   7.608  0.5459  0.3690  0.1042
   52MOL     N213364   6.181   1.888   7.605 -0.5551 -0.4576  0.2420
   52MOL     C313365   6.080   1.972   7.638 -0.1292  0.7735 -0.7453
   52MOL     O413366   6.104   2.087   7.670 -0.0374  0.0400  0.1154
   52MOL     C513367   5.934   1.917   7.657 -0.1623 -0.1112 -0.5926
   52MOL     C613368   6.382   1.870   7.472  0.4292  0.7686 -0.1605
   52MOL     H713369   6.362   2.022   7.624 -0.3708  0.9928 -1.4944
   52MOL     H813370   6.142   1.797   7.589 -2.2064  0.3306 -0.3180
   52MOL     H913371   5.935   1.809   7.641 -0.5673  0.0168 -1.5620
   52MOL    H1013372   5.906   1.940   7.760  0.8230 -0.1220 -0.3215
   52MOL    H1113373   5.862   1.969   7.593 -0.9101  0.9131  1.0345
   52MOL    H1213374   6.351   1.767   7.456 -1.0027  0.7472  2.5067
   52MOL    H1313375   6.350   1.928   7.385 -2.0659 -0.4739 -0.1217
   52MOL    H1413376   6.370   1.860   7.686 -3.4070  0.7466  2.8214
   52MOL    C1513377   6.535   1.865   7.456 -0.5949 -0.2527 -0.2286
   52MOL    N1613378   6.610   1.972   7.525  0.2983  0.1723 -0.0615
   52MOL    C1713379   6.710   1.958   7.611 -0.7234  0.4071 -0.8969
   52MOL    O1813380   6.767   1.854   7.642  0.0950 -0.4288 -0.3225
   52MOL    C1913381   6.784   2.085   7.656 -0.0082  0.8619  0.5530
   52MOL    C2013382   6.580   1.859   7.309  0.2876  0.0275 -0.3877
   52MOL    H2113383   6.563   1.771   7.503  0.3772  0.4652  0.6350
   52MOL    H2213384   6.582   2.066   7.503  0.3987  0.3172  0.4254
   52MOL    H2313385   6.764   2.161   7.580 -1.1907 -0.5925 -0.6210
   52MOL    H2413386   6.746   2.130   7.748 -0.0826 -0.6700  1.2797
   52MOL    H2513387   6.892   2.072   7.664 -0.0617 -0.5335 -0.7046
   52MOL    H2613388   6.506   1.819   7.239 -0.8655 -0.1784  0.9178
   52MOL    H2713389   6.578   1.966   7.287  2.5438 -0.1004 -1.2829
   52MOL    C2813390   6.722   1.793   7.281 -0.0659  0.8795 -0.2049
   52MOL    N2913391   6.777   1.837   7.148 -0.2033 -0.1190  0.2530
   52MOL    C3013392   6.729   1.804   7.032 -0.3616 -0.0958  0.0797
   52MOL    O3113393   6.631   1.736   7.017  0.6337  0.1105  0.0117
   52MOL    C3213394   6.814   1.860   6.913 -0.4807  0.1282 -0.3550
   52MOL    C3313395   6.721   1.639   7.297 -0.6761  0.1499  0.1597
   52MOL    H3413396   6.791   1.828   7.358  1.7817 -4.1740  0.6378
   52MOL    H3513397   6.853   1.903   7.156 -0.1027 -0.2639  0.4655
   52MOL    H3613398   6.878   1.943   6.941  1.6853 -1.1762 -1.2949
   52MOL    H3713399   6.868   1.779   6.864  1.2956  0.9725  0.1940
   52MOL    H3813400   6.734   1.892   6.845  0.4807  1.4135 -0.8941
   52MOL    H3913401   6.683   1.610   7.395  2.6824 -1.4783  1.0487
   52MOL    H4013402   6.650   1.595   7.227  1.6994  0.7014 -2.6836
   52MOL    C4113403   6.866   1.574   7.290 -0.7000 -0.5744  0.2912
   52MOL    N4213404   6.843   1.429   7.279  0.4030  0.5872  0.1742
   52MOL    C4313405   6.844   1.354   7.169 -0.1472  0.3265 -0.8109
   52MOL    O4413406   6.853   1.403   7.058 -0.2424  0.2935  0.1582
   52MOL    C4513407   6.836   1.204   7.183  0.4399 -1.3223  0.0881
   52MOL    C4613408   6.956   1.617   7.410  0.7461  0.4066 -0.3512
   52MOL    H4713409   6.916   1.614   7.202  0.2357 -0.6954  0.7677
   52MOL    H4813410   6.825   1.388   7.370  0.6479  0.8436  0.3385
   52MOL    H4913411   6.754   1.161   7.124 -0.7050 -0.5322  1.0849
   52MOL    H5013412   6.929   1.167   7.140  0.3274  1.0199 -2.3025
   52MOL    H5113413   6.829   1.171   7.287  0.2154  0.2462  0.5870
   52MOL    H5213414   6.976   1.724   7.406 -1.5969  0.9473  1.0173
   52MOL    H5313415   6.899   1.606   7.502  1.1034  2.2164  0.1075
   52MOL    C5413416   7.087   1.534   7.428 -0.3197 -0.3405 -0.1487
   52MOL    N5513417   7.133   1.534   7.567  0.0910 -0.2568 -0.0378
   52MOL    C5613418   7.141   1.436   7.663  0.4410 -0.7249  0.1431
   52MOL    O5713419   7.105   1.321   7.644  0.0903  0.7357  0.2211
   52MOL    C5813420   7.209   1.473   7.790 -0.1617  0.5552  0.3895
   52MOL    C5913421   7.195   1.572   7.322  0.3264 -0.4721 -0.4496
   52MOL    H6013422   7.072   1.427   7.414  0.0421 -0.6770  1.8950
   52MOL    H6113423   7.176   1.622   7.595 -0.1822 -0.0629 -0.2276
   52MOL    H6213424   7.258   1.386   7.834  1.3130  1.5521  0.7204
   52MOL    H6313425   7.285   1.550   7.784  1.2129 -0.9552 -2.2946
   52MOL    H6413426   7.142   1.520   0.022  0.1221  1.8790 -0.1943
   52MOL    H6513427   7.142   1.558   7.227 -0.0219  1.1319 -0.5027
   52MOL    H6613428   7.203   1.679   7.338 -1.1995 -0.3541 -0.4581
   52MOL    C6713429   7.332   1.496   7.324 -0.6661 -0.2610 -0.0587
   52MOL    N6813430   7.424   1.574   7.247  0.0697  0.4386 -0.3745
   52MOL    C6913431   7.519   1.662   7.279 -0.0887 -0.7864  0.2629
   52MOL    O7013432   7.547   1.696   7.394  0.3456  0.3098  0.1688
   52MOL    C7113433   7.588   1.731   7.160 -0.0854  0.2181 -0.1858
   52MOL    C7213434   7.320   1.350   7.277 -0.0024  0.2193  0.0548
   52MOL    H7313435   7.375   1.492   7.423  0.6944 -0.9791 -0.6642
   52MOL    H7413436   7.412   1.569   7.147  2.1834  0.7585 -0.6663
   52MOL    H7513437   7.565   1.837   7.158  0.0940  0.2441 -2.1752
   52MOL    H7613438   7.695   1.710   7.167 -0.4588 -1.4152  0.9860
   52MOL    H7713439   7.543   1.686   7.071  1.1808  0.3640 -0.9178
   52MOL    H7813440   7.232   1.304   7.320 -0.6469  4.1654  3.2554
   52MOL    H7913441   7.301   1.331   7.171 -0.3979 -0.9825  0.3367
   52MOL    C8013442   7.435   1.251   7.325  0.0753 -0.1264  0.1535
   52MOL    N8113443   7.458   1.251   7.468  0.3508  0.3953 -0.4379
   52MOL    C8213444   7.426   1.151   7.553  0.2867  0.6922 -0.7112
   52MOL    O8313445   7.372   1.043   7.513  0.2708  0.1300 -0.2061
   52MOL    C8413446   7.436   1.167   7.704  0.0951  0.7278  0.4831
   52MOL    C8513447   7.572   1.283   7.259 -0.0079  0.6424 -0.3600
   52MOL    H8613448   7.405   1.154   7.284 -0.5021  0.9582 -2.0331
   52MOL    H8713449   7.507   1.331   7.503  0.7257  0.8921 -2.0530
   52MOL    H8813450   7.514   1.105   7.746 -1.0576  0.6518  2.6136
   52MOL    H8913451   7.451   1.273   7.724 -0.1224  0.9576 -0.5264
   52MOL    H9013452   7.340   1.147   7.753  0.9038  0.8173  2.1383
   52MOL    H9113453   7.608   1.373   7.310  1.2144  0.0986 -0.2629
   52MOL    H9213454   7.646   1.208   7.284 -0.4242  0.7918  1.4212
   52MOL    C9313455   7.569   1.298   7.106  0.3827 -0.9841 -0.3415
   52MOL    N9413456   7.478   1.201   7.044  0.0081 -0.2806  0.8601
   52MOL    C9513457   7.492   1.071   7.021 -0.2058  0.1313 -0.4250
   52MOL    O9613458   7.602   1.022   7.043 -0.0768  0.2703 -0.2162
   52MOL    C9713459   7.376   0.992   6.974  0.1521  0.5103  0.2299
   52MOL    C9813460   7.711   1.316   7.038 -0.3215 -0.1168 -0.6897
   52MOL    H9913461   7.518   1.390   7.079  3.8451  1.2098  0.2657
   52MOL   H10013462   7.387   1.242   7.024  0.3253  0.6253  1.2414
   52MOL   H10113463   7.278   1.037   6.994  0.2210  0.2487  1.2214
   52MOL   H10213464   7.379   0.985   6.866  1.2684 -0.3133  0.3094
   52MOL   H10313465   7.371   0.891   7.014  0.1995 -0.0580 -1.1748
   52MOL   H10413466   7.765   1.406   7.066 -1.6883  0.0216  1.5960
   52MOL   H10513467   7.777   1.241   7.082  1.2780  0.9475 -1.2328
   52MOL   C10613468   7.709   1.310   6.882 -0.2971  0.6889 -0.7905
   52MOL   N10713469   0.002   1.285   6.823  0.0663  0.4469  0.1352
   52MOL   C10813470   0.027   1.239   6.699 -0.2782 -0.6963 -0.4260
   52MOL   O10913471   7.785   1.213   6.608 -0.1598 -0.7543 -0.5837
   52MOL   C11013472   0.172   1.232   6.665  0.1870 -0.5809 -0.2482
   52MOL   C11113473   7.644   1.438   6.822  0.4324  0.4604  0.4978
   52MOL   H11213474   7.651   1.220   6.862 -1.3895  0.9642  1.0392
   52MOL   H11313475   0.077   1.306   6.888  0.0016  2.1232 -0.3325
   52MOL   H11413476   0.175   1.223   6.557 -1.7257  0.3706 -0.4148
   52MOL   H11513477   0.232   1.320   6.691  2.1120 -2.2762  1.1851
   52MOL   H11613478   0.219   1.145   6.711  0.6284  0.8597  2.1094
   52MOL   H11713479   7.653   1.516   6.898 -0.7333  1.1197 -0.0296
   52MOL   H11813480   7.703   1.483   6.741 -0.0663 -2.3985 -1.5142
   52MOL   C11913481   7.505   1.407   6.762 -0.2251  0.5458  0.8777
   52MOL   N12013482   7.515   1.287   6.671 -0.5627 -0.2872 -0.1104
   52MOL   C12113483   7.419   1.203   6.636  1.1385  0.2055  0.3759
   52MOL   O12213484   7.304   1.206   6.688  0.2280  0.6470  0.7955
   52MOL   C12313485   7.452   1.101   6.527 -0.0024 -0.2992 -0.3263
   52MOL   C12413486   7.447   1.520   6.686  0.0091 -0.5088  0.0796
   52MOL   H12513487   7.439   1.375   6.843  0.6451 -0.5651  1.1542
   52MOL   H12613488   7.609   1.263   6.643 -0.2862  0.8371 -0.1790
   52MOL   H12713489   7.480   1.151   6.434 -0.0287 -0.2905 -0.3299
   52MOL   H12813490   7.540   1.043   6.554 -1.3170 -2.1621  0.0490
   52MOL   H12913491   7.370   1.039   6.490  0.4747 -0.5269 -1.0077
   52MOL   H13013492   7.513   1.531   6.600 -2.1496  3.4873 -1.1941
   52MOL   H13113493   7.351   1.484   6.649 -0.8035  0.3137  1.3901
   52MOL   C13213494   7.443   1.654   6.761 -0.2843 -0.0172  0.5012
   52MOL   N13313495   7.303   1.673   6.800  0.2437 -0.3106  0.6572
   52MOL   C13413496   7.240   1.625   6.909  0.0807 -0.4174 -0.1692
   52MOL   O13513497   7.301   1.573   7.002 -0.1316  0.1224  0.4129
   52MOL   C13613498   7.094   1.649   6.929 -0.3386  0.5516  0.1278
   52MOL   C13713499   7.486   1.771   6.674 -0.4023  0.3452 -0.4272
   52MOL   H13813500   7.492   1.654   6.858 -1.2796 -1.4830  1.0362
   52MOL   H13913501   7.251   1.733   6.737  3.3277  2.0113  0.1830
   52MOL   H14013502   7.047   1.660   6.832  3.0416 -1.2194 -1.8300
   52MOL   H14113503   7.053   1.563   6.981  2.9733 -0.3232  1.4519
   52MOL   H14213504   7.075   1.737   6.990 -1.5602  0.1445  0.3391
   52MOL   H14313505   7.445   1.740   6.579 -0.0851  0.1961 -0.5161
   52MOL   H14413506   7.442   1.869   6.695  3.3877  2.2320 -0.6672
   52MOL   C14513507   7.639   1.781   6.655 -0.3673 -0.2409  0.1818
   52MOL   N14613508   7.702   1.836   6.771  0.4911  0.4868 -0.0197
   52MOL   C14713509   7.683   1.935   6.864 -0.0975  0.3040  0.4468
   52MOL   O14813510   7.583   1.997   6.871  0.1184 -0.8920  0.6006
   52MOL   C14913511   7.808   1.975   6.953 -0.0629  0.3552 -0.2036
   52MOL   C15013512   7.683   1.868   6.532 -0.1572  0.4422  0.1551
   52MOL   H15113513   7.675   1.679   6.639 -0.7840 -0.0010 -2.6095
   52MOL   H15213514   7.797   1.807   6.790  0.5307 -0.1255 -1.1057
   52MOL   H15313515   0.023   2.065   6.928  0.1027  0.3692  0.2039
   52MOL   H15413516   7.761   1.989   7.050 -2.2578  3.3694 -1.6414
   52MOL   H15513517   0.036   1.891   6.968 -1.0580 -0.5011 -0.4302
   52MOL   H15613518   7.656   1.971   6.554  1.4584  0.4617  2.2134
   52MOL   H15713519   7.790   1.851   6.524 -0.1063  1.5206 -1.6323
   52MOL   C15813520   7.620   1.843   6.391 -0.3471 -0.7517 -1.2558
   52MOL   N15913521   7.626   1.696   6.363 -0.2466  0.3645 -0.1251
   52MOL   C16013522   7.530   1.618   6.314  0.0371  0.5177 -0.3121
   52MOL   O16113523   7.413   1.645   6.288 -0.0077 -0.4076 -0.2135
   52MOL   C16213524   7.563   1.470   6.287 -0.2899  0.2570  0.4346
   52MOL   C16313525   7.708   1.926   6.291  0.1008 -0.4462  1.0585
   52MOL   H16413526   7.519   1.886   6.393 -0.0740 -0.1026  1.0528
   52MOL   H16513527   7.716   1.652   6.377 -0.2408  0.2877 -0.3972
   52MOL   H16613528   7.590   1.425   6.383 -1.1721 -2.5299 -0.5676
   52MOL   H16713529   7.487   1.409   6.238  1.2600 -2.6174  1.4334
   52MOL   H16813530   7.642   1.479   6.213 -1.7282 -1.3226 -1.3290
   52MOL   H16913531   7.741   2.026   6.316  1.5523 -0.6719  0.1293
   52MOL   H17013532   7.804   1.874   6.288  0.5296  0.4033 -2.2888
   52MOL   C17113533   7.646   1.920   6.149 -0.4800 -0.8673  0.5546
   52MOL   N17213534   7.757   1.913   6.057 -0.0406 -0.2345  0.2617
   52MOL   C17313535   7.746   1.865   5.928 -0.1404 -0.5110  0.0783
   52MOL   O17413536   7.654   1.793   5.899  0.0580  0.7108 -0.6415
   52MOL   C17513537   0.021   1.901   5.832  0.5291 -0.0650 -0.1602
   52MOL   C17613538   7.558   2.038   6.106 -0.5797 -0.1199 -0.5018
   52MOL   H17713539   7.590   1.827   6.135  0.0567 -0.8988 -1.5348
   52MOL   H17813540   0.002   1.960   6.084  2.3624 -4.8516  1.2140
   52MOL   H17913541   0.062   1.999   5.854  2.2599 -0.9874  0.7612
   52MOL   H18013542   0.097   1.824   5.843 -0.5844 -1.8814 -4.1922
   52MOL   H18113543   7.833   1.899   5.726 -1.5039  0.9318  0.3163
   52MOL   H18213544   7.563   2.042   5.998  3.3400  0.2001 -0.3535
   52MOL   H18313545   7.455   2.006   6.124 -0.6323  0.6668  0.6786
   52MOL   C18413546   7.581   2.180   6.168  0.2679  0.5935 -0.2611
   52MOL   N18513547   7.477   2.271   6.112  0.2828 -0.1735 -0.8780
   52MOL   C18613548   7.422   2.378   6.164 -0.6274  0.4237 -0.3258
   52MOL   O18713549   7.451   2.413   6.276 -0.2449  0.0623  0.6244
   52MOL   C18813550   7.321   2.453   6.076 -0.3978  0.6834 -0.9248
   52MOL   C18913551   7.718   2.256   6.151 -0.6024 -0.7993  0.4033
   52MOL   H19013552   7.562   2.178   6.276  0.7601 -2.8819 -0.1750
   52MOL   H19113553   7.452   2.257   6.015  3.5191 -0.6034 -1.7261
   52MOL   H19213554   7.377   2.478   5.985  1.6140  1.9179  0.5944
   52MOL   H19313555   7.236   2.392   6.046  0.2747  0.5658 -2.6578
   52MOL   H19413556   7.277   2.545   6.114  0.7544  0.3322  1.3410
   52MOL   H19513557   7.708   2.361   6.179 -0.1904 -0.4755 -0.6491
   52MOL   H19613558   7.786   2.214   6.225  2.7029  0.1173 -1.9959
   52MOL   C19713559   7.791   2.245   6.010 -0.1731 -0.3313 -0.2205
   52MOL   N19813560   0.091   2.258   6.032 -0.4430 -0.5515  0.2283
   52MOL   C19913561   0.185   2.181   6.085  0.9708  0.1214 -0.3704
   52MOL   O20013562   0.159   2.061   6.103  0.1520 -0.2050  1.0056
   52MOL   C20113563   0.329   2.232   6.085  0.2267 -0.0124  0.6655
   52MOL   C20213564   7.747   2.366   5.917  0.2242  0.2714 -0.7272
   52MOL   H20313565   7.756   2.157   5.956  0.4682 -0.5845 -0.2229
   52MOL   H20413566   0.134   2.346   6.008 -0.3295 -0.5242  0.5334
   52MOL   H20513567   0.360   2.271   5.988  1.7184 -1.8554  0.3685
   52MOL   H20613568   0.341   2.295   6.174 -1.6684  0.7027  0.4309
   52MOL   H20713569   0.393   2.144   6.091 -2.3083 -2.0125 -0.5803
   52MOL   H20813570   7.640   2.381   5.926  0.0203 -1.0396 -0.9243
   52MOL   H20913571   7.789   2.462   5.950  0.6103 -0.0778 -0.1858
   52MOL   C21013572   7.792   2.334   5.776  1.1311 -0.7672 -0.3017
   52MOL   N21113573   0.101   2.378   5.771  0.2430 -0.1404 -0.0897
   52MOL   C21213574   0.196   2.320   5.699 -0.5348  0.3437 -0.1462
   52MOL   O21313575   0.179   2.204   5.660 -0.3373  0.3413  0.1286
   52MOL   C21413576   0.321   2.408   5.678 -0.3451 -0.2026 -0.1873
   52MOL   C21513577   7.712   2.406   5.669 -0.0506  1.3733 -0.6992
   52MOL   H21613578   7.784   2.229   5.749  1.1081 -0.5432 -1.1739
   52MOL   H21713579   0.123   2.470   5.807 -2.4535  1.1591 -1.5649
   52MOL   H21813580   0.336   2.429   5.573 -0.1583 -0.7445 -0.2728
   52MOL   H21913581   0.303   2.511   5.709 -1.8286 -0.6461  0.5000
   52MOL   H22013582   0.406   2.367   5.734 -0.9475 -0.6094  0.4456
   52MOL   H22113583   7.727   2.513   5.661  0.3998  1.2680 -1.3107
   52MOL   H22213584   7.745   2.366   5.573 -1.4504  1.4853 -1.2488
   52MOL   C22313585   7.550   2.377   5.670 -0.8633  0.0504 -0.4307
   52MOL   N22413586   7.522   2.238   5.659 -0.3543  0.0884 -0.8920
   52MOL   C22513587   7.456   2.175   5.759 -0.2513  0.4327  0.3814
   52MOL   O22613588   7.396   2.226   5.859 -0.4203  0.6654  0.0112
   52MOL   C22713589   7.432   2.030   5.740 -0.0007 -0.1162  0.5022
   52MOL   C22813590   7.471   2.439   5.549 -0.3041  0.1994  0.5575
   52MOL   H22913591   7.503   2.425   5.756  0.0222  0.6022 -0.2506
   52MOL   H23013592   7.566   2.184   5.586  1.9802  0.1931  0.3944
   52MOL   H23113593   7.329   2.018   5.708 -0.1774 -0.9159  1.3361
   52MOL   H23213594   7.496   1.999   5.658  0.6702  0.6628  0.7283
   52MOL   H23313595   7.455   1.960   5.821  0.6137  1.2947  1.5742
   52MOL   H23413596   7.513   2.408   5.454 -0.0831  2.6323 -0.1921
   52MOL   H23513597   7.369   2.403   5.541 -0.8914  2.0297 -0.4526
   52MOL   C23613598   7.442   2.595   5.549  0.2233 -0.2606 -0.3702
   52MOL   N23713599   7.393   2.638   5.676  0.5155 -0.3529  0.4334
   52MOL   C23813600   7.466   2.712   5.763 -0.3595  0.0966 -0.2400
   52MOL   O23913601   7.584   2.736   5.763 -0.1245 -0.6105  0.0364
   52MOL   C24013602   7.383   2.766   5.877 -0.4478  0.2098 -0.0295
   52MOL   C24113603   7.337   2.639   5.444  0.0912  0.0559  0.2780
   52MOL   H24213604   7.535   2.649   5.531  0.3942  0.3680  2.2520
   52MOL   H24313605   7.295   2.619   5.694  0.2466  1.7905  1.4300
   52MOL   H24413606   7.442   2.824   5.948 -1.3212  1.1636 -0.0638
   52MOL   H24513607   7.304   2.828   5.834 -0.6824 -1.3374 -1.8952
   52MOL   H24613608   7.334   2.687   5.932 -1.0875  1.6092  1.4591
   52MOL   H24713609   7.252   2.570   5.451  0.5752 -0.4108  1.5692
   52MOL   H24813610   7.304   2.737   5.476 -2.4104 -1.2737  1.9750
   52MOL   C24913611   7.380   2.652   5.296 -0.3070 -0.1810  0.0788
   52MOL   N25013612   7.505   2.729   5.279  0.4909 -0.1195 -0.1638
   52MOL   C25113613   7.584   2.744   5.169  1.2615 -0.5228 -0.2715
   52MOL   O25213614   7.550   2.691   5.065  0.5269  0.1928 -0.0811
   52MOL   C25313615   7.721   2.817   5.181 -0.1376  0.2634 -0.6021
   52MOL   C25413616   7.260   2.708   5.209  0.1781 -0.3292 -0.8251
   52MOL   H25513617   7.411   2.556   5.254 -1.7077  0.2377 -2.0000
   52MOL   H25613618   7.546   2.757   5.367 -0.5875  0.5291  0.1591
   52MOL   H25713619   7.715   2.877   5.272  1.6592 -1.8795  1.0119
   52MOL   H25813620   7.806   2.749   5.181 -0.7924 -0.6238  1.9479
   52MOL   H25913621   7.722   2.884   5.095 -0.9191  2.3564  0.9791
   52MOL   H26013622   7.246   2.813   5.233 -0.3977 -0.8113  1.0425
   52MOL   H26113623   7.294   2.700   5.105 -1.6151  0.3823 -1.4693
   52MOL   H26213624   7.172   2.646   5.221  0.0418  0.1605  0.8585
   53MOL     C113625   6.098   7.719   6.285 -0.0395  0.1088  0.8626
   53MOL     N213626   6.142   7.795   6.403  0.4503  1.4277 -0.4513
   53MOL     C313627   6.220   7.754   6.496  0.0708 -0.5139  0.0816
   53MOL     O413628   6.295   7.653   6.499 -0.0814  0.4382  0.2071
   53MOL     C513629   6.224   0.015   6.608 -0.6582  0.8507  0.4816
   53MOL     C613630   5.969   7.641   6.330 -0.3281 -0.1836  0.6593
   53MOL     H713631   6.076   7.777   6.196  0.5308 -1.0749 -0.0603
   53MOL     H813632   6.083   0.028   6.439 -0.8931 -0.7955  2.0271
   53MOL     H913633   6.267   7.818   6.701 -1.0428  0.3244  0.4579
   53MOL    H1013634   6.298   0.091   6.582  1.6846 -0.1216  3.9516
   53MOL    H1113635   6.125   0.054   6.630 -1.3302  1.5875 -3.3778
   53MOL    H1213636   6.010   7.542   6.352  0.0785 -0.1347  0.1484
   53MOL    H1313637   5.930   7.680   6.424  1.1779 -1.3146  1.7823
   53MOL    H1413638   6.172   7.646   6.255 -0.4455 -0.6803  1.7436
   53MOL    C1513639   5.855   7.634   6.221  0.0539  0.3163  0.0877
   53MOL    N1613640   5.792   7.767   6.208  0.1949  0.2849 -0.4045
   53MOL    C1713641   5.734   7.816   6.097 -0.3034  0.3633  0.0987
   53MOL    O1813642   5.756   7.759   5.992 -0.5800 -0.0969  0.1184
   53MOL    C1913643   5.651   0.102   6.098 -0.0580 -0.5290 -0.3717
   53MOL    C2013644   5.744   7.528   6.259  0.1333 -0.1298 -0.6117
   53MOL    H2113645   5.893   7.602   6.124  3.6160 -2.4921  2.2513
   53MOL    H2213646   5.781   7.821   6.292  3.3747  0.4344 -0.0354
   53MOL    H2313647   5.726   0.180   6.099 -1.1247  0.5057  1.2541
   53MOL    H2413648   5.583   0.121   6.015  0.6241  0.2879 -0.7471
   53MOL    H2513649   5.588   0.109   6.187 -1.1552 -0.0483 -1.1703
   53MOL    H2613650   5.660   7.547   6.192  0.4286  1.7896 -0.4686
   53MOL    H2713651   5.778   7.432   6.222 -0.1933 -1.0706  1.4387
   53MOL    C2813652   5.685   7.514   6.403 -0.1978  0.6368 -0.0478
   53MOL    N2913653   5.572   7.414   6.389 -0.2973  0.4624 -0.0078
   53MOL    C3013654   5.577   7.278   6.389 -0.2180  0.1364  0.7430
   53MOL    O3113655   5.677   7.213   6.404 -0.4663 -0.2122 -0.2784
   53MOL    C3213656   5.446   7.214   6.352  0.2701  0.1971 -0.4409
   53MOL    C3313657   5.632   7.648   6.456  0.2019  0.0114  0.1661
   53MOL    H3413658   5.759   7.466   6.468  0.8080  1.0977 -0.8394
   53MOL    H3513659   5.485   7.466   6.386 -0.9183 -0.3490  2.5253
   53MOL    H3613660   5.396   7.258   6.265 -0.7465  1.2783  0.6567
   53MOL    H3713661   5.463   7.107   6.342  3.2166  0.3993  1.9496
   53MOL    H3813662   5.375   7.221   6.435  2.5143 -0.0798  1.5552
   53MOL    H3913663   5.716   7.710   6.489 -0.9020  1.3818  0.4748
   53MOL    H4013664   5.588   7.691   6.366  0.3732  1.0210  0.5570
   53MOL    C4113665   5.528   7.678   6.571 -0.0006 -0.5189 -0.2413
   53MOL    N4213666   5.473   7.806   6.549  0.0428 -0.5305  0.1839
   53MOL    C4313667   5.354   0.009   6.591  0.4059 -0.3061  0.1905
   53MOL    O4413668   5.299   7.805   6.692  0.0208  0.4919  0.1054
   53MOL    C4513669   5.303   0.129   6.511 -0.0843  0.1221 -0.3413
   53MOL    C4613670   5.583   7.648   6.708  0.1845 -0.4766  0.2358
   53MOL    H4713671   5.445   7.608   6.570 -1.2774  0.9062  1.4632
   53MOL    H4813672   5.528   0.022   6.485  2.1642 -1.8447  0.8116
   53MOL    H4913673   5.304   0.095   6.408  1.4024  0.0657 -0.3214
   53MOL    H5013674   5.199   0.153   6.529  0.2449  1.4812 -0.2056
   53MOL    H5113675   5.362   0.219   6.527  0.1799 -0.3815  1.6895
   53MOL    H5213676   5.668   7.714   6.726  1.0435 -1.2696 -0.8222
   53MOL    H5313677   5.505   7.676   6.779 -1.0416 -1.1135 -0.8246
   53MOL    C5413678   5.642   7.504   6.730 -0.0580 -0.2312  0.4186
   53MOL    N5513679   5.565   7.438   6.838  0.2468  0.4229 -0.6732
   53MOL    C5613680   5.453   7.375   6.824 -0.4463 -0.1665 -0.0172
   53MOL    O5713681   5.397   7.362   6.715  0.2980 -0.2651 -0.4448
   53MOL    C5813682   5.392   7.334   6.955  0.7092  0.0126 -0.5310
   53MOL    C5913683   5.787   7.514   6.794  0.2213 -0.5581 -0.5112
   53MOL    H6013684   5.642   7.438   6.643  0.4326 -2.2204  1.8901
   53MOL    H6113685   5.611   7.441   6.928 -1.8951 -1.5089  0.5509
   53MOL    H6213686   5.287   7.310   6.941  0.9804 -0.6518 -1.5063
   53MOL    H6313687   5.442   7.246   6.995  1.8607  1.8976  2.3600
   53MOL    H6413688   5.389   7.412   7.031  1.3129 -0.9236  0.4815
   53MOL    H6513689   5.843   7.587   6.736  2.9870 -2.1300  0.1021
   53MOL    H6613690   5.778   7.567   6.888 -1.9420 -0.9792 -0.4322
   53MOL    C6713691   5.863   7.380   6.805  0.6693  0.1621  0.2880
   53MOL    N6813692   5.917   7.362   6.942  0.8509  0.1720 -0.1727
   53MOL    C6913693   5.843   7.337   7.057  0.1008 -0.2512 -0.9572
   53MOL    O7013694   5.717   7.333   7.057  0.2979  0.0052 -0.0375
   53MOL    C7113695   5.928   7.298   7.180 -0.0990 -0.5560  0.3698
   53MOL    C7213696   5.973   7.375   6.700 -0.3085 -0.2215 -0.3467
   53MOL    H7313697   5.795   7.296   6.792  0.7777 -0.1399  1.5932
   53MOL    H7413698   6.015   7.372   6.961  0.9570  1.0028 -1.0969
   53MOL    H7513699   5.903   7.379   7.249  2.3086  0.1524  0.4607
   53MOL    H7613700   5.902   7.203   7.227 -0.3344 -0.3651  0.6252
   53MOL    H7713701   6.032   7.317   7.154  0.0952  0.2299  1.6334
   53MOL    H7813702   5.929   7.391   6.601  0.6010 -0.9169 -0.8672
   53MOL    H7913703   6.033   7.465   6.705  1.6408 -1.4704 -0.8810
   53MOL    C8013704   6.067   7.250   6.697  0.4196 -0.2907 -0.0412
   53MOL    N8113705   6.158   7.244   6.803 -1.0108  0.0184  0.0167
   53MOL    C8213706   6.198   7.130   6.870 -0.7468  0.2716  0.9950
   53MOL    O8313707   6.160   7.018   6.832 -0.0439  0.3180 -0.2799
   53MOL    C8413708   6.278   7.146   6.990  0.1001  0.3004  0.4680
   53MOL    C8513709   6.131   7.233   6.558 -0.5096 -0.2943 -0.2702
   53MOL    H8613710   5.999   7.168   6.718  0.7096 -1.0283 -1.9080
   53MOL    H8713711   6.190   7.334   6.838 -1.1084 -0.4252  1.2657
   53MOL    H8813712   6.361   7.216   6.982 -0.2925  0.5938 -1.2687
   53MOL    H8913713   6.214   7.186   7.068  0.2182 -0.3093  0.8797
   53MOL    H9013714   6.318   7.053   7.029 -0.5316  0.0377  0.4829
   53MOL    H9113715   6.184   7.325   6.531  0.6659 -0.0342  2.7176
   53MOL    H9213716   6.209   7.159   6.579 -0.1548  0.8295  2.7184
   53MOL    C9313717   6.045   7.187   6.441  0.2103 -0.3914 -0.2877
   53MOL    N9413718   5.938   7.095   6.485 -0.1649  0.4921  0.4333
   53MOL    C9513719   5.961   6.968   6.525 -0.5325  0.7290  0.8375
   53MOL    O9613720   6.060   6.900   6.503  0.0284  0.1058 -1.0985
   53MOL    C9713721   5.849   6.887   6.595  0.3618  0.9708 -0.2056
   53MOL    C9813722   6.129   7.134   6.326 -0.1357 -0.4668 -0.1760
   53MOL    H9913723   5.994   7.272   6.397 -1.1144 -1.3318 -0.5696
   53MOL   H10013724   5.843   7.130   6.489 -0.9432 -1.5899  0.3427
   53MOL   H10113725   5.874   6.786   6.628 -1.3446 -0.0898 -2.0822
   53MOL   H10213726   5.826   6.932   6.692  1.1149 -2.3527  1.6210
   53MOL   H10313727   5.762   6.874   6.530  1.0617 -2.2065 -0.5849
   53MOL   H10413728   6.202   7.058   6.356  3.1586  2.6778  0.0407
   53MOL   H10513729   6.057   7.083   6.262 -0.3628  1.7852 -1.7377
   53MOL   C10613730   6.209   7.240   6.248  0.2207  0.4482 -0.3832
   53MOL   N10713731   6.187   7.215   6.108  0.8856 -0.1095 -0.3821
   53MOL   C10813732   6.128   7.296   6.018  0.0289  0.3175 -0.2800
   53MOL   O10913733   6.095   7.413   6.040  0.6845  0.0475  0.4289
   53MOL   C11013734   6.124   7.225   5.883  0.1754 -0.1802 -0.5562
   53MOL   C11113735   6.363   7.218   6.263 -0.8049  0.2752  0.7172
   53MOL   H11213736   6.180   7.340   6.279  1.0010  0.6460 -0.2915
   53MOL   H11313737   6.192   7.118   6.082  1.4066  0.0727 -0.9550
   53MOL   H11413738   6.064   7.137   5.909  1.6752 -0.9434  0.4142
   53MOL   H11513739   6.079   7.283   5.803  0.4807  1.1712  0.2498
   53MOL   H11613740   6.218   7.180   5.849 -1.6618 -4.4586 -0.3567
   53MOL   H11713741   6.380   7.213   6.371 -0.6565  1.6128  0.7625
   53MOL   H11813742   6.391   7.123   6.219 -0.2182  0.6547  0.2545
   53MOL   C11913743   6.453   7.325   6.201  0.8885 -0.0983  0.3702
   53MOL   N12013744   6.590   7.275   6.194 -0.5959  0.9506  0.2723
   53MOL   C12113745   6.660   7.293   6.076  0.0333  0.6481 -0.4918
   53MOL   O12213746   6.608   7.348   5.978  0.1014 -0.4383 -0.6239
   53MOL   C12313747   6.800   7.238   6.069  0.8124  0.0767 -0.3317
   53MOL   C12413748   6.448   7.461   6.273  0.4902  0.5967 -0.4504
   53MOL   H12513749   6.408   7.338   6.102  2.6926 -0.7584 -0.5585
   53MOL   H12613750   6.618   7.210   6.266  0.2507 -0.5316 -1.3313
   53MOL   H12713751   6.856   7.262   6.159  1.0426 -0.2055 -0.3998
   53MOL   H12813752   6.794   7.135   6.034 -0.9248  0.7442 -2.0966
   53MOL   H12913753   6.851   7.292   5.988  1.8659 -2.5812 -1.5007
   53MOL   H13013754   6.343   7.488   6.284 -0.0249 -0.2556 -3.0253
   53MOL   H13113755   6.477   7.447   6.377  0.4806  0.9343 -0.4014
   53MOL   C13213756   6.523   7.584   6.214  0.2676  0.7671  0.0688
   53MOL   N13313757   6.563   7.674   6.325 -0.4420  0.1766 -0.7993
   53MOL   C13413758   6.686   7.724   6.362  0.0860  0.0329 -0.5565
   53MOL   O13513759   6.791   7.702   6.307 -0.2305 -0.3181  0.1478
   53MOL   C13613760   6.680   7.807   6.493 -0.1554 -0.0337  0.0528
   53MOL   C13713761   6.434   7.660   6.117 -0.0726 -0.4221 -0.7158
   53MOL   H13813762   6.622   7.564   6.172  1.2442  1.9118  1.8028
   53MOL   H13913763   6.483   7.704   6.379 -1.0601 -3.3491  0.3768
   53MOL   H14013764   6.767   7.788   6.556 -1.1430  1.4478  1.9128
   53MOL   H14113765   6.689   0.067   6.450  0.5125  0.7969  2.0487
   53MOL   H14213766   6.602   7.807   6.569  1.2155  0.0970  1.4762
   53MOL   H14313767   6.385   7.598   6.042 -1.2122  0.6155 -0.8534
   53MOL   H14413768   6.360   7.699   6.187  0.9484  2.1026 -0.9871
   53MOL   C14513769   6.495   7.781   6.051  0.5616 -0.0441  0.4031
   53MOL   N14613770   6.393   7.836   5.956  0.0785 -0.1268  0.3840
   53MOL   C14713771   6.357   0.126   5.931  0.1500 -0.0460 -0.0903
   53MOL   O14813772   6.386   0.219   6.003 -0.1970  0.8336  0.1602
   53MOL   C14913773   6.264   0.153   5.816 -0.1763  0.8200 -0.0646
   53MOL   C15013774   6.629   7.758   5.965 -0.7958 -0.2296 -0.8228
   53MOL   H15113775   6.513   0.017   6.127  2.7933  0.4779 -0.6182
   53MOL   H15213776   6.363   7.769   5.886 -0.8222  0.7803 -0.1086
   53MOL   H15313777   6.315   0.135   5.721 -0.1435  0.8372 -0.0498
   53MOL   H15413778   6.178   0.087   5.824  1.2345 -1.4872 -3.0302
   53MOL   H15513779   6.236   0.259   5.817 -3.3375  0.0174  0.6834
   53MOL   H15613780   6.677   0.015   5.949 -0.5818 -0.5163 -1.9438
   53MOL   H15713781   6.703   7.696   6.015 -2.3088 -0.6371  0.9381
   53MOL   C15813782   6.610   7.697   5.822 -0.6825  0.8856  0.0942
   53MOL   N15913783   6.523   7.578   5.830  0.0534  0.1705  0.1714
   53MOL   C16013784   6.410   7.559   5.760  0.2037 -0.0431  0.4129
   53MOL   O16113785   6.344   7.652   5.713  0.1822 -0.2966  0.3885
   53MOL   C16213786   6.373   7.413   5.731  0.3183  0.3096  0.4386
   53MOL   C16313787   6.742   7.665   5.753  0.0293 -0.8111 -0.3375
   53MOL   H16413788   6.561   7.772   5.759 -1.6065 -0.5441 -0.9026
   53MOL   H16513789   6.556   7.505   5.892 -1.7361 -0.4970  0.3477
   53MOL   H16613790   6.270   7.403   5.695  1.3784  0.0137 -2.6657
   53MOL   H16713791   6.433   7.350   5.666  0.7673  0.1507  1.0117
   53MOL   H16813792   6.369   7.363   5.827  0.2361 -1.3839 -0.4244
   53MOL   H16913793   6.796   7.606   5.827 -0.2709 -1.1632 -0.4036
   53MOL   H17013794   6.733   7.613   5.658  2.2583 -1.0689 -0.4495
   53MOL   C17113795   6.836   7.784   5.723 -0.2909  0.0808 -0.2067
   53MOL   N17213796   6.774   0.065   5.667  0.3714 -0.2832  0.4152
   53MOL   C17313797   6.760   0.182   5.728  0.6077  0.2922  0.6797
   53MOL   O17413798   6.814   0.210   5.835  0.1230 -0.2397 -0.2721
   53MOL   C17513799   6.676   0.286   5.657  0.7411 -0.1444 -0.4637
   53MOL   C17613800   6.957   7.736   5.639  0.0498  0.1918 -0.7632
   53MOL   H17713801   6.874   7.818   5.820 -1.1256  2.1045 -0.5536
   53MOL   H17813802   6.727   0.062   5.578  2.7249 -0.2713 -0.8923
   53MOL   H17913803   6.572   0.255   5.667  0.8181  0.2544  1.7254
   53MOL   H18013804   6.695   0.385   5.698  2.5341 -0.3942 -0.6206
   53MOL   H18113805   6.692   0.293   5.549 -4.2037 -0.1361 -1.2875
   53MOL   H18213806   6.906   7.690   5.554 -1.4124 -2.2599  1.3603
   53MOL   H18313807   7.011   7.825   5.608  0.4432  0.1970 -0.0724
   53MOL   C18413808   7.050   7.623   5.689  0.2349  0.6625  0.2135
   53MOL   N18513809   7.066   7.644   5.830 -1.0466  0.2094 -0.0651
   53MOL   C18613810   7.062   7.542   5.918 -0.0544 -0.2305  0.1900
   53MOL   O18713811   7.022   7.425   5.892 -0.8335  0.0682  0.2495
   53MOL   C18813812   7.105   7.573   6.063  0.9120 -1.4559 -0.3099
   53MOL   C18913813   7.181   7.621   5.611 -0.5871 -0.2353 -0.6597
   53MOL   H19013814   7.003   7.529   5.658  2.2243 -0.7073  1.2025
   53MOL   H19113815   7.083   7.739   5.860 -2.5598  0.6762 -0.6359
   53MOL   H19213816   7.204   7.532   6.084  1.5239  0.3758  0.5061
   53MOL   H19313817   7.114   7.676   6.096  2.0113 -1.2113 -1.3214
   53MOL   H19413818   7.034   7.532   6.134 -1.8752  1.8798 -1.0901
   53MOL   H19513819   7.159   7.636   5.505 -0.0228  2.3545 -0.4448
   53MOL   H19613820   7.239   7.706   5.646 -1.7428 -0.6428  2.3578
   53MOL   C19713821   7.268   7.494   5.615  0.2679  0.1212 -0.1952
   53MOL   N19813822   7.396   7.521   5.546  0.0468  0.1785 -1.3152
   53MOL   C19913823   7.489   7.613   5.586 -1.0416 -0.1736  0.3595
   53MOL   O20013824   7.485   7.668   5.691 -0.2858 -0.3595 -0.1478
   53MOL   C20113825   7.614   7.622   5.497 -0.2984  0.2119 -0.1277
   53MOL   C20213826   7.201   7.376   5.549  0.1083 -0.1498  0.0970
   53MOL   H20313827   7.287   7.454   5.715  0.4737  0.4722 -0.0929
   53MOL   H20413828   7.423   7.461   5.469 -0.5877 -1.0509 -0.5862
   53MOL   H20513829   7.623   7.731   5.494  0.6098  0.1815  0.9169
   53MOL   H20613830   7.689   7.578   5.563 -1.2830 -0.6890  0.4068
   53MOL   H20713831   7.617   7.592   5.392 -0.6135  0.1561 -0.1219
   53MOL   H20813832   7.117   7.350   5.614 -0.6108 -1.2801 -1.2487
   53MOL   H20913833   7.167   7.408   5.451 -0.6239  1.8524  0.9719
   53MOL   C21013834   7.292   7.251   5.543 -0.1042 -0.4657  0.8496
   53MOL   N21113835   7.299   7.206   5.401 -0.0732  0.0184  0.6083
   53MOL   C21213836   7.372   7.264   5.307  0.3694  0.7943 -0.0400
   53MOL   O21313837   7.444   7.362   5.329 -0.2272  0.1205  0.3573
   53MOL   C21413838   7.364   7.203   5.171  0.0029  0.4516  0.0978
   53MOL   C21513839   7.240   7.128   5.628  0.4700  0.0797  0.0218
   53MOL   H21613840   7.391   7.281   5.577 -1.4096  2.5531  2.1641
   53MOL   H21713841   7.265   7.115   5.375 -0.0663  0.1630  0.0839
   53MOL   H21813842   7.447   7.135   5.154  1.0711  1.8838 -0.5893
   53MOL   H21913843   7.266   7.158   5.158 -0.9441  2.1964  0.9611
   53MOL   H22013844   7.389   7.281   5.099  1.2333  0.8006  0.8887
   53MOL   H22113845   7.145   7.100   5.584 -1.2611  1.9094  2.4915
   53MOL   H22213846   7.307   7.043   5.616  0.4269 -0.0583  0.7007
   53MOL   C22313847   7.226   7.148   5.782 -1.5963 -0.2663 -0.0842
   53MOL   N22413848   7.367   7.153   5.838 -0.7101 -0.0659 -0.1069
   53MOL   C22513849   7.395   7.161   5.969 -0.3176  0.1733  0.0970
   53MOL   O22613850   7.317   7.152   6.063  0.3897 -0.1421  0.3110
   53MOL   C22713851   7.540   7.164   6.001 -0.4318  0.2603 -0.4551
   53MOL   C22813852   7.147   7.028   5.848  0.5775  0.1959  0.5253
   53MOL   H22913853   7.187   7.247   5.805 -0.5588 -0.4660  2.6771
   53MOL   H23013854   7.441   7.153   5.770  1.4139 -0.0208  2.1669
   53MOL   H23113855   7.592   7.233   5.933  0.8986 -0.8883 -0.6443
   53MOL   H23213856   7.559   7.196   6.103  0.8700  3.1446 -1.5289
   53MOL   H23313857   7.575   7.062   5.986  1.4057  0.9479 -1.1328
   53MOL   H23413858   7.220   6.947   5.849  0.3368 -0.0386 -0.6861
   53MOL   H23513859   7.114   7.055   5.949 -2.7296 -0.8452 -0.2295
   53MOL   C23613860   7.021   6.979   5.775  0.0006 -0.8364  0.6131
   53MOL   N23713861   6.940   7.101   5.753 -0.3291  0.0035  0.2668
   53MOL   C23813862   6.870   7.131   5.643  0.0585 -0.6182 -0.6553
   53MOL   O23913863   6.877   7.059   5.545  0.5398  0.0467  0.1042
   53MOL   C24013864   6.797   7.266   5.642  0.3141  0.1221 -0.1374
   53MOL   C24113865   6.918   6.887   5.854 -0.6034 -0.4671  0.2145
   53MOL   H24213866   7.038   6.933   5.678  0.1091 -0.4394  0.4394
   53MOL   H24313867   6.928   7.159   5.835 -1.0415 -1.4977  1.2550
   53MOL   H24413868   6.792   7.330   5.553  2.7895 -1.1096 -1.2080
   53MOL   H24513869   6.693   7.239   5.662  0.4955 -0.2804  0.2512
   53MOL   H24613870   6.832   7.328   5.724  2.2199  0.8699 -1.4551
   53MOL   H24713871   6.879   6.936   5.943  1.2331  3.1190 -0.8319
   53MOL   H24813872   6.828   6.878   5.793 -0.0807 -1.0238 -0.4806
   53MOL   C24913873   6.968   6.748   5.885  0.1801  0.1940 -0.2036
   53MOL   N25013874   6.866   6.642   5.869  0.2669  0.1558  0.4939
   53MOL   C25113875   6.831   6.583   5.755  0.2683 -0.7632  0.3307
   53MOL   O25213876   6.737   6.499   5.756 -0.3376 -0.1412 -0.3066
   53MOL   C25313877   6.904   6.615   5.625  0.2336 -0.2153 -0.4565
   53MOL   C25413878   7.019   6.732   6.029  0.4833  0.1657 -0.3912
   53MOL   H25513879   7.053   6.734   5.818  1.6457 -0.0027  1.6651
   53MOL   H25613880   6.826   6.598   5.951 -0.1841 -0.9573 -0.3076
   53MOL   H25713881   7.010   6.611   5.650 -0.6848 -0.5760  3.7356
   53MOL   H25813882   6.885   6.539   5.550 -0.7110 -1.8096  1.3524
   53MOL   H25913883   6.870   6.714   5.595 -2.5242 -0.3166  2.0793
   53MOL   H26013884   7.107   6.794   6.049  2.0059 -1.9208 -0.3881
   53MOL   H26113885   6.946   6.767   6.101  0.5969  0.5125 -0.4431
   53MOL   H26213886   7.043   6.627   6.047 -0.9041 -0.2365 -0.8377
   54MOL     C113887   0.103   0.625   7.217  0.1827 -0.0670  0.0956
   54MOL     N213888   0.249   0.636   7.225  0.1546  0.7300 -0.0128
   54MOL     C313889   0.311   0.723   7.304 -0.3954  0.4548 -0.4669
   54MOL     O413890   0.246   0.811   7.364  0.1416  0.3366 -0.3757
   54MOL     C513891   0.465   0.709   7.327  0.4246  0.2564  0.5200
   54MOL     C613892   0.042   0.702   7.098 -0.1371 -0.7870  0.3494
   54MOL     H713893   0.083   0.518   7.216  1.6473 -0.3554  0.7043
   54MOL     H813894   0.302   0.576   7.163  1.2198  2.0290 -0.3764
   54MOL     H913895   0.497   0.786   7.397  0.0030  0.4850  0.4625
   54MOL    H1013896   0.487   0.612   7.371 -2.3368 -1.2264 -1.1767
   54MOL    H1113897   0.528   0.712   7.239  0.3774 -1.4616  0.4076
   54MOL    H1213898   0.055   0.809   7.111 -1.5081 -0.7783  1.7242
   54MOL    H1313899   0.096   0.664   7.010  0.5431  0.2501  0.3121
   54MOL    H1413900   0.062   0.664   7.310  1.0580 -1.2935  1.0114
   54MOL    C1513901   7.729   0.683   7.062  0.0837 -0.3564 -0.1978
   54MOL    N1613902   7.699   0.774   6.954  0.8455  0.3067  0.4129
   54MOL    C1713903   7.723   0.765   6.822 -0.0226  0.3394 -0.0704
   54MOL    O1813904   7.772   0.670   6.762 -0.2069 -0.4951 -0.3707
   54MOL    C1913905   7.664   0.881   6.737 -0.5570 -0.1300  0.2670
   54MOL    C2013906   7.640   0.730   7.179 -0.2336  0.0610 -0.3218
   54MOL    H2113907   7.718   0.578   7.033 -0.0652 -0.7859  1.3443
   54MOL    H2213908   7.674   0.866   6.987  0.9931 -0.6113  3.2007
   54MOL    H2313909   7.570   0.907   6.786 -0.8732 -1.0410  0.1567
   54MOL    H2413910   7.722   0.973   6.743 -0.2365 -0.4202  1.7876
   54MOL    H2513911   7.635   0.854   6.635 -0.6981 -1.3189  0.6145
   54MOL    H2613912   7.693   0.820   7.212  0.1064 -0.6296  1.0574
   54MOL    H2713913   7.543   0.771   7.150 -0.5616 -1.2152 -1.0538
   54MOL    C2813914   7.610   0.631   7.294 -0.2120  0.0296 -0.2715
   54MOL    N2913915   7.548   0.511   7.236  0.0771  0.8057  0.5931
   54MOL    C3013916   7.604   0.388   7.245 -0.0756 -0.3229 -0.4451
   54MOL    O3113917   7.687   0.355   7.331 -0.3318  0.2128 -0.2613
   54MOL    C3213918   7.585   0.292   7.123  0.4314 -0.5369 -0.2336
   54MOL    C3313919   7.516   0.690   7.397  0.0691 -0.1637  0.4342
   54MOL    H3413920   7.697   0.597   7.350 -1.1562 -1.7272  0.1640
   54MOL    H3513921   7.462   0.521   7.183 -0.0019  0.5561  0.6702
   54MOL    H3613922   7.537   0.207   7.171 -0.0305  0.5505  1.2665
   54MOL    H3713923   7.527   0.346   7.047 -0.6810 -0.5895  0.5682
   54MOL    H3813924   7.686   0.267   7.092  0.5141  0.6663 -0.9639
   54MOL    H3913925   7.451   0.764   7.349  1.3110  1.0486  0.5819
   54MOL    H4013926   7.457   0.612   7.444  1.6071 -1.4600  0.2395
   54MOL    C4113927   7.591   0.764   7.517 -0.3555 -1.4698  0.3180
   54MOL    N4213928   7.500   0.810   7.617  0.0623 -0.1523  0.0524
   54MOL    C4313929   7.474   0.755   7.737  0.4750 -0.6262 -0.5878
   54MOL    O4413930   7.516   0.650   7.778 -0.3096 -0.1955 -0.3907
   54MOL    C4513931   7.389   0.838   7.839 -0.7887  0.0056  0.2879
   54MOL    C4613932   7.694   0.871   7.465  0.6826  0.2116  0.2438
   54MOL    H4713933   7.647   0.685   7.566 -0.6704 -2.0887 -0.3069
   54MOL    H4813934   7.449   0.896   7.599  0.7517 -0.0379 -1.3959
   54MOL    H4913935   7.293   0.793   0.021 -0.3645 -0.4633  1.2482
   54MOL    H5013936   7.451   0.847   0.089  1.7274  2.1855 -1.5826
   54MOL    H5113937   7.365   0.936   7.798 -0.9539  0.8104  2.2353
   54MOL    H5213938   7.776   0.824   7.410 -0.0227 -1.6763  0.7710
   54MOL    H5313939   7.648   0.930   7.386  1.1535 -0.3527 -0.4677
   54MOL    C5413940   7.747   0.963   7.579 -0.1165  0.2543  0.2249
   54MOL    N5513941   0.007   1.051   7.514 -0.2606 -0.2807  0.0450
   54MOL    C5613942   0.021   1.182   7.524 -0.0347  0.0547 -0.0592
   54MOL    O5713943   7.790   1.255   7.594 -0.2351 -0.5932  0.2940
   54MOL    C5813944   0.129   1.250   7.437 -0.0087  0.3718  0.0253
   54MOL    C5913945   7.814   0.888   7.695  0.1036  0.4482  0.0124
   54MOL    H6013946   7.667   1.026   7.618 -1.6100 -0.9150 -0.9030
   54MOL    H6113947   0.080   1.013   7.456 -0.2553 -0.2503  0.0322
   54MOL    H6213948   0.075   1.327   7.381 -0.1748 -0.4945 -1.0052
   54MOL    H6313949   0.190   1.310   7.506  2.4432 -0.9490 -0.9386
   54MOL    H6413950   0.184   1.180   7.375 -0.4987 -0.0539  0.0668
   54MOL    H6513951   7.839   0.968   7.765 -0.1313  0.3865  0.1642
   54MOL    H6613952   7.756   0.818   7.755  1.2502  0.5124  1.2301
   54MOL    C6713953   0.118   0.842   7.682 -0.1934  0.5476  0.2600
   54MOL    N6813954   0.129   0.714   7.608  0.1218  0.2683 -0.0158
   54MOL    C6913955   0.093   0.597   7.657  0.7535 -0.5209  0.1842
   54MOL    O7013956   0.026   0.577   7.758 -0.1150 -0.3381  0.3579
   54MOL    C7113957   0.132   0.475   7.572 -0.1639  1.1495  0.6473
   54MOL    C7213958   0.176   0.836   7.824  0.1913 -0.0441 -0.4268
   54MOL    H7313959   0.180   0.908   7.621 -0.6880  1.6398  0.9227
   54MOL    H7413960   0.161   0.725   7.513  2.0901  0.2659  0.6426
   54MOL    H7513961   0.241   0.470   7.576 -0.1643  1.5634  1.3107
   54MOL    H7613962   0.083   0.386   7.610  1.1928  0.2819  0.4070
   54MOL    H7713963   0.104   0.477   7.467 -0.0390 -0.1712  0.5851
   54MOL    H7813964   0.190   0.940   0.015  0.3327  0.4371 -2.0501
   54MOL    H7913965   0.100   0.803   0.055 -0.5439  2.4201 -0.0040
   54MOL    C8013966   0.313   0.758   0.010 -0.1777 -0.1218 -0.0827
   54MOL    N8113967   0.329   0.764   0.156 -0.2644 -0.2075  0.1449
   54MOL    C8213968   0.372   0.673   0.242  0.3273  0.3112  0.4676
   54MOL    O8313969   0.411   0.561   0.208  0.2611  0.3114  0.7639
   54MOL    C8413970   0.373   0.714   0.397  0.6959 -0.3851 -0.7353
   54MOL    C8513971   0.431   0.825   7.771 -0.2825  0.2440 -0.0929
   54MOL    H8613972   0.306   0.655   7.815  0.0078  0.2273 -1.1675
   54MOL    H8713973   0.316   0.855   0.200  1.0688 -0.8012  1.8493
   54MOL    H8813974   0.287   0.681   0.455  0.7914  1.2685  0.3774
   54MOL    H8913975   0.460   0.668   0.444  0.7085  1.5458  1.2046
   54MOL    H9013976   0.386   0.821   0.408  0.6108 -0.5177  0.6474
   54MOL    H9113977   0.415   0.790   7.669  0.6364  0.3474 -0.2744
   54MOL    H9213978   0.409   0.932   7.766 -1.0683  0.0024 -1.9834
   54MOL    C9313979   0.579   0.796   7.816  0.2354 -0.4655  0.8392
   54MOL    N9413980   0.602   0.655   0.006  0.0971 -0.4683 -0.1510
   54MOL    C9513981   0.591   0.559   7.749 -0.0718  0.0587  0.6849
   54MOL    O9613982   0.576   0.587   7.629  0.6079 -0.2751  0.5257
   54MOL    C9713983   0.595   0.416   7.791  0.0097  0.1660 -0.4822
   54MOL    C9813984   0.615   0.879   0.097  0.5291  0.3088  0.6687
   54MOL    H9913985   0.639   0.827   7.730 -2.4002  2.4026 -0.0652
   54MOL   H10013986   0.611   0.632   0.103  2.5045 -1.2377 -0.5331
   54MOL   H10113987   0.529   0.353   7.730 -0.1930  1.5601 -1.7442
   54MOL   H10213988   0.699   0.384   7.790 -0.4622 -1.4364 -2.1691
   54MOL   H10313989   0.570   0.402   0.056 -3.4528  0.7741 -1.1796
   54MOL   H10413990   0.528   0.936   0.128  0.0904  0.9685 -1.7190
   54MOL   H10513991   0.625   0.812   0.183  0.8346 -1.3795 -0.6644
   54MOL   C10613992   0.737   0.973   0.073 -0.2069 -0.5083 -0.9968
   54MOL   N10713993   0.856   0.918   0.003 -0.1364  0.4446  0.0769
   54MOL   C10813994   0.917   0.800   0.037  0.2422 -0.6741 -0.6035
   54MOL   O10913995   0.895   0.746   0.144 -0.0429  0.3834  0.2815
   54MOL   C11013996   1.013   0.733   7.774 -0.6147 -0.3146 -0.1951
   54MOL   C11113997   0.777   1.055   0.206 -0.0821  0.0846 -0.4099
   54MOL   H11213998   0.706   1.045   7.836  1.2443 -0.5425 -1.6405
   54MOL   H11313999   0.872   0.966   7.756 -0.6374  1.5158  0.5653
   54MOL   H11414000   0.976   0.745   7.672  0.7671  0.3086 -0.6285
   54MOL   H11514001   1.117   0.764   7.782 -0.9164  0.5415  0.4524
   54MOL   H11614002   1.020   0.625   7.788 -0.8414 -0.5989 -2.0989
   54MOL   H11714003   0.692   1.034   0.271 -0.3480  0.4361 -0.6479
   54MOL   H11814004   0.862   1.003   0.252 -0.0039  2.0426  1.7622
   54MOL   C11914005   0.807   1.205   0.190  0.2220  0.2416  0.3674
   54MOL   N12014006   0.924   1.225   0.105 -0.5376 -0.0172  0.1753
   54MOL   C12114007   0.932   1.311   0.004 -1.5263 -0.2701  0.3045
   54MOL   O12214008   0.843   1.391   7.814  0.4224 -0.4496 -0.1482
   54MOL   C12314009   1.063   1.317   7.757 -0.4823 -0.2892  0.1488
   54MOL   C12414010   0.835   1.276   0.324 -0.2885 -0.3450 -0.3028
   54MOL   H12514011   0.717   1.258   0.156 -0.3360  0.2709  1.8695
   54MOL   H12614012   1.002   1.165   0.125  0.3121  1.8895  2.9225
   54MOL   H12714013   1.078   1.223   7.704  1.5674 -0.8951  1.7289
   54MOL   H12814014   1.068   1.401   7.689  1.0692 -1.1483 -0.8422
   54MOL   H12914015   1.156   1.334   7.812  0.0383  0.4847 -0.9626
   54MOL   H13014016   0.899   1.212   0.384  0.7413 -0.9000 -1.9661
   54MOL   H13114017   0.902   1.360   0.309 -0.9090 -0.0173 -1.3678
   54MOL   C13214018   0.704   1.321   0.391 -0.0934  0.6260  0.3505
   54MOL   N13314019   0.681   1.465   0.375 -0.3688  0.7963  0.4649
   54MOL   C13414020   0.563   1.525   0.379  0.4323  0.0270 -0.3314
   54MOL   O13514021   0.459   1.460   0.381 -0.2417 -0.1254  0.0965
   54MOL   C13614022   0.562   1.676   0.376 -0.2723  0.0268 -0.1565
   54MOL   C13714023   0.700   1.274   0.541 -0.1773 -0.0635 -0.6603
   54MOL   H13814024   0.620   1.276   0.338 -0.1510 -0.1014  1.0451
   54MOL   H13914025   0.753   1.534   0.366  1.1556 -0.6328  1.4822
   54MOL   H14014026   0.648   1.712   0.432  1.7078 -2.0264 -1.7860
   54MOL   H14114027   0.558   1.709   0.273  1.2863  0.2567 -0.1539
   54MOL   H14214028   0.470   1.714   0.420  0.4806 -2.5899  4.0446
   54MOL   H14314029   0.604   1.306   0.580 -0.2823  1.2798 -1.9854
   54MOL   H14414030   0.684   1.167   0.527  1.2211 -0.5363  1.1776
   54MOL   C14514031   0.824   1.312   0.632  0.5559 -0.1061  0.0400
   54MOL   N14614032   0.818   1.257   0.768  0.7399 -0.8850 -0.3760
   54MOL   C14714033   0.801   1.124   0.795 -0.0042 -1.0226  0.0179
   54MOL   O14814034   0.792   1.043   0.703  0.6154  0.0168  0.1794
   54MOL   C14914035   0.796   1.083   0.941  0.1102  0.3012 -0.1047
   54MOL   C15014036   0.837   1.464   0.651  0.7097 -0.1446 -0.0384
   54MOL   H15114037   0.912   1.268   0.585  1.2376 -0.8309  1.9431
   54MOL   H15214038   0.821   1.317   0.849  2.5691 -1.1342 -0.2278
   54MOL   H15314039   0.718   1.144   0.988  1.0175  1.9958 -0.7342
   54MOL   H15414040   0.776   0.976   0.932  0.4173  0.1573  0.8999
   54MOL   H15514041   0.888   1.091   0.998  0.5427  0.0610 -0.7678
   54MOL   H15614042   0.762   1.521   0.596 -0.3889 -2.3071 -0.8111
   54MOL   H15714043   0.811   1.493   0.753 -0.4802 -0.9310 -0.1150
   54MOL   C15814044   0.966   1.521   0.603  0.0407  0.1614  0.3409
   54MOL   N15914045   1.088   1.447   0.640 -0.6688  0.2629 -0.7332
   54MOL   C16014046   1.151   1.447   0.756 -0.1634 -0.2464 -0.5877
   54MOL   O16114047   1.101   1.506   0.854  0.3628  0.0262  0.0355
   54MOL   C16214048   1.288   1.390   0.764  1.3627  0.1615  0.6426
   54MOL   C16314049   0.969   1.672   0.632  0.0993 -0.3303 -0.0269
   54MOL   H16414050   0.967   1.515   0.495  0.4823 -0.7400  0.3972
   54MOL   H16514051   1.140   1.413   0.561  0.2993  0.3160 -0.1235
   54MOL   H16614052   1.330   1.385   0.663  0.2830  2.7472  0.0309
   54MOL   H16714053   1.357   1.452   0.820  0.9914  1.5874 -0.4432
   54MOL   H16814054   1.296   1.288   0.803 -0.6499 -0.2066  0.1426
   54MOL   H16914055   0.872   1.707   0.597  0.4648  1.0222  0.2980
   54MOL   H17014056   0.964   1.690   0.739  1.2533  1.1021 -0.1911
   54MOL   C17114057   1.089   1.741   0.568  0.5426 -0.0123 -0.4538
   54MOL   N17214058   1.199   1.752   0.661 -0.4594 -0.3532  0.3631
   54MOL   C17314059   1.329   1.767   0.637 -0.0944 -0.8845  0.0114
   54MOL   O17414060   1.378   1.790   0.521  0.5187 -0.4055 -0.8944
   54MOL   C17514061   1.415   1.775   0.761  0.5827 -0.2780  0.1484
   54MOL   C17614062   1.067   1.889   0.531  1.1927  0.5320 -0.3461
   54MOL   H17714063   1.105   1.682   0.478 -0.8876 -0.5111 -0.3912
   54MOL   H17814064   1.163   1.766   0.754 -0.4812  0.3671  0.2514
   54MOL   H17914065   1.361   1.809   0.850 -0.9562 -0.4331 -0.7086
   54MOL   H18014066   1.451   1.674   0.782  0.9135 -0.6684 -2.1737
   54MOL   H18114067   1.501   1.842   0.752  0.8068 -0.1642  2.8041
   54MOL   H18214068   1.059   1.939   0.628  0.0767 -1.1640  0.4444
   54MOL   H18314069   1.159   1.925   0.483  1.7070 -0.5319 -0.1837
   54MOL   C18414070   0.955   1.906   0.435 -0.0785 -1.0900 -0.0233
   54MOL   N18514071   0.998   1.838   0.307  0.6275  0.0598 -0.0935
   54MOL   C18614072   0.932   1.740   0.244 -0.3623  0.8557 -0.0933
   54MOL   O18714073   0.857   1.662   0.301 -0.0243 -0.2979 -0.8991
   54MOL   C18814074   0.967   1.725   0.102 -0.0097 -0.1747 -0.7427
   54MOL   C18914075   0.941   2.052   0.396  0.1528  0.1775 -0.4897
   54MOL   H19014076   0.859   1.863   0.465 -2.2408  3.0438 -0.5344
   54MOL   H19114077   1.067   1.894   0.258 -0.2312 -0.9788 -2.5838
   54MOL   H19214078   0.936   1.817   0.052  1.8334  0.6198 -0.4470
   54MOL   H19314079   1.072   1.707   0.079  0.2890  1.6033 -0.8934
   54MOL   H19414080   0.900   1.655   0.053 -2.9636  2.6671 -0.9854
   54MOL   H19514081   1.033   2.103   0.424 -0.3375  0.1401  1.2808
   54MOL   H19614082   0.928   2.064   0.289 -0.4148 -1.0511 -0.5729
   54MOL   C19714083   0.835   2.129   0.480  0.2124 -0.6682 -0.3110
   54MOL   N19814084   0.830   2.270   0.445  0.3362  0.2648 -0.7499
   54MOL   C19914085   0.933   2.354   0.459  0.6647  0.2285  0.2820
   54MOL   O20014086   1.046   2.328   0.493  1.1113 -0.6133  0.5935
   54MOL   C20114087   0.900   2.496   0.426 -0.5789 -0.3473 -0.3932
   54MOL   C20214088   0.841   2.114   0.636  0.8222  0.6459 -0.6955
   54MOL   H20314089   0.746   2.082   0.439 -1.0671  1.2975  0.1313
   54MOL   H20414090   0.744   2.316   0.419  1.0338  1.0783 -1.6523
   54MOL   H20514091   0.792   2.498   0.407 -0.9260 -2.4392  1.2877
   54MOL   H20614092   0.930   2.553   0.514  0.9091  0.3788 -1.3472
   54MOL   H20714093   0.940   2.540   0.334 -1.4448  0.1018 -0.5664
   54MOL   H20814094   0.855   2.006   0.647 -2.2252  0.0138 -2.6527
   54MOL   H20914095   0.929   2.159   0.682  0.6306  1.3069 -0.9722
   54MOL   C21014096   0.714   2.145   0.710  0.4455 -0.1473  0.2376
   54MOL   N21114097   0.673   2.285   0.690  0.2820  0.3341  0.0985
   54MOL   C21214098   0.730   2.395   0.738 -0.0078 -0.1248 -0.4145
   54MOL   O21314099   0.829   2.406   0.806  0.4337  0.5147  0.5169
   54MOL   C21414100   0.670   2.523   0.688  0.0051  0.0521  0.1222
   54MOL   C21514101   0.726   2.102   0.856 -0.4670 -1.0741 -0.0981
   54MOL   H21614102   0.628   2.093   0.666 -0.1273  2.0584 -1.3413
   54MOL   H21714103   0.599   2.297   0.622  0.4029  0.3023 -0.0388
   54MOL   H21814104   0.746   2.590   0.647 -1.6929  2.2349  0.4281
   54MOL   H21914105   0.583   2.512   0.624  1.1906  1.1873 -1.7283
   54MOL   H22014106   0.626   2.577   0.772 -1.4692 -1.7201  0.5156
   54MOL   H22114107   0.826   2.126   0.893 -0.2348  3.5228 -3.1979
   54MOL   H22214108   0.657   2.161   0.916 -1.0573 -0.5802 -1.2342
   54MOL   C22314109   0.708   1.958   0.904 -0.3782 -0.5503  0.3418
   54MOL   N22414110   0.574   1.906   0.881  0.1066  0.2025 -0.1804
   54MOL   C22514111   0.537   1.828   0.778 -0.2224  0.2437 -0.0544
   54MOL   O22614112   0.613   1.806   0.684 -0.1394 -1.0579 -0.1449
   54MOL   C22714113   0.391   1.785   0.777 -0.6564  0.0392 -0.6026
   54MOL   C22814114   0.753   1.938   1.053  0.1643  0.0124 -0.2977
   54MOL   H22914115   0.773   1.890   0.849 -2.4734 -0.9293 -1.7843
   54MOL   H23014116   0.503   1.923   0.951 -0.2939 -1.1440 -0.2342
   54MOL   H23114117   0.339   1.784   0.873  1.1957 -2.6315  0.4388
   54MOL   H23214118   0.340   1.859   0.715  1.2971  1.4944 -0.5175
   54MOL   H23314119   0.383   1.684   0.735  0.0039 -0.8827  1.4119
   54MOL   H23414120   0.859   1.962   1.053  0.3226 -0.6525 -0.9314
   54MOL   H23514121   0.708   2.019   1.110  2.2862  1.7249 -0.9796
   54MOL   C23614122   0.736   1.795   1.114  0.2251  0.1159 -0.9106
   54MOL   N23714123   0.737   1.790   1.261 -0.2787  0.2845 -0.6764
   54MOL   C23814124   0.831   1.798   1.350 -0.4317  0.3962  0.1760
   54MOL   O23914125   0.942   1.836   1.309 -0.6023  0.3732 -0.6928
   54MOL   C24014126   0.807   1.774   1.497  0.2479 -0.2303  0.0810
   54MOL   C24114127   0.826   1.688   1.042  0.1676 -0.5820  0.5681
   54MOL   H24214128   0.636   1.762   1.087 -0.1333 -0.4427  1.0782
   54MOL   H24314129   0.646   1.771   1.301  0.7618 -0.2720  1.5344
   54MOL   H24414130   0.848   1.858   1.552 -2.2794  2.5380 -2.0728
   54MOL   H24514131   0.703   1.755   1.526 -0.2205  0.3400 -1.1667
   54MOL   H24614132   0.853   1.678   1.520  2.0440  1.6423  4.8122
   54MOL   H24714133   0.798   1.684   0.937  0.1638  2.4153  0.4171
   54MOL   H24814134   0.928   1.727   1.047  0.2621 -0.7614  0.0594
   54MOL   C24914135   0.817   1.539   1.100 -0.1269  0.4242  0.2361
   54MOL   N25014136   0.936   1.459   1.066  0.5493  0.2365  0.6263
   54MOL   C25114137   0.977   1.351   1.135 -0.2320 -0.1651 -0.0360
   54MOL   O25214138   0.913   1.294   1.224 -0.2439  0.3062  0.2702
   54MOL   C25314139   1.115   1.295   1.108 -0.6085 -0.3450 -0.3993
   54MOL   C25414140   0.691   1.456   1.061 -0.1082 -0.4314 -0.1488
   54MOL   H25514141   0.830   1.558   1.207 -0.9128  1.8931  0.0904
   54MOL   H25614142   0.995   1.495   0.991 -0.0707  0.2210  0.1257
   54MOL   H25714143   1.184   1.379   1.097 -0.4793 -0.5148 -0.8669
   54MOL   H25814144   1.146   1.240   1.197 -1.4027  1.0357  0.7550
   54MOL   H25914145   1.115   1.218   1.031  2.6181 -2.2852  1.4253
   54MOL   H26014146   0.687   1.438   0.953  0.6497  0.3070 -0.3061
   54MOL   H26114147   0.677   1.363   1.116 -0.0308  1.0759  2.4989
   54MOL   H26214148   0.600   1.515   1.068  2.2482  3.3569  0.2067
   55MOL     C114149   7.151   1.534   5.738 -0.1573  0.2451  0.1910
   55MOL     N214150   7.221   1.581   5.855 -0.0503 -0.0105  0.3734
   55MOL     C314151   7.239   1.706   5.889 -0.0055 -0.7714 -0.9971
   55MOL     O414152   7.191   1.798   5.823 -0.0933 -0.1319  0.4398
   55MOL     C514153   7.324   1.737   6.012  0.3011 -0.1264  0.0304
   55MOL     C614154   7.074   1.406   5.767 -0.0906  0.1595 -0.7417
   55MOL     H714155   7.082   1.608   5.697 -0.7334 -1.3379 -1.7738
   55MOL     H814156   7.244   1.513   5.925  1.8278  0.0150 -0.1751
   55MOL     H914157   7.424   1.703   5.987  0.5340 -0.3471  1.2538
   55MOL    H1014158   7.329   1.845   6.027  0.1495  0.1319 -1.6575
   55MOL    H1114159   7.280   1.696   6.103  0.1066  1.5548  0.7259
   55MOL    H1214160   7.127   1.342   5.837 -1.4357  0.5239  0.6439
   55MOL    H1314161   6.993   1.429   5.837  0.2106  0.9592 -0.6474
   55MOL    H1414162   7.229   1.515   5.664 -1.3258 -1.2528 -0.6950
   55MOL    C1514163   7.040   1.327   5.645 -0.2193  0.4784 -0.3002
   55MOL    N1614164   6.931   1.236   5.681  0.1816 -0.7260 -0.1181
   55MOL    C1714165   6.803   1.278   5.689 -0.0263  0.0474  0.2579
   55MOL    O1814166   6.775   1.394   5.692  0.4088 -1.0309 -0.0778
   55MOL    C1914167   6.687   1.183   5.700  0.6247 -0.2094 -0.3753
   55MOL    C2014168   7.168   1.259   5.591 -0.7611 -0.1785 -0.5842
   55MOL    H2114169   7.001   1.397   5.570  0.9560  0.4445 -0.9727
   55MOL    H2214170   6.943   1.137   5.694 -2.6937 -1.1452 -0.3184
   55MOL    H2314171   6.693   1.108   5.780 -1.7819 -0.8743 -0.7901
   55MOL    H2414172   6.592   1.234   5.712  0.5053 -0.3287 -0.8351
   55MOL    H2514173   6.685   1.134   5.603  1.0418  0.1066 -0.5436
   55MOL    H2614174   7.128   1.209   5.502  2.1818 -0.5465 -1.7540
   55MOL    H2714175   7.231   1.342   5.560  1.7998 -1.8948 -0.1946
   55MOL    C2814176   7.237   1.154   5.680 -0.2679 -0.2588 -0.4202
   55MOL    N2914177   7.345   1.221   5.754 -0.2240 -0.0047 -0.4625
   55MOL    C3014178   7.451   1.291   5.705  0.4375 -0.5234 -0.6234
   55MOL    O3114179   7.480   1.308   5.585  0.2855  0.5377 -0.1958
   55MOL    C3214180   7.546   1.337   5.808  0.4447 -1.1147  0.4048
   55MOL    C3314181   7.291   1.031   5.603  0.0080  0.4332 -0.0194
   55MOL    H3414182   7.175   1.108   5.756 -0.9555  0.2432 -0.6804
   55MOL    H3514183   7.336   1.223   5.854  1.6151  2.7539 -0.2979
   55MOL    H3614184   7.519   1.440   5.831 -1.7003 -1.2396 -1.3866
   55MOL    H3714185   7.552   1.279   5.901  1.7408 -2.5397 -0.5327
   55MOL    H3814186   7.650   1.318   5.780  0.4355  0.3084 -0.6258
   55MOL    H3914187   7.351   1.066   5.518 -0.8957 -3.1020 -2.1883
   55MOL    H4014188   7.358   0.974   5.667 -0.7524 -0.4983 -0.0424
   55MOL    C4114189   7.180   0.929   5.560  0.1451  0.0029  0.4547
   55MOL    N4214190   7.125   0.852   5.671  0.3362  0.2617  0.8910
   55MOL    C4314191   7.013   0.864   5.739 -0.4157  0.4312 -0.7025
   55MOL    O4414192   6.947   0.964   5.742  0.0883 -0.4832 -0.0443
   55MOL    C4514193   6.971   0.739   5.823  0.6982  0.4408 -0.4643
   55MOL    C4614194   7.216   0.824   5.449 -0.1089  0.3346  0.5105
   55MOL    H4714195   7.104   0.995   5.519  1.7644 -0.5662 -3.6935
   55MOL    H4814196   7.178   0.771   5.699 -1.2854 -1.3128 -0.5260
   55MOL    H4914197   6.961   0.645   5.768  0.4815 -0.9873  1.9405
   55MOL    H5014198   7.052   0.738   5.896  1.4598  0.2898 -1.3033
   55MOL    H5114199   6.880   0.765   5.876  0.0421 -3.5243  0.5399
   55MOL    H5214200   7.286   0.879   5.386  0.6552  0.5069  1.4906
   55MOL    H5314201   7.262   0.731   5.481  0.8719  0.7278  0.2473
   55MOL    C5414202   7.103   0.794   5.347  0.5460 -0.1635 -0.1232
   55MOL    N5514203   6.975   0.760   5.410 -0.4139 -0.7499 -0.3563
   55MOL    C5614204   6.948   0.644   5.474 -0.4056  0.6223  0.1302
   55MOL    O5714205   7.031   0.556   5.491  0.8929  0.1063 -0.7029
   55MOL    C5814206   6.804   0.616   5.513  0.2811  0.3239  0.6141
   55MOL    C5914207   7.149   0.701   5.231  0.3347  0.0981  0.1419
   55MOL    H6014208   7.086   0.896   5.312  0.2330  1.1215  3.4651
   55MOL    H6114209   6.906   0.833   5.398  0.1505 -0.5278 -2.3916
   55MOL    H6214210   6.797   0.581   5.616  2.6574 -0.4706  0.5464
   55MOL    H6314211   6.749   0.709   5.514 -0.2081  0.0349  0.6731
   55MOL    H6414212   6.760   0.528   5.466 -0.3758  0.8553  0.2291
   55MOL    H6514213   7.240   0.646   5.256 -0.5264 -1.4232 -0.0349
   55MOL    H6614214   7.075   0.623   5.213 -0.0364  0.3881  0.3883
   55MOL    C6714215   7.179   0.776   5.099 -0.3512 -0.4344  0.1747
   55MOL    N6814216   7.260   0.890   5.123 -0.0727 -1.0128 -0.1862
   55MOL    C6914217   7.393   0.903   5.113 -0.4035  0.2104  0.1329
   55MOL    O7014218   7.475   0.809   5.119  0.9451 -0.9263  0.0012
   55MOL    C7114219   7.440   1.046   5.100 -0.3878  0.2230  0.7971
   55MOL    C7214220   7.054   0.822   5.018  0.4317 -0.1589  0.8934
   55MOL    H7314221   7.235   0.706   5.037  0.1620  1.6648 -1.8107
   55MOL    H7414222   7.206   0.975   5.131 -0.0061 -0.5859 -3.6262
   55MOL    H7514223   7.549   1.049   5.091 -0.6007  1.4794 -1.8360
   55MOL    H7614224   7.388   1.098   5.020 -1.4269 -0.7337  0.8374
   55MOL    H7714225   7.409   1.088   5.196 -3.3653 -1.1762  0.5264
   55MOL    H7814226   6.967   0.757   5.029 -0.8604  1.4095  0.2914
   55MOL    H7914227   7.015   0.916   5.057 -1.8727 -0.4671 -0.5339
   55MOL    C8014228   7.080   0.840   4.865 -0.4969 -0.4374 -0.7466
   55MOL    N8114229   7.026   0.962   4.820 -0.5567  0.2659  0.4814
   55MOL    C8214230   7.071   1.088   4.829 -0.2833 -0.1399  0.3865
   55MOL    O8314231   7.168   1.122   4.897  0.2707 -0.1492  0.3992
   55MOL    C8414232   6.996   1.195   4.759 -0.8924  0.7460 -0.5753
   55MOL    C8514233   7.035   0.726   4.775 -0.5672 -0.1044  0.2707
   55MOL    H8614234   7.188   0.845   4.851 -0.2537 -0.3987  1.0438
   55MOL    H8714235   6.940   0.948   4.769  1.0931 -1.0110 -2.0841
   55MOL    H8814236   6.978   1.267   4.840  2.0396  0.7700  0.0847
   55MOL    H8914237   7.064   1.241   4.688  0.9646  0.1877  0.8131
   55MOL    H9014238   6.917   1.147   4.701 -0.1604  0.0556 -1.0107
   55MOL    H9114239   7.073   0.632   4.816 -0.2295  0.0537  0.3179
   55MOL    H9214240   6.926   0.722   4.783 -0.6124  0.5452 -0.0634
   55MOL    C9314241   7.070   0.733   4.627 -0.0116 -0.1985 -0.5520
   55MOL    N9414242   7.023   0.608   4.561 -0.0237 -0.4477  0.0955
   55MOL    C9514243   6.896   0.595   4.516 -0.1194 -0.4161 -0.6605
   55MOL    O9614244   6.813   0.686   4.512 -0.1102  0.5243 -0.1872
   55MOL    C9714245   6.868   0.454   4.455  0.0041 -0.0400  0.4347
   55MOL    C9814246   7.225   0.751   4.608  0.0545 -0.6206  0.2925
   55MOL    H9914247   7.021   0.821   4.585  1.0598 -0.0485 -1.5165
   55MOL   H10014248   7.082   0.526   4.564  1.9802  0.9568  0.3743
   55MOL   H10114249   6.922   0.368   4.494  0.3341 -0.8478 -1.7612
   55MOL   H10214250   6.760   0.438   4.461  0.0454 -0.0399  1.2408
   55MOL   H10314251   6.887   0.457   4.348 -1.8975  2.3543  0.0986
   55MOL   H10414252   7.248   0.850   4.648  0.3106  0.1409 -1.7118
   55MOL   H10514253   7.275   0.674   4.667  0.5557 -1.2712 -0.9676
   55MOL   C10614254   7.275   0.735   4.463  0.1931  0.3038 -0.0350
   55MOL   N10714255   7.414   0.756   4.469  0.2784  0.6342  0.8355
   55MOL   C10814256   7.509   0.700   4.392  0.4283 -0.0374  0.5162
   55MOL   O10914257   7.487   0.639   4.285 -0.2698 -0.0878 -0.4625
   55MOL   C11014258   7.649   0.688   4.442  0.1406  0.1895  0.3969
   55MOL   C11114259   7.208   0.814   4.348  0.3489  0.0443 -0.5760
   55MOL   H11214260   7.265   0.630   4.436  1.8107 -0.3745  1.8755
   55MOL   H11314261   7.437   0.794   4.560 -0.1411  1.3270  0.6542
   55MOL   H11414262   7.716   0.689   4.356  0.8996  0.7843  0.9876
   55MOL   H11514263   7.674   0.768   4.512 -0.5440  2.1268 -1.5204
   55MOL   H11614264   7.650   0.594   4.497  0.2212  0.2979  0.5814
   55MOL   H11714265   7.141   0.882   4.401 -0.0249 -0.6558 -0.1438
   55MOL   H11814266   7.279   0.886   4.305  2.5352  0.3365  3.2741
   55MOL   C11914267   7.143   0.722   4.238 -0.1266 -0.0669 -0.1705
   55MOL   N12014268   7.237   0.622   4.192  0.1659  0.1980 -0.5161
   55MOL   C12114269   7.209   0.489   4.177 -0.4799  0.2458 -0.5966
   55MOL   O12214270   7.094   0.451   4.180  0.1142 -0.6013 -0.4935
   55MOL   C12314271   7.321   0.393   4.155  0.6055 -0.5398 -0.4966
   55MOL   C12414272   7.081   0.794   4.113 -0.6695 -0.2324  0.0108
   55MOL   H12514273   7.059   0.669   4.284 -0.1406  1.4199  1.5562
   55MOL   H12614274   7.335   0.644   4.197  0.4506 -0.9952 -0.7862
   55MOL   H12714275   7.324   0.345   4.058 -0.8568 -1.1953 -0.2264
   55MOL   H12814276   7.420   0.425   4.188  1.0804  0.7133 -3.0102
   55MOL   H12914277   7.301   0.311   4.224  0.0134 -0.0504 -0.0862
   55MOL   H13014278   7.058   0.714   4.043 -0.6440 -1.9411  1.9054
   55MOL   H13114279   6.991   0.847   4.144  0.5045  1.5196  0.4946
   55MOL   C13214280   7.168   0.898   4.041  0.7807  0.0963  0.6469
   55MOL   N13314281   7.092   0.966   3.936 -0.1786  0.2722 -0.4856
   55MOL   C13414282   7.098   1.096   3.904  0.0145  0.0096 -0.7601
   55MOL   O13514283   7.158   1.182   3.962  0.4836 -0.0213  0.0534
   55MOL   C13614284   7.010   1.136   3.783 -0.0657 -0.5422 -0.3406
   55MOL   C13714285   7.305   0.857   4.002  0.5820 -0.5338  0.2140
   55MOL   H13814286   7.192   0.966   4.122  0.9366 -0.1885  0.8439
   55MOL   H13914287   7.037   0.909   3.874 -1.4989 -0.0178  0.9304
   55MOL   H14014288   7.069   1.206   3.723  0.0435  1.0684  1.6011
   55MOL   H14114289   6.990   1.051   3.717  1.0606 -1.0991  0.0258
   55MOL   H14214290   6.917   1.182   3.816  0.6704  0.1923  0.7321
   55MOL   H14314291   7.356   0.953   3.991  0.3976 -0.6297 -1.5553
   55MOL   H14414292   7.354   0.808   4.087  0.8926  1.6498  1.3507
   55MOL   C14514293   7.330   0.789   3.868  1.8180 -0.7130 -0.3667
   55MOL   N14614294   7.281   0.651   3.864  0.0756  0.2411 -0.2076
   55MOL   C14714295   7.182   0.602   3.790  0.0661 -0.1533 -0.5176
   55MOL   O14814296   7.094   0.667   3.744 -0.1882 -0.1303  0.0228
   55MOL   C14914297   7.184   0.451   3.758  0.5050  0.5888  0.5912
   55MOL   C15014298   7.480   0.783   3.834  0.2322  0.3389  0.0241
   55MOL   H15114299   7.283   0.855   3.797  0.8300  0.7678  1.6123
   55MOL   H15214300   7.342   0.582   3.905 -1.3868 -0.2099  1.2688
   55MOL   H15314301   7.143   0.383   3.832  1.8384 -2.3586 -1.2920
   55MOL   H15414302   7.107   0.437   3.682  0.8632  2.4735 -0.1432
   55MOL   H15514303   7.281   0.415   3.725 -0.7132 -0.7546 -1.6221
   55MOL   H15614304   7.519   0.883   3.855 -1.0821  1.1055 -1.0809
   55MOL   H15714305   7.531   0.708   3.894 -1.0421 -1.4247 -1.0517
   55MOL   C15814306   7.521   0.754   3.683 -0.0507 -0.1722 -0.6914
   55MOL   N15914307   7.414   0.794   3.581  0.3086 -0.2911 -0.1497
   55MOL   C16014308   7.434   0.892   3.490  1.0939 -0.1585  0.5569
   55MOL   O16114309   7.531   0.968   3.496 -0.5535  0.1680  0.0533
   55MOL   C16214310   7.327   0.906   3.386 -0.1021  0.2208  0.1324
   55MOL   C16314311   7.559   0.605   3.658 -0.4179  0.4948  0.2352
   55MOL   H16414312   7.605   0.822   3.670  0.3380 -0.3414  0.8736
   55MOL   H16514313   7.322   0.753   3.571 -1.4934  3.6597 -0.6759
   55MOL   H16614314   7.349   0.997   3.329  2.7795 -0.0514  0.7114
   55MOL   H16714315   7.336   0.825   3.313  0.2788  0.8882 -0.5690
   55MOL   H16814316   7.224   0.905   3.420 -0.1926  0.0354 -0.1398
   55MOL   H16914317   7.470   0.551   3.689 -1.0395  1.3012 -0.1308
   55MOL   H17014318   7.565   0.604   3.550 -1.8175 -0.0444  0.1545
   55MOL   C17114319   7.692   0.550   3.723  0.3683  0.2805  0.0733
   55MOL   N17214320   7.796   0.652   3.729 -0.2168  0.1070 -0.6775
   55MOL   C17314321   0.015   0.711   3.629  0.8332  0.1023 -0.4662
   55MOL   O17414322   0.006   0.678   3.514 -0.5225 -0.0733  0.2469
   55MOL   C17514323   0.094   0.835   3.664  0.4653  0.2398 -0.2149
   55MOL   C17614324   7.733   0.421   3.643 -0.3605 -0.4751 -0.3600
   55MOL   H17714325   7.672   0.529   3.828  0.2329 -1.7683 -0.3342
   55MOL   H17814326   7.816   0.693   3.819 -3.0220  0.5457 -0.2340
   55MOL   H17914327   0.136   0.842   3.765 -2.7172  0.2221  1.1724
   55MOL   H18014328   0.178   0.848   3.596 -0.0487 -0.3695 -0.9632
   55MOL   H18114329   0.026   0.920   3.658 -0.1320 -0.1692  0.6204
   55MOL   H18214330   7.727   0.445   3.537  0.2009  0.8838 -0.0972
   55MOL   H18314331   7.840   0.402   3.653 -0.4402 -0.4416  0.6030
   55MOL   C18414332   7.658   0.297   3.686 -0.4787  0.5203  0.7240
   55MOL   N18514333   7.674   0.268   3.831  0.9013  0.0296  0.2305
   55MOL   C18614334   7.580   0.217   3.909 -0.5169 -0.3281  0.3665
   55MOL   O18714335   7.464   0.198   3.870 -0.1829  0.2045  0.3682
   55MOL   C18814336   7.619   0.184   4.051 -0.1208  0.4853 -0.4529
   55MOL   C18914337   7.694   0.166   3.609 -0.3612  0.4146 -0.1429
   55MOL   H19014338   7.552   0.324   3.678 -1.1428 -2.0545  0.3141
   55MOL   H19114339   7.765   0.280   3.874  0.9596 -1.8457  0.6903
   55MOL   H19214340   7.707   0.242   4.076  0.4509  0.5570 -2.5714
   55MOL   H19314341   7.546   0.225   4.122 -0.8310  0.4126 -1.1370
   55MOL   H19414342   7.642   0.080   4.075 -1.0332  0.7232  1.5702
   55MOL   H19514343   7.803   0.162   3.599 -0.0303  2.6903  2.1059
   55MOL   H19614344   7.682   0.075   3.668  0.8801 -0.4834 -1.2484
   55MOL   C19714345   7.634   0.163   3.468  0.0793 -0.0692 -0.6073
   55MOL   N19814346   7.495   0.215   3.453 -0.0473  0.3341 -0.4047
   55MOL   C19914347   7.453   0.286   3.352  0.3681 -0.2881  0.5975
   55MOL   O20014348   7.522   0.331   3.257  0.1169  0.1351 -0.4033
   55MOL   C20114349   7.300   0.302   3.341 -0.4192  0.3254  0.4860
   55MOL   C20214350   7.634   0.012   3.410  0.3264  0.0261  0.4525
   55MOL   H20314351   7.702   0.231   3.416  3.6866 -1.0324  2.6400
   55MOL   H20414352   7.429   0.179   3.520  0.3938 -1.8623 -1.1063
   55MOL   H20514353   7.283   0.407   3.319  0.8214 -0.1669 -3.2411
   55MOL   H20614354   7.251   0.239   3.266  1.0352 -1.5094  1.0360
   55MOL   H20714355   7.257   0.293   3.441 -1.5932 -0.2282 -0.0541
   55MOL   H20814356   7.590   0.012   3.310 -0.6397  2.4659  0.8397
   55MOL   H20914357   7.740   7.828   3.399 -0.0185 -1.9741  1.2212
   55MOL   C21014358   7.581   7.727   3.487 -0.3024  0.0585 -0.0929
   55MOL   N21114359   7.606   7.606   3.405  0.7045  0.7724 -0.1075
   55MOL   C21214360   7.711   7.520   3.419  0.1171  0.2914  0.3794
   55MOL   O21314361   7.796   7.533   3.500 -0.9733 -0.1194 -0.3863
   55MOL   C21414362   7.708   7.403   3.318 -0.2866  0.4791  0.4669
   55MOL   C21514363   7.431   7.736   3.535  0.5448  0.8413  0.7108
   55MOL   H21614364   7.631   7.722   3.584  0.7013  0.4140 -0.5834
   55MOL   H21714365   7.543   7.573   3.333 -0.3988  2.1819  0.1918
   55MOL   H21814366   7.694   7.445   3.219 -2.1283  0.0525  0.5329
   55MOL   H21914367   7.810   7.364   3.314 -0.8626 -0.8770 -1.9480
   55MOL   H22014368   7.631   7.329   3.340  2.2046 -2.2076  0.4818
   55MOL   H22114369   7.387   7.834   3.520 -1.8963 -0.4020 -0.3757
   55MOL   H22214370   7.364   7.680   3.471  0.2896  1.8129  0.1242
   55MOL   C22314371   7.407   7.710   3.689 -0.9652 -0.1222 -0.2707
   55MOL   N22414372   7.405   7.571   3.720  0.3817 -0.8660 -0.3401
   55MOL   C22514373   7.509   7.501   3.771 -0.1559 -0.5843  0.2796
   55MOL   O22614374   7.617   7.545   3.786 -0.3358 -0.2817 -0.3956
   55MOL   C22714375   7.478   7.365   3.825  0.3063  0.1946  0.3266
   55MOL   C22814376   7.278   7.782   3.734  0.2292 -0.0814  0.3120
   55MOL   H22914377   7.472   7.772   3.751 -1.8131 -0.9919  1.5230
   55MOL   H23014378   7.317   7.525   3.699 -1.4005  2.1812  0.0457
   55MOL   H23114379   7.383   7.324   3.791  0.5074 -0.3192  0.3744
   55MOL   H23214380   7.558   7.296   3.798  0.6736  0.4218  0.8158
   55MOL   H23314381   7.478   7.378   3.934  0.9069 -1.0413  0.4806
   55MOL   H23414382   7.291   0.046   3.703  1.8050 -0.3331  0.1083
   55MOL   H23514383   7.191   7.752   3.677  0.8749  1.6563 -1.6340
   55MOL   C23614384   7.250   7.799   3.883  0.8087  0.3495 -0.0027
   55MOL   N23714385   7.211   7.669   3.935  0.4667 -0.0358 -0.4027
   55MOL   C23814386   7.182   7.630   4.059 -0.0567  0.2821  0.2169
   55MOL   O23914387   7.187   7.696   4.165 -0.5528  0.2438  0.4963
   55MOL   C24014388   7.148   7.484   4.076  0.1999 -0.9047 -0.0382
   55MOL   C24114389   7.154   0.067   3.941  0.1309 -0.2679 -0.2783
   55MOL   H24214390   7.346   7.822   3.929 -0.6712  2.6276  2.0329
   55MOL   H24314391   7.189   7.596   3.870 -0.8338 -1.4228  1.5536
   55MOL   H24414392   7.094   7.468   4.169 -0.0716  0.0053 -0.0287
   55MOL   H24514393   7.090   7.446   3.993 -2.9236  1.4017  0.9958
   55MOL   H24614394   7.241   7.427   4.068  0.7292  0.0017 -0.5091
   55MOL   H24714395   7.164   0.075   4.049 -0.5634 -1.8451 -0.0836
   55MOL   H24814396   7.201   0.156   3.900 -0.7663 -0.5566 -1.9961
   55MOL   C24914397   7.003   0.074   3.906 -0.7613 -0.0080 -0.5587
   55MOL   N25014398   6.963   0.217   3.937 -0.7494  0.4456  0.7548
   55MOL   C25114399   6.861   0.279   3.881  0.0828  1.0836 -0.3869
   55MOL   O25214400   6.788   0.231   3.793  0.4004 -0.5576  0.0525
   55MOL   C25314401   6.827   0.414   3.936  0.1271 -0.7207 -0.1898
   55MOL   C25414402   6.911   7.818   3.983  0.3275 -0.1244  0.4396
   55MOL   H25514403   6.989   0.051   3.801 -0.2031 -1.5634 -0.3032
   55MOL   H25614404   6.990   0.263   4.022 -2.1145  1.3138  0.7355
   55MOL   H25714405   6.915   0.478   3.927  0.6096 -0.6857  3.8102
   55MOL   H25814406   6.738   0.454   3.888  0.3890  0.0438 -0.0538
   55MOL   H25914407   6.803   0.407   4.042 -1.9720  1.3854 -0.4690
   55MOL   H26014408   6.806   7.834   3.960  0.0679  0.1588  1.7821
   55MOL   H26114409   6.933   7.721   3.940  0.4278  1.0046 -2.1995
   55MOL   H26214410   6.932   7.821   4.090  0.4760  0.6767  0.3988
   56MOL     C114411   7.704   7.825   7.588  0.2724  0.3776 -0.1817
   56MOL     N214412   7.694   7.697   7.511  0.0589  0.4900 -0.3093
   56MOL     C314413   7.666   7.690   7.378 -0.1692  0.2702 -0.5912
   56MOL     O414414   7.656   7.790   7.304 -0.1500 -0.1928  0.0767
   56MOL     C514415   7.644   7.548   7.321  0.9169 -0.2787 -0.4643
   56MOL     C614416   0.009   0.041   7.586  0.4170 -0.8536 -0.3491
   56MOL     H714417   7.640   0.059   7.540 -1.2309 -0.5887  0.3336
   56MOL     H814418   7.692   7.611   7.564 -2.8009 -0.3038 -1.6060
   56MOL     H914419   7.727   7.485   7.350 -0.0765 -0.4828  2.1176
   56MOL    H1014420   7.558   7.505   7.373  1.6800 -0.3821  0.7223
   56MOL    H1114421   7.618   7.553   7.215  0.2438 -0.8673 -0.3266
   56MOL    H1214422   0.048   0.047   7.485 -1.6988 -0.2303 -1.1711
   56MOL    H1314423   0.002   0.141   7.629 -1.0808 -1.5469  1.1157
   56MOL    H1414424   7.670   7.808   7.690  0.7704  3.9721  0.6648
   56MOL    C1514425   0.118   7.801   7.667 -0.9228 -0.2839 -0.0976
   56MOL    N1614426   0.064   7.793   7.805 -0.0278  0.9971 -0.1877
   56MOL    C1714427   0.107   7.710   0.064  0.2246 -0.7285  0.4187
   56MOL    O1814428   0.197   7.630   0.046 -0.0673  0.0253 -0.1081
   56MOL    C1914429   0.047   7.725   0.202  0.4232  0.3539  0.4504
   56MOL    C2014430   0.259   0.029   7.669  0.7433 -0.0188 -0.6777
   56MOL    H2114431   0.120   7.696   7.636  1.0338 -0.9207  2.0230
   56MOL    H2214432   7.827   0.013   7.833 -0.6414 -1.2200  3.0199
   56MOL    H2314433   7.826   7.815   0.214  0.0270  0.1121  0.2730
   56MOL    H2414434   7.824   7.641   0.229  3.4995 -1.5159  2.0140
   56MOL    H2514435   0.123   7.715   0.279  2.0108  1.7550 -0.8847
   56MOL    H2614436   0.247   0.135   7.645 -0.7434  0.3437  1.4812
   56MOL    H2714437   0.292   0.045   7.772  3.1743  1.0744 -1.5954
   56MOL    C2814438   0.362   7.791   7.585  0.5798  0.7407  0.1701
   56MOL    N2914439   0.386   7.672   7.662 -0.0752 -0.8906 -0.1923
   56MOL    C3014440   0.440   7.554   7.616  0.5453  0.5839  0.1095
   56MOL    O3114441   0.470   7.540   7.498 -0.5181  0.1464 -0.4196
   56MOL    C3214442   0.436   7.432   7.702 -0.5732  0.3169 -0.4942
   56MOL    C3314443   0.497   0.028   7.563  0.9041 -0.1892 -0.1626
   56MOL    H3414444   0.319   7.760   7.490 -1.0375  0.3453  1.0139
   56MOL    H3514445   0.331   7.662   7.746  1.0066 -0.0775  0.6400
   56MOL    H3614446   0.404   7.344   7.647 -1.5856 -0.1651  0.8477
   56MOL    H3714447   0.535   7.417   7.746 -0.6961 -2.7490 -1.2064
   56MOL    H3814448   0.373   7.444   7.790  0.8814  0.6132  0.5349
   56MOL    H3914449   0.531   0.043   7.666 -0.2631  0.9447  0.0647
   56MOL    H4014450   0.553   7.793   7.508 -0.0170 -0.4417 -0.7751
   56MOL    C4114451   0.492   0.161   7.482 -0.1085  0.1881 -0.2678
   56MOL    N4214452   0.389   0.157   7.377 -0.0482  0.0487 -0.9023
   56MOL    C4314453   0.297   0.251   7.349  0.2901 -0.0502 -0.3373
   56MOL    O4414454   0.310   0.359   7.393  0.8869 -0.2809 -0.2997
   56MOL    C4514455   0.195   0.217   7.245 -0.3260 -0.3960 -0.2002
   56MOL    C4614456   0.624   0.205   7.432 -0.4766  0.2283  0.7651
   56MOL    H4714457   0.465   0.238   7.555  0.9615  1.5051 -1.2391
   56MOL    H4814458   0.387   0.070   7.325 -0.7143 -1.3356  1.3669
   56MOL    H4914459   0.092   0.225   7.280 -0.2907  0.9627 -0.3593
   56MOL    H5014460   0.209   0.288   7.164 -1.2819 -1.0269 -0.9278
   56MOL    H5114461   0.211   0.119   7.202  2.9215 -0.1380  0.2851
   56MOL    H5214462   0.607   0.305   7.391 -1.4073 -0.3612 -0.3298
   56MOL    H5314463   0.685   0.213   7.521  0.7802 -1.0903  0.0394
   56MOL    C5414464   0.700   0.119   7.328 -0.9095 -0.0674 -0.2070
   56MOL    N5514465   0.825   0.080   7.383 -0.6131  0.2883 -0.6354
   56MOL    C5614466   0.875   7.796   7.401 -0.2103 -0.8142  0.0208
   56MOL    O5714467   0.829   7.697   7.355  0.3234 -0.1925 -0.2870
   56MOL    C5814468   1.011   7.785   7.480  0.1127 -0.5296  0.2540
   56MOL    C5914469   0.729   0.191   7.198 -0.5742  0.5406 -1.1284
   56MOL    H6014470   0.649   0.026   7.303 -1.7246 -0.5769  3.0610
   56MOL    H6114471   0.889   0.155   7.408 -0.2382 -0.7102  1.4697
   56MOL    H6214472   1.090   7.773   7.406  1.0855 -1.3494  1.4137
   56MOL    H6314473   1.037   0.039   7.530  0.6438 -0.6179  0.1492
   56MOL    H6414474   1.019   7.704   7.553  1.7367 -0.2130  0.4462
   56MOL    H6514475   0.763   0.291   7.226  0.2227  0.5802 -2.1893
   56MOL    H6614476   0.809   0.150   7.137  0.0161  3.0245 -2.1060
   56MOL    C6714477   0.611   0.196   7.096  0.2303  0.1311 -0.4633
   56MOL    N6814478   0.582   0.068   7.028 -0.0193  0.4663  0.5379
   56MOL    C6914479   0.482   7.830   7.048  0.4714  0.0025 -0.0553
   56MOL    O7014480   0.412   7.828   7.151  0.4452 -0.3955 -0.7862
   56MOL    C7114481   0.443   7.740   6.937  0.2569  0.1031 -0.1284
   56MOL    C7214482   0.646   0.292   6.975  0.4310 -0.5366  0.4006
   56MOL    H7314483   0.521   0.240   7.138 -1.4373 -1.2248 -2.5019
   56MOL    H7414484   0.638   0.039   6.950 -0.6034 -0.5768  0.4980
   56MOL    H7514485   0.399   7.794   6.853  0.8978  0.8929  0.0397
   56MOL    H7614486   0.531   7.694   6.893  0.5054  0.4217  0.0321
   56MOL    H7714487   0.371   7.668   6.977  0.0039  0.5729  0.2715
   56MOL    H7814488   0.729   0.252   6.916 -0.0352  1.0023 -1.3287
   56MOL    H7914489   0.559   0.294   6.909 -0.1110 -0.2730  1.1146
   56MOL    C8014490   0.689   0.439   7.015 -0.2243  0.0667 -0.0546
   56MOL    N8114491   0.627   0.536   6.926 -0.4568 -0.4291 -0.0397
   56MOL    C8214492   0.500   0.576   6.931  0.9592  0.0885  0.1938
   56MOL    O8314493   0.424   0.556   7.025 -0.1333 -0.5186 -0.4098
   56MOL    C8414494   0.455   0.669   6.813  1.0172 -0.3962 -0.0320
   56MOL    C8514495   0.846   0.443   7.022 -0.1801  0.7685 -0.6911
   56MOL    H8614496   0.650   0.446   7.116 -1.5431 -0.4623 -0.5113
   56MOL    H8714497   0.677   0.569   6.845  0.0022  0.3316  0.5564
   56MOL    H8814498   0.478   0.630   6.714 -1.1930  0.5481 -0.9657
   56MOL    H8914499   0.346   0.681   6.818  0.8914 -0.6541 -1.8976
   56MOL    H9014500   0.502   0.767   6.817 -0.6347  0.4434 -0.4196
   56MOL    H9114501   0.891   0.360   7.077 -0.4823 -0.2398 -1.9480
   56MOL    H9214502   0.888   0.440   6.922 -0.2513  0.5119 -0.7130
   56MOL    C9314503   0.884   0.582   7.083  0.0742 -0.6336  0.0832
   56MOL    N9414504   0.866   0.695   6.983 -0.3934  0.5045  0.0917
   56MOL    C9514505   0.875   0.824   7.017 -0.3922 -0.0104 -0.4755
   56MOL    O9614506   0.888   0.860   7.133  0.3431 -0.4257  0.0974
   56MOL    C9714507   0.859   0.930   6.904 -0.1273  0.8792 -0.1360
   56MOL    C9814508   1.037   0.577   7.123  0.0798 -0.4213  0.0179
   56MOL    H9914509   0.819   0.605   7.168 -1.7833 -1.5722 -1.0407
   56MOL   H10014510   0.854   0.667   6.887  1.7912  0.2904 -0.1507
   56MOL   H10114511   0.763   0.943   6.854  0.4875  1.1390 -1.2592
   56MOL   H10214512   0.874   1.024   6.956  1.5184  0.9777 -0.7374
   56MOL   H10314513   0.934   0.911   6.827 -0.9587 -1.6852 -0.3698
   56MOL   H10414514   1.094   0.553   7.033  1.2673 -0.0137  0.6612
   56MOL   H10514515   1.071   0.678   7.145 -1.2738  0.6275 -2.4045
   56MOL   C10614516   1.085   0.486   7.235  0.4667  0.4396  0.2279
   56MOL   N10714517   0.992   0.510   7.348  0.3279  0.0969  0.2317
   56MOL   C10814518   0.970   0.424   7.446 -0.3282 -0.3562 -0.0858
   56MOL   O10914519   1.006   0.306   7.432 -0.5333  0.4464 -0.2080
   56MOL   C11014520   0.887   0.472   7.563  0.4725  0.0510 -0.5364
   56MOL   C11114521   1.231   0.508   7.280 -0.3235 -1.0437  0.1428
   56MOL   H11214522   1.079   0.381   7.207 -0.0889  0.8727 -1.2868
   56MOL   H11314523   0.935   0.593   7.346  0.1843  0.0353  1.5825
   56MOL   H11414524   0.932   0.433   7.655  1.2377  2.3680  0.1014
   56MOL   H11514525   0.883   0.581   7.565  1.1288  0.0701  2.1507
   56MOL   H11614526   0.782   0.443   7.557  1.0571 -1.8913 -2.1397
   56MOL   H11714527   1.264   0.612   7.272 -1.4700 -0.6518  0.3945
   56MOL   H11814528   1.248   0.476   7.383  1.7876 -1.4060 -0.2817
   56MOL   C11914529   1.341   0.441   7.188 -0.4960 -0.1557  0.2668
   56MOL   N12014530   1.318   0.299   7.168  1.2615  0.2366  0.1750
   56MOL   C12114531   1.324   0.228   7.055  0.0280 -0.0037  0.0392
   56MOL   O12214532   1.337   0.279   6.944 -0.9986 -0.2656 -0.0685
   56MOL   C12314533   1.311   0.076   7.070  0.6864 -0.4235 -0.1722
   56MOL   C12414534   1.475   0.468   7.257 -0.1364 -0.0746  0.4188
   56MOL   H12514535   1.344   0.488   7.090  0.9819 -2.6877 -0.9703
   56MOL   H12614536   1.332   0.263   7.261  0.7966 -0.5629 -0.0646
   56MOL   H12714537   1.390   0.035   7.008  1.0047  1.8462 -1.3462
   56MOL   H12814538   1.306   0.042   7.173  2.2183  0.2679  0.1497
   56MOL   H12914539   1.220   0.047   7.017  0.7343  0.2917 -0.6653
   56MOL   H13014540   1.487   0.576   7.269  0.3557 -0.1122  0.2910
   56MOL   H13114541   1.466   0.438   7.361 -0.5478  1.1629  0.7559
   56MOL   C13214542   1.612   0.421   7.196  0.0212 -0.0759  0.2469
   56MOL   N13314543   1.711   0.409   7.302  0.4534  0.3552  0.3883
   56MOL   C13414544   1.711   0.308   7.390 -0.2692  0.2354  0.7718
   56MOL   O13514545   1.616   0.229   7.403 -0.2419 -0.5626  0.5877
   56MOL   C13614546   1.844   0.285   7.470 -0.0668 -0.5077  0.5508
   56MOL   C13714547   1.656   0.521   7.082  0.3695 -0.3754  0.4329
   56MOL   H13814548   1.598   0.323   7.152 -0.6301 -1.0307  2.5449
   56MOL   H13914549   1.796   0.464   7.305  1.4105 -1.0029 -1.1061
   56MOL   H14014550   1.909   0.372   7.479 -0.3846 -0.4815  3.0063
   56MOL   H14114551   1.827   0.244   7.569  0.3781 -0.5481  0.6133
   56MOL   H14214552   1.904   0.217   7.410 -1.3487  0.2579 -1.6507
   56MOL   H14314553   1.641   0.625   7.112 -0.9255 -0.7833  1.2312
   56MOL   H14414554   1.764   0.517   7.066  0.4175  1.1320  0.2980
   56MOL   C14514555   1.596   0.491   6.948 -0.5112 -0.1347  0.2716
   56MOL   N14614556   1.622   0.350   6.915  0.4530 -0.4050 -0.6374
   56MOL   C14714557   1.732   0.298   6.871 -1.0737 -0.4795 -0.5788
   56MOL   O14814558   1.835   0.362   6.847  1.0537 -0.5404  0.1087
   56MOL   C14914559   1.738   0.152   6.853 -0.1634 -0.2651 -0.5616
   56MOL   C15014560   1.649   0.586   6.837  0.2694  0.1367 -0.1300
   56MOL   H15114561   1.487   0.497   6.954 -0.4180 -0.8934  3.0723
   56MOL   H15214562   1.536   0.298   6.923 -0.1802  0.9041  1.4455
   56MOL   H15314563   1.657   0.126   6.786 -0.6025  0.8427 -0.4725
   56MOL   H15414564   1.839   0.125   6.822  0.2612 -1.2901  1.6388
   56MOL   H15514565   1.713   0.105   6.948 -0.7428 -1.8410 -1.4668
   56MOL   H15614566   1.752   0.616   6.854  0.5935 -1.5555  0.9820
   56MOL   H15714567   1.662   0.534   6.742  0.2872  0.1986 -0.1617
   56MOL   C15814568   1.573   0.719   6.811  0.9027  0.0187 -0.5702
   56MOL   N15914569   1.430   0.698   6.781 -0.6564  0.0636  0.2442
   56MOL   C16014570   1.322   0.707   6.862  0.1993  0.7087  0.2462
   56MOL   O16114571   1.329   0.720   6.981  0.6024  0.1437 -0.9772
   56MOL   C16214572   1.188   0.676   6.805  0.7546 -0.5665 -0.2266
   56MOL   C16314573   1.646   0.814   6.714 -0.4754 -0.5674  0.5552
   56MOL   H16414574   1.565   0.775   6.905  1.6426 -1.5663  0.4593
   56MOL   H16514575   1.420   0.671   6.684 -0.5772 -0.5558  0.4033
   56MOL   H16614576   1.115   0.711   6.878 -0.6747 -0.8031 -1.5178
   56MOL   H16714577   1.166   0.729   6.712 -1.0747 -2.6012 -0.9849
   56MOL   H16814578   1.189   0.571   6.775 -3.7600 -0.0383 -2.6275
   56MOL   H16914579   1.744   0.843   6.750 -0.0547 -1.1899 -0.0513
   56MOL   H17014580   1.678   0.750   6.631 -0.1982  1.0936 -0.6601
   56MOL   C17114581   1.574   0.945   6.657 -0.1279  0.2077 -0.2405
   56MOL   N17214582   1.511   0.911   6.529  0.5702 -0.3979 -0.7611
   56MOL   C17314583   1.426   0.992   6.470 -0.5772 -0.1629  0.5834
   56MOL   O17414584   1.371   1.082   6.537  0.0255  0.3507  0.5536
   56MOL   C17514585   1.389   0.967   6.324 -0.2973  0.4735 -0.4387
   56MOL   C17614586   1.664   1.071   6.641  0.2856  0.1080 -0.6798
   56MOL   H17714587   1.493   0.968   6.727 -0.8976 -0.2226 -0.9662
   56MOL   H17814588   1.531   0.825   6.479 -0.0827 -0.7629 -0.4044
   56MOL   H17914589   1.473   0.966   6.255 -0.4447  0.6773 -0.6182
   56MOL   H18014590   1.346   0.866   6.322  2.6456 -0.8909  1.4794
   56MOL   H18114591   1.320   1.048   6.301 -0.2333  1.2123  1.8229
   56MOL   H18214592   1.739   1.044   6.568  0.1248 -0.4651 -0.6352
   56MOL   H18314593   1.618   1.154   6.587 -1.3820  0.0814  0.6289
   56MOL   C18414594   1.730   1.122   6.767  0.5329  0.0291  0.2595
   56MOL   N18514595   1.642   1.121   6.880 -0.4171  0.0150 -0.6810
   56MOL   C18614596   1.669   1.045   6.994  0.5700 -0.1826  0.4762
   56MOL   O18714597   1.750   0.954   7.003  0.1506  0.3511 -0.0009
   56MOL   C18814598   1.581   1.079   7.110 -0.5818  0.1354  0.0172
   56MOL   C18914599   1.795   1.265   6.757  0.0855  0.1257  0.6717
   56MOL   H19014600   1.813   1.055   6.790  0.9754  0.0528 -1.2019
   56MOL   H19114601   1.559   1.179   6.876 -0.2327  0.4540  1.5287
   56MOL   H19214602   1.587   1.188   7.116 -0.8953  0.0709  1.6947
   56MOL   H19314603   1.476   1.058   7.092 -0.2406 -1.0028 -0.6682
   56MOL   H19414604   1.612   1.037   7.206 -0.6868  0.4415  0.1871
   56MOL   H19514605   1.885   1.270   6.818  0.5991  0.1110 -0.0716
   56MOL   H19614606   1.831   1.277   6.655 -0.9565  1.2976  0.4233
   56MOL   C19714607   1.714   1.391   6.799 -0.4545  0.0968 -0.4696
   56MOL   N19814608   1.611   1.428   6.697  0.0936  0.0418  0.0744
   56MOL   C19914609   1.483   1.391   6.710  0.1652 -0.2186 -0.3336
   56MOL   O20014610   1.439   1.326   6.803  0.3586 -0.1882  0.4371
   56MOL   C20114611   1.388   1.438   6.596 -0.0606  0.1298  0.2030
   56MOL   C20214612   1.800   1.515   6.830 -0.1394  0.3301  0.1539
   56MOL   H20314613   1.673   1.380   6.899  1.7814 -1.2182  0.3548
   56MOL   H20414614   1.637   1.491   6.622 -1.5943  0.6071 -0.0449
   56MOL   H20514615   1.426   1.525   6.543 -0.8110 -1.1280 -2.4475
   56MOL   H20614616   1.387   1.349   6.533  0.6495 -0.4467  0.9837
   56MOL   H20714617   1.286   1.462   6.625 -0.3447 -0.8306  0.0106
   56MOL   H20814618   1.873   1.483   6.904  0.8825  1.5517 -0.3220
   56MOL   H20914619   1.857   1.532   6.739 -0.0449  1.7071  0.4578
   56MOL   C21014620   1.721   1.643   6.864 -0.1488 -0.1133 -0.5546
   56MOL   N21114621   1.801   1.761   6.841 -0.2009  0.0339  0.2020
   56MOL   C21214622   1.915   1.798   6.905  1.0308 -0.2650  0.0424
   56MOL   O21314623   1.969   1.723   6.986 -0.2790 -0.2407 -0.5342
   56MOL   C21414624   1.976   1.929   6.874 -0.3056 -0.5904  0.1555
   56MOL   C21514625   1.657   1.646   7.006  0.1004 -0.1811 -0.3024
   56MOL   H21614626   1.646   1.650   6.786  1.8819 -0.7159 -2.6192
   56MOL   H21714627   1.757   1.827   6.779  0.7513 -1.3511 -2.0032
   56MOL   H21814628   2.007   1.966   6.971  1.8689 -0.7571 -0.4515
   56MOL   H21914629   2.057   1.910   6.804  0.1957 -1.5151  0.9810
   56MOL   H22014630   1.905   2.000   6.832 -1.3626 -2.4711 -1.3617
   56MOL   H22114631   1.629   1.547   7.042  1.6622 -0.6607 -0.3675
   56MOL   H22214632   1.731   1.688   7.074 -0.0855  0.6936 -0.6380
   56MOL   C22314633   1.534   1.739   7.014 -0.0384  0.3975 -0.0727
   56MOL   N22414634   1.518   1.795   7.151 -0.0035  0.6211 -0.7853
   56MOL   C22514635   1.533   1.923   7.180  0.5965 -0.2145 -0.1908
   56MOL   O22614636   1.586   2.004   7.106 -0.0560  0.7592  0.5327
   56MOL   C22714637   1.494   1.957   7.326  0.5920 -0.3830 -0.0069
   56MOL   C22814638   1.413   1.662   6.960 -0.2284  0.4173  0.0937
   56MOL   H22914639   1.544   1.820   6.942  1.3260  0.6559  0.3994
   56MOL   H23014640   1.478   1.733   7.219  1.4093  1.1981  0.5946
   56MOL   H23114641   1.533   2.058   7.340  0.0070 -0.3507  1.4511
   56MOL   H23214642   1.386   1.959   7.341  0.4076  0.2880 -1.2938
   56MOL   H23314643   1.545   1.886   7.392  0.9349 -1.0653 -0.9869
   56MOL   H23414644   1.421   1.613   6.863 -4.0031  3.0598 -1.6728
   56MOL   H23514645   1.389   1.582   7.030 -0.2882 -0.8032 -1.2930
   56MOL   C23614646   1.293   1.751   6.915  0.1008 -0.2965 -0.0093
   56MOL   N23714647   1.244   1.840   7.026  0.0769  0.1608  0.3264
   56MOL   C23814648   1.235   1.971   7.013  0.0349 -0.2485  0.0138
   56MOL   O23914649   1.253   2.021   6.905 -0.9706  0.3350 -0.2233
   56MOL   C24014650   1.190   2.055   7.129 -0.5550 -0.1003 -0.3107
   56MOL   C24114651   1.173   1.661   6.874  0.8736 -0.3951  0.3930
   56MOL   H24214652   1.330   1.810   6.832  2.8675 -1.4026  0.3932
   56MOL   H24314653   1.227   1.795   7.115 -2.2766  0.9811  0.3285
   56MOL   H24414654   1.084   2.080   7.121 -0.7678 -0.3282  1.6560
   56MOL   H24514655   1.182   2.000   7.223 -0.1585  0.8916  0.3180
   56MOL   H24614656   1.252   2.145   7.132 -0.0627 -0.4794  1.5465
   56MOL   H24714657   1.181   1.626   6.771  0.2016  1.0896 -0.1691
   56MOL   H24814658   1.177   1.569   6.934 -0.1491 -0.9507 -0.3683
   56MOL   C24914659   1.024   1.709   6.865  0.3288 -0.4507  0.3466
   56MOL   N25014660   1.024   1.832   6.788 -0.0978 -0.5611 -0.0150
   56MOL   C25114661   0.924   1.886   6.702 -0.0293  0.0767 -0.1460
   56MOL   O25214662   0.823   1.822   6.699  0.6470 -0.4011 -0.5400
   56MOL   C25314663   0.958   2.010   6.617 -0.4505  0.1017  0.1701
   56MOL   C25414664   0.944   1.722   6.994 -0.3392 -0.2019 -0.1543
   56MOL   H25514665   0.980   1.633   6.800  1.6829 -1.1677  0.2390
   56MOL   H25614666   1.110   1.886   6.786 -0.1634 -0.4616 -0.1926
   56MOL   H25714667   0.883   2.029   6.540  1.8302  0.7000 -2.0059
   56MOL   H25814668   0.954   2.093   6.688  0.3467 -1.0683  1.6008
   56MOL   H25914669   1.053   1.997   6.565 -0.7433  1.8254 -0.8395
   56MOL   H26014670   0.998   1.794   7.056 -1.3728 -0.6080  1.2304
   56MOL   H26114671   0.843   1.757   6.972 -0.0267  0.2287 -0.9487
   56MOL   H26214672   0.929   1.624   7.038  1.1819  0.3488  1.6280
   57MOL     C114673   6.419   3.149   7.614 -0.0694 -0.2121 -0.5709
   57MOL     N214674   6.291   3.195   7.565  0.3940 -0.0424  0.0461
   57MOL     C314675   6.199   3.253   7.646  0.2268 -0.2138  0.1918
   57MOL     O414676   6.231   3.283   7.762 -0.2800 -0.0605  0.5540
   57MOL     C514677   6.069   3.299   7.589 -0.6333  0.3802  0.3429
   57MOL     C614678   6.401   3.016   7.698 -0.0776 -0.3902 -0.1067
   57MOL     H714679   6.479   3.136   7.524  0.2634 -1.2380 -0.2012
   57MOL     H814680   6.264   3.180   7.469 -0.5652 -2.0371  0.6151
   57MOL     H914681   6.018   3.212   7.547  1.0515 -0.3791 -0.1812
   57MOL    H1014682   5.994   3.337   7.658 -1.2377  1.5606 -0.9536
   57MOL    H1114683   6.086   3.376   7.514  0.9354 -0.3782 -0.1059
   57MOL    H1214684   6.318   3.025   7.768  1.3786 -1.0046  1.7476
   57MOL    H1314685   6.365   2.937   7.632  0.3475 -0.2606 -0.4917
   57MOL    H1414686   6.464   3.231   7.671 -0.0628 -0.5781 -0.0522
   57MOL    C1514687   6.543   2.979   7.761 -0.5531  0.5133 -0.2692
   57MOL    N1614688   6.635   2.958   7.651  0.2854 -0.0643  0.8442
   57MOL    C1714689   6.751   3.016   7.617  0.1734  0.3539  0.3059
   57MOL    O1814690   6.792   3.117   7.673 -0.8795  0.0216 -0.3100
   57MOL    C1914691   6.829   2.946   7.507 -0.2259 -0.5109 -0.5730
   57MOL    C2014692   6.529   2.857   0.011  0.5680  0.5418 -0.1762
   57MOL    H2114693   6.573   3.067   7.818  1.4269  0.1608 -0.7374
   57MOL    H2214694   6.611   2.878   7.594  2.9455  0.5100 -1.1497
   57MOL    H2314695   6.837   2.839   7.521 -0.6172 -0.5982 -1.0199
   57MOL    H2414696   6.771   2.967   7.417 -2.8163  1.1444  1.4016
   57MOL    H2514697   6.921   3.003   7.494  0.8923 -2.6836 -2.5685
   57MOL    H2614698   6.599   2.875   0.092 -0.0152  1.0800  0.2109
   57MOL    H2714699   6.437   2.855   0.070 -1.1443  1.6808 -2.7273
   57MOL    C2814700   6.545   2.714   7.781 -0.2424  0.2230 -0.1816
   57MOL    N2914701   6.442   2.695   7.682 -0.3939  0.1965  0.1483
   57MOL    C3014702   6.451   2.680   7.549  0.0344 -0.1373 -0.4103
   57MOL    O3114703   6.554   2.714   7.491  0.1770 -0.8478  0.0326
   57MOL    C3214704   6.325   2.649   7.476 -0.0847  0.6178  0.1578
   57MOL    C3314705   6.555   2.606   0.045  0.4203 -0.1303  0.3739
   57MOL    H3414706   6.644   2.711   7.735 -0.3780 -2.1377 -0.4101
   57MOL    H3514707   6.349   2.690   7.721 -0.9869 -1.2186 -1.4150
   57MOL    H3614708   6.249   2.708   7.528 -0.5595  1.2362 -1.2158
   57MOL    H3714709   6.333   2.690   7.375 -4.6075 -0.9973 -0.9737
   57MOL    H3814710   6.298   2.546   7.454  0.1232  0.6982 -0.4746
   57MOL    H3914711   6.621   2.649   0.121  0.4847  0.4574 -0.0056
   57MOL    H4014712   6.455   2.594   0.085  0.1683 -0.5150 -0.3688
   57MOL    C4114713   6.609   2.462   0.011 -0.4639 -1.1924  0.0003
   57MOL    N4214714   6.732   2.477   7.772  0.5841  0.1571  0.2241
   57MOL    C4314715   6.859   2.460   7.805  0.5841  0.3618  0.0084
   57MOL    O4414716   6.904   2.433   0.077 -0.3181 -0.0052  0.0640
   57MOL    C4514717   6.962   2.486   7.698 -0.0428  0.0129  0.9416
   57MOL    C4614718   6.507   2.369   7.770  0.8300  0.1540  0.3145
   57MOL    H4714719   6.634   2.420   0.109 -2.4262  0.2457  1.1656
   57MOL    H4814720   6.713   2.505   7.677  0.0367  1.8108  0.8173
   57MOL    H4914721   6.964   2.593   7.678  2.1485 -0.1805 -0.0337
   57MOL    H5014722   7.066   2.463   7.723 -0.0268 -1.3081 -0.3164
   57MOL    H5114723   6.927   2.451   7.601  2.1687  1.8016 -0.5725
   57MOL    H5214724   6.482   2.416   7.676 -0.7168  1.4362  1.3374
   57MOL    H5314725   6.567   2.282   7.741 -0.4213 -0.1250 -1.4785
   57MOL    C5414726   6.383   2.322   0.005  1.2924  1.2689 -0.3522
   57MOL    N5514727   6.375   2.172   0.016  0.1891 -0.1207 -0.2541
   57MOL    C5614728   6.448   2.100   0.097  0.4796  1.6632  0.4233
   57MOL    O5714729   6.434   1.984   0.112  0.2185 -0.1153 -0.2809
   57MOL    C5814730   6.554   2.164   0.183  0.3448 -0.0282  0.1739
   57MOL    C5914731   6.246   2.376   7.773  0.0600 -0.4406  0.0249
   57MOL    H6014732   6.381   2.370   0.103 -0.0927 -0.2688  0.3943
   57MOL    H6114733   6.305   2.115   7.810  1.6061 -2.6298  0.5522
   57MOL    H6214734   6.509   2.241   0.246 -1.1392  0.6244 -1.6357
   57MOL    H6314735   6.615   2.096   0.242  0.8696  0.6290  0.3927
   57MOL    H6414736   6.622   2.220   0.120  1.4727 -2.0840 -0.4905
   57MOL    H6514737   6.274   2.464   7.715 -2.9578  0.8679  0.4658
   57MOL    H6614738   6.200   2.304   7.705 -1.1101 -1.0305  1.3964
   57MOL    C6714739   6.129   2.407   0.030  0.1070  1.0521 -0.2770
   57MOL    N6814740   6.148   2.531   0.109 -0.0919 -0.2414 -0.3252
   57MOL    C6914741   6.157   2.659   0.060 -0.2636 -0.3057  0.3033
   57MOL    O7014742   6.182   2.679   7.779 -0.0713  0.2855  0.5622
   57MOL    C7114743   6.135   2.772   0.162  0.0136  0.5882  0.2141
   57MOL    C7214744   6.103   2.279   0.125  0.5670  0.1389 -0.0175
   57MOL    H7314745   6.041   2.428   7.810  0.9364  1.7783 -1.2561
   57MOL    H7414746   6.127   2.522   0.208  1.1827 -3.7091 -0.2968
   57MOL    H7514747   6.049   2.751   0.226 -1.0550  1.0946 -1.0322
   57MOL    H7614748   6.212   2.782   0.238 -0.9927 -1.3488  1.5279
   57MOL    H7714749   6.116   2.862   0.103  1.0242  1.6269  1.4723
   57MOL    H7814750   6.115   2.186   0.070 -0.9234 -0.2359  0.2600
   57MOL    H7914751   6.176   2.285   0.206 -0.5454  1.6330  0.9223
   57MOL    C8014752   5.962   2.286   0.190 -0.1766 -0.2213 -0.0848
   57MOL    N8114753   5.969   2.274   0.330 -0.4221 -0.4366  0.3899
   57MOL    C8214754   5.981   2.382   0.412  0.3599  0.3713 -0.2246
   57MOL    O8314755   6.018   2.494   0.368  0.0739 -0.1550  0.3267
   57MOL    C8414756   5.959   2.351   0.560  0.7553  0.5741 -0.6754
   57MOL    C8514757   5.866   2.171   0.155 -0.1935  0.1159  0.2531
   57MOL    H8614758   5.918   2.384   0.169  1.1783  0.0253 -1.8498
   57MOL    H8714759   5.936   2.187   0.370 -1.6114 -0.1542  0.0347
   57MOL    H8814760   5.900   2.428   0.610  1.4623  0.7232 -0.0744
   57MOL    H8914761   5.896   2.264   0.577 -1.5171  2.3524  0.3681
   57MOL    H9014762   6.050   2.343   0.619  0.6718  0.5761 -0.5474
   57MOL    H9114763   5.884   2.159   0.048  1.4308  2.2166  0.2375
   57MOL    H9214764   5.901   2.079   0.203  1.6015 -0.4326 -2.0277
   57MOL    C9314765   5.719   2.214   0.189 -0.3196 -0.4724  0.3946
   57MOL    N9414766   5.642   2.093   0.223 -0.4820 -0.3002 -0.2734
   57MOL    C9514767   5.649   2.035   0.343  0.6578 -0.0299 -0.5562
   57MOL    O9614768   5.728   2.075   0.428  0.8607  0.0909 -0.1828
   57MOL    C9714769   5.559   1.920   0.372  0.5187 -0.3094 -0.1260
   57MOL    C9814770   5.650   2.268   0.060 -0.1723  0.3715  0.4823
   57MOL    H9914771   5.722   2.281   0.274 -0.5957  0.3497 -0.2436
   57MOL   H10014772   5.569   2.063   0.160 -0.9845 -0.7259  0.4926
   57MOL   H10114773   5.610   1.841   0.426 -0.4825 -0.3609  0.7566
   57MOL   H10214774   5.483   1.960   0.440  0.5950  1.2650 -0.9411
   57MOL   H10314775   5.509   1.884   0.282 -0.1795  0.4739 -0.0600
   57MOL   H10414776   5.661   2.206   7.811  1.2233  0.5040  0.5531
   57MOL   H10514777   5.544   2.287   0.080  0.3009  2.5441  1.0618
   57MOL   C10614778   5.695   2.405   0.016 -0.5679  0.4955 -0.0274
   57MOL   N10714779   5.689   2.497   0.131 -0.4512  0.2954  0.3798
   57MOL   C10814780   5.757   2.606   0.161 -0.0475 -0.4143 -0.8424
   57MOL   O10914781   5.843   2.657   0.097  0.2349 -0.0110  0.1677
   57MOL   C11014782   5.724   2.661   0.296  0.4336  1.0518  0.0455
   57MOL   C11114783   5.607   2.445   7.736 -0.5921 -0.1400 -0.3830
   57MOL   H11214784   5.796   2.391   7.818 -1.6752 -0.4263 -2.7997
   57MOL   H11314785   5.609   2.481   0.190 -1.1565  2.4452  0.0590
   57MOL   H11414786   5.716   2.585   0.374  0.1332  3.4765  2.4706
   57MOL   H11514787   5.809   2.722   0.327  2.1587 -0.5488 -1.4328
   57MOL   H11614788   5.635   2.723   0.290  0.6104  1.1084 -2.1085
   57MOL   H11714789   5.504   2.418   7.759 -0.5313  1.8112  2.4399
   57MOL   H11814790   5.600   2.554   7.738  0.7912 -0.0471  0.1331
   57MOL   C11914791   5.648   2.390   7.599 -0.2839 -0.3695  0.2254
   57MOL   N12014792   5.774   2.443   7.556 -0.2163  0.5125  1.0712
   57MOL   C12114793   5.886   2.375   7.515  0.3236 -0.2716  0.3402
   57MOL   O12214794   5.889   2.255   7.486 -0.7080 -0.5160  0.1468
   57MOL   C12314795   6.017   2.452   7.512  0.0251 -0.4009  0.3103
   57MOL   C12414796   5.538   2.409   7.493  0.3098 -0.1812 -0.0712
   57MOL   H12514797   5.662   2.283   7.613 -1.1689 -0.7321 -1.5038
   57MOL   H12614798   5.793   2.542   7.556 -0.4467  0.5661 -0.1676
   57MOL   H12714799   5.998   2.531   7.586 -1.5999  0.8395 -1.3799
   57MOL   H12814800   6.100   2.388   7.541  1.9942  1.6628 -0.6210
   57MOL   H12914801   6.033   2.493   7.412 -0.8280 -1.6176 -0.3314
   57MOL   H13014802   5.440   2.407   7.541 -0.2327 -2.8180 -1.2215
   57MOL   H13114803   5.545   2.510   7.452 -2.1547 -0.2114 -0.6081
   57MOL   C13214804   5.527   2.316   7.369  0.8115 -0.2868 -0.5634
   57MOL   N13314805   5.409   2.349   7.288 -1.2835 -0.8136 -0.3722
   57MOL   C13414806   5.407   2.447   7.203  0.4521  0.0774 -0.0653
   57MOL   O13514807   5.506   2.504   7.158 -0.3132  0.2564  0.7920
   57MOL   C13614808   5.270   2.471   7.141  0.7672 -0.1803 -0.7709
   57MOL   C13714809   5.530   2.168   7.411 -0.7628 -0.2305  0.2138
   57MOL   H13814810   5.614   2.340   7.308  1.3107  0.7863  0.5518
   57MOL   H13914811   5.330   2.298   7.326 -1.1690 -0.9883 -0.3672
   57MOL   H14014812   5.265   2.569   7.092  0.9516 -0.4684 -1.3765
   57MOL   H14114813   5.248   2.385   7.077 -0.7039  1.1219 -2.0555
   57MOL   H14214814   5.197   2.468   7.222 -0.5324  1.0549 -1.8582
   57MOL   H14314815   5.629   2.146   7.452 -0.1628  1.2610 -0.4243
   57MOL   H14414816   5.468   2.147   7.498  0.3593  1.0621  1.3465
   57MOL   C14514817   5.495   2.061   7.300 -0.7814 -0.3530 -0.5609
   57MOL   N14614818   5.390   1.972   7.349  0.2580  0.3698  0.5010
   57MOL   C14714819   5.261   1.999   7.371 -0.0787 -0.2995 -0.6590
   57MOL   O14814820   5.219   2.115   7.370 -0.6525 -0.4284 -0.3669
   57MOL   C14914821   5.159   1.880   7.384 -0.9069 -0.2044  0.1736
   57MOL   C15014822   5.615   1.984   7.235 -0.1674  0.2591 -0.2230
   57MOL   H15114823   5.453   2.119   7.218 -0.7813 -0.0584 -0.3541
   57MOL   H15214824   5.423   1.877   7.357  2.2875  0.7936 -2.0812
   57MOL   H15314825   5.114   1.851   7.290  1.1721 -3.4984  0.0982
   57MOL   H15414826   5.206   1.795   7.434 -0.1992 -0.1774 -0.4416
   57MOL   H15514827   5.078   1.910   7.451 -0.4905 -0.4121  0.7780
   57MOL   H15614828   5.677   1.934   7.310 -0.3478 -0.1690 -0.3634
   57MOL   H15714829   5.576   1.910   7.166  2.3223 -1.6966  0.4110
   57MOL   C15814830   5.710   2.081   7.148 -0.1019  0.4482 -0.5437
   57MOL   N15914831   5.672   2.075   7.000 -0.4930 -0.2189  0.1939
   57MOL   C16014832   5.640   2.172   6.910 -0.7019  0.7547  0.2786
   57MOL   O16114833   5.625   2.291   6.945  0.1567 -0.2369  0.3155
   57MOL   C16214834   5.630   2.125   6.765  0.0437 -0.7538 -1.5566
   57MOL   C16314835   5.857   2.029   7.162  0.4401  0.5903  0.0524
   57MOL   H16414836   5.710   2.183   7.184  1.5632  1.3475 -2.9590
   57MOL   H16514837   5.696   1.986   6.959  2.6602 -0.6592  2.7604
   57MOL   H16614838   5.731   2.145   6.726  0.9598 -0.8760  0.7130
   57MOL   H16714839   5.600   2.021   6.757 -0.3607 -0.5212 -3.3288
   57MOL   H16814840   5.545   2.173   6.715 -0.4995  0.2491  0.2947
   57MOL   H16914841   5.885   2.040   7.267 -1.7413 -1.2697  0.8983
   57MOL   H17014842   5.851   1.920   7.167 -1.6738  0.7459  1.7952
   57MOL   C17114843   5.967   2.074   7.056  0.1723  0.3949 -0.0988
   57MOL   N17214844   6.105   2.023   7.091  0.6315  0.0291  0.3795
   57MOL   C17314845   6.190   1.968   7.003  1.2347 -0.1608 -0.8100
   57MOL   O17414846   6.175   1.959   6.883  0.4447 -0.3650  0.2489
   57MOL   C17514847   6.321   1.922   7.063  0.1067 -0.6128 -0.2899
   57MOL   C17614848   5.972   2.227   7.042  0.1829 -0.4140  0.2177
   57MOL   H17714849   5.933   2.026   6.964 -2.4288  1.9570  0.0085
   57MOL   H17814850   6.125   2.039   7.189  0.3408 -0.3378  0.5006
   57MOL   H17914851   6.300   1.845   7.137 -1.3912  1.0779  1.0896
   57MOL   H18014852   6.396   1.886   6.992 -1.3887  0.4698 -2.4676
   57MOL   H18114853   6.362   2.008   7.115  2.2212 -0.3411 -2.3119
   57MOL   H18214854   5.877   2.270   7.009  0.7244 -0.5069 -1.5384
   57MOL   H18314855   5.993   2.268   7.141  2.6438 -0.6019 -0.1966
   57MOL   C18414856   6.084   2.286   6.950  0.4839 -0.3072 -0.0376
   57MOL   N18514857   6.087   2.430   6.968 -0.3034 -0.0660 -0.3385
   57MOL   C18614858   6.147   2.491   7.070 -0.0097  0.3755 -0.4280
   57MOL   O18714859   6.196   2.434   7.166  0.3484  0.0868 -0.2911
   57MOL   C18814860   6.153   2.644   7.060 -0.5213  0.1029 -0.6542
   57MOL   C18914861   6.057   2.260   6.800 -0.3555  0.5787 -0.6218
   57MOL   H19014862   6.181   2.237   6.958  0.6473  0.1456  0.8481
   57MOL   H19114863   6.038   2.479   6.894 -1.2489 -0.2718  0.1455
   57MOL   H19214864   6.057   2.696   7.065 -0.2908  0.4825 -0.2162
   57MOL   H19314865   6.227   2.695   7.120 -1.6065  1.3726 -0.3756
   57MOL   H19414866   6.186   2.671   6.959  1.1261  0.2123 -0.0886
   57MOL   H19514867   5.999   2.169   6.784  1.4272 -0.4103 -1.5476
   57MOL   H19614868   5.996   2.343   6.764 -0.4697  0.2672 -1.1501
   57MOL   C19714869   6.192   2.264   6.712 -0.2741 -0.7826 -0.2571
   57MOL   N19814870   6.247   2.407   6.712 -0.1614  0.2175 -0.1752
   57MOL   C19914871   6.372   2.442   6.727 -0.8446 -0.2133  0.3090
   57MOL   O20014872   6.463   2.366   6.741 -0.6681  0.1054  0.3776
   57MOL   C20114873   6.402   2.592   6.703 -0.2677  0.1017 -0.1426
   57MOL   C20214874   6.192   2.206   6.567  0.4496 -0.0833 -0.1340
   57MOL   H20314875   6.262   2.201   6.767 -0.7275  0.1782  1.4566
   57MOL   H20414876   6.181   2.483   6.701 -0.9632 -0.4676 -0.2399
   57MOL   H20514877   6.417   2.645   6.798  0.3795  0.1249 -0.2591
   57MOL   H20614878   6.494   2.611   6.649 -0.5632 -0.5836 -0.8913
   57MOL   H20714879   6.320   2.639   6.648 -0.6216  0.8025  0.9411
   57MOL   H20814880   6.094   2.227   6.525  0.4124 -0.1970 -0.1025
   57MOL   H20914881   6.263   2.256   6.501  1.8848 -1.8716  0.0098
   57MOL   C21014882   6.207   2.055   6.528 -0.2481 -0.1444 -0.6694
   57MOL   N21114883   6.338   2.011   6.581 -0.0030 -1.1430 -0.7884
   57MOL   C21214884   6.376   1.886   6.604  0.3516  0.6372 -0.3675
   57MOL   O21314885   6.301   1.789   6.586 -0.2948  0.7724  0.0684
   57MOL   C21414886   6.520   1.870   6.645 -0.0449  0.1041 -0.4371
   57MOL   C21514887   6.183   2.040   6.378  1.2916  0.0590  0.6521
   57MOL   H21614888   6.136   1.992   6.582  0.0471  0.0117 -0.0940
   57MOL   H21714889   6.404   2.085   6.602 -2.5353  1.6575 -2.4540
   57MOL   H21814890   6.589   1.955   6.640 -1.9701  1.7025 -0.6384
   57MOL   H21914891   6.526   1.827   6.745 -0.0205  1.6969  0.2626
   57MOL   H22014892   6.559   1.790   6.583  1.3706 -0.2101  0.8263
   57MOL   H22114893   6.081   2.076   6.367  0.9149 -1.0230  0.5797
   57MOL   H22214894   6.254   2.108   6.329  0.9612 -0.9510 -1.2863
   57MOL   C22314895   6.186   1.902   6.307  0.4434  1.0518  0.2766
   57MOL   N22414896   6.117   1.791   6.386 -0.9865  0.4944  0.1283
   57MOL   C22514897   5.993   1.743   6.366 -0.0321 -0.1266 -0.3904
   57MOL   O22614898   5.905   1.797   6.303 -0.1901 -0.1905 -0.1450
   57MOL   C22714899   5.959   1.625   6.451  0.2030  1.3627  0.0024
   57MOL   C22814900   6.325   1.862   6.256  0.1016 -0.3205 -0.0603
   57MOL   H22914901   6.119   1.911   6.222 -0.3406 -2.8141  0.4049
   57MOL   H23014902   6.177   1.758   6.460  1.6921 -0.1014 -2.2425
   57MOL   H23114903   6.022   1.621   6.540  0.1952 -3.0439 -0.0560
   57MOL   H23214904   5.857   1.636   6.488  0.1587  1.4493 -0.1437
   57MOL   H23314905   5.963   1.526   6.404  0.5211 -0.0669  2.9226
   57MOL   H23414906   6.388   1.868   6.345  2.1053 -0.0012 -1.4522
   57MOL   H23514907   6.321   1.757   6.228  0.0475 -0.1632 -0.6633
   57MOL   C23614908   6.379   1.932   6.134  0.1782 -0.1761  0.1349
   57MOL   N23714909   6.295   1.912   6.013 -0.5800 -0.2545  0.3419
   57MOL   C23814910   6.212   1.997   5.956 -0.7065 -0.0907  0.2906
   57MOL   O23914911   6.207   2.115   5.984  0.1348 -0.2208  0.1167
   57MOL   C24014912   6.124   1.955   5.837 -0.1765  0.1921 -0.9940
   57MOL   C24114913   6.519   1.884   6.090  0.0165  0.1490 -0.7431
   57MOL   H24214914   6.387   2.037   6.161  1.3198  0.1863 -1.5651
   57MOL   H24314915   6.278   1.817   5.984  0.0811  0.5156 -2.6603
   57MOL   H24414916   6.025   2.000   5.836 -0.7955 -0.9903  2.2637
   57MOL   H24514917   6.172   1.967   5.739 -2.3131 -0.4308 -2.1484
   57MOL   H24614918   6.108   1.847   5.837  0.7104  0.0535 -1.3457
   57MOL   H24714919   6.519   1.777   6.067 -0.2947 -0.2225  0.9480
   57MOL   H24814920   6.540   1.929   5.993  1.0547  2.4549  0.5030
   57MOL   C24914921   6.637   1.931   6.181  0.1907 -0.8823  0.1072
   57MOL   N25014922   6.764   1.936   6.111  0.2802  0.6136 -0.1872
   57MOL   C25114923   6.797   2.027   6.023  0.1420  0.0402 -0.0594
   57MOL   O25214924   6.725   2.124   5.999  0.5365  0.2941  0.0456
   57MOL   C25314925   6.934   2.021   5.962 -0.5886  0.3746  0.0742
   57MOL   C25414926   6.663   1.835   6.297 -0.2987  0.1270 -0.0729
   57MOL   H25514927   6.610   2.032   6.213 -1.6312 -1.0012 -0.9723
   57MOL   H25614928   6.836   1.865   6.120  0.8764  0.8794 -2.5318
   57MOL   H25714929   6.945   2.077   5.869  0.4474 -1.0590 -0.7005
   57MOL   H25814930   6.998   2.064   6.039 -1.4831 -0.8258  1.5326
   57MOL   H25914931   6.974   1.923   5.937 -0.0815  0.3601  0.9215
   57MOL   H26014932   6.599   1.846   6.384 -0.6351  1.8118 -0.5062
   57MOL   H26114933   6.643   1.733   6.264 -0.0963 -0.1880  0.7789
   57MOL   H26214934   6.758   1.838   6.350  0.2940  1.3452 -1.1571
   58MOL     C114935   0.245   2.485   3.217  0.2757 -0.0256  0.1427
   58MOL     N214936   0.209   2.620   3.193 -0.0632 -0.0496  0.5986
   58MOL     C314937   0.097   2.657   3.144  0.0761 -0.1002  0.0657
   58MOL     O414938   0.012   2.574   3.114  0.0339  0.4048  0.4238
   58MOL     C514939   0.075   2.812   3.135 -0.2112  0.1394 -0.2803
   58MOL     C614940   0.184   2.422   3.347  0.3031  0.7451 -0.3340
   58MOL     H714941   0.238   2.422   3.129 -3.7114  0.7583 -0.1849
   58MOL     H814942   0.270   2.695   3.223 -0.4078  1.0978 -1.4729
   58MOL     H914943   0.155   2.874   3.176  0.1303 -1.3932  1.4180
   58MOL    H1014944   0.055   2.819   3.028 -0.5650  2.5335 -0.1005
   58MOL    H1114945   7.824   2.838   3.189 -0.7460 -0.1947 -1.0085
   58MOL    H1214946   0.238   2.457   3.435  1.4778  0.1818 -0.8218
   58MOL    H1314947   0.077   2.439   3.353  0.1380 -0.5320  0.3911
   58MOL    H1414948   0.352   2.498   3.232  0.3444 -0.4519  0.0158
   58MOL    C1514949   0.208   2.269   3.352  0.5617  0.0531  0.0321
   58MOL    N1614950   0.181   2.213   3.489  0.6192 -0.1766 -0.4935
   58MOL    C1714951   0.074   2.138   3.523  0.2470  0.1918 -0.6654
   58MOL    O1814952   7.819   2.120   3.450  0.7094 -0.0370  0.5420
   58MOL    C1914953   0.080   2.076   3.665  1.0056 -0.0018  0.6915
   58MOL    C2014954   0.348   2.218   3.313 -0.0234  0.1048 -0.1417
   58MOL    H2114955   0.136   2.220   3.287 -0.4645 -0.2849  1.3906
   58MOL    H2214956   0.243   2.238   3.564 -1.6525  2.1809  0.6948
   58MOL    H2314957   0.014   2.132   3.731 -1.3504 -1.8782 -0.0159
   58MOL    H2414958   0.039   1.975   3.663 -0.1842  0.4916 -1.8031
   58MOL    H2514959   0.177   2.080   3.714  1.7579 -1.9884 -0.5848
   58MOL    H2614960   0.347   2.111   3.292  1.3471  0.2677 -1.0446
   58MOL    H2714961   0.368   2.257   3.214 -0.3545  0.6629  0.0044
   58MOL    C2814962   0.474   2.256   3.394 -0.5295  0.0204  0.2240
   58MOL    N2914963   0.593   2.269   3.308 -0.2479 -0.5109  0.4239
   58MOL    C3014964   0.658   2.384   3.273 -0.4980  0.6351 -0.4415
   58MOL    O3114965   0.629   2.497   3.313  0.0592 -0.2942 -0.0256
   58MOL    C3214966   0.768   2.378   3.159 -0.1839  0.3231  0.4129
   58MOL    C3314967   0.494   2.146   3.498  0.6817 -0.0574 -0.2470
   58MOL    H3414968   0.458   2.353   3.441  0.3235  0.3869 -0.2414
   58MOL    H3514969   0.626   2.185   3.261 -1.1442 -0.5593 -0.1267
   58MOL    H3614970   0.759   2.300   3.084  2.3274 -0.5882  1.0255
   58MOL    H3714971   0.771   2.477   3.112  1.6338  0.6016  1.0871
   58MOL    H3814972   0.866   2.367   3.205 -0.4664 -1.9615  0.5127
   58MOL    H3914973   0.405   2.117   3.553  0.9639 -3.0456 -1.2341
   58MOL    H4014974   0.529   2.057   3.445  1.3412 -2.3218  3.7679
   58MOL    C4114975   0.604   2.163   3.606  0.2769 -0.8232 -0.4874
   58MOL    N4214976   0.639   2.037   3.668  0.4854  0.0075  0.5957
   58MOL    C4314977   0.564   1.963   3.754 -0.6094 -0.6312  0.0672
   58MOL    O4414978   0.442   1.968   3.759  0.6014  0.2205 -0.0135
   58MOL    C4514979   0.639   1.873   3.848  0.0192 -0.0757 -0.0863
   58MOL    C4614980   0.576   2.266   3.711  0.2012 -0.3855 -0.1550
   58MOL    H4714981   0.692   2.192   3.549 -1.0088  1.4945 -1.3556
   58MOL    H4814982   0.738   2.015   3.662  0.6042  0.8256 -0.5984
   58MOL    H4914983   0.627   1.770   3.813  0.9443 -1.0419  2.3094
   58MOL    H5014984   0.746   1.891   3.858 -0.2948  0.2311  3.0102
   58MOL    H5114985   0.596   1.886   3.947 -1.0614 -0.1927 -0.5326
   58MOL    H5214986   0.474   2.297   3.691 -0.0393 -1.0586  0.0081
   58MOL    H5314987   0.581   2.226   3.813 -3.0801 -3.2664 -1.0287
   58MOL    C5414988   0.688   2.375   3.717 -0.3066 -0.2627  0.6944
   58MOL    N5514989   0.810   2.308   3.767  0.4550 -0.5808 -0.1926
   58MOL    C5614990   0.919   2.277   3.695  0.9015  0.4273  0.0976
   58MOL    O5714991   0.930   2.298   3.575  0.5458  0.7581  0.6044
   58MOL    C5814992   1.031   2.210   3.767 -0.7126  0.2454 -0.5719
   58MOL    C5914993   0.665   2.490   3.822  0.1996 -0.3109 -0.3641
   58MOL    H6014994   0.702   2.423   3.620 -0.5635 -0.2722  0.6516
   58MOL    H6114995   0.803   2.283   3.864 -2.8619 -0.0722 -0.2190
   58MOL    H6214996   1.010   2.211   3.874  0.7612 -3.1200 -0.1999
   58MOL    H6314997   1.047   2.105   3.743  0.5903  0.0596  1.0237
   58MOL    H6414998   1.125   2.263   3.750  0.5659 -1.6401  0.4979
   58MOL    H6514999   0.567   2.533   3.802  1.0213  0.6435 -2.4064
   58MOL    H6615000   0.652   2.450   3.923  1.3418 -3.2202 -1.3201
   58MOL    C6715001   0.773   2.598   3.811 -0.6112  0.1404 -0.1612
   58MOL    N6815002   0.792   2.674   3.936 -0.0844  0.1752 -0.0090
   58MOL    C6915003   0.710   2.748   4.011  0.2223 -1.0425 -0.6713
   58MOL    O7015004   0.590   2.758   3.983  0.1590 -0.0572 -0.0207
   58MOL    C7115005   0.772   2.825   4.136  0.1496  0.2489 -0.4303
   58MOL    C7215006   0.750   2.704   3.693  0.2604 -0.7340  0.1114
   58MOL    H7315007   0.869   2.556   3.782 -0.4321  1.1679 -1.0833
   58MOL    H7415008   0.888   2.675   3.968 -0.3767  2.3533  0.8881
   58MOL    H7515009   0.703   2.823   4.220  0.9376  1.0298  0.2532
   58MOL    H7615010   0.858   2.774   4.179 -0.4376 -1.1376 -0.8479
   58MOL    H7715011   0.797   2.929   4.116 -1.2157  0.2790 -2.1351
   58MOL    H7815012   0.699   2.660   3.607  2.0907 -0.1444 -1.2866
   58MOL    H7915013   0.685   2.786   3.723 -0.0272 -0.8556 -0.1794
   58MOL    C8015014   0.881   2.761   3.638  0.3069 -0.1949  0.4579
   58MOL    N8115015   0.866   2.890   3.568  0.0206 -0.3234  0.3496
   58MOL    C8215016   0.927   3.003   3.605 -0.1589 -0.2210  0.1424
   58MOL    O8315017   1.004   3.004   3.701  0.1773 -0.3767  0.0333
   58MOL    C8415018   0.910   3.124   3.518  0.1023  0.4975  0.1341
   58MOL    C8515019   0.953   2.664   3.538  0.1200  0.4700  1.0533
   58MOL    H8615020   0.950   2.770   3.722  0.0899 -2.1061  0.8619
   58MOL    H8715021   0.799   2.893   3.492  0.9042  0.7996 -0.4055
   58MOL    H8815022   0.915   3.216   3.575 -0.1718 -0.3510  1.5380
   58MOL    H8915023   0.984   3.104   3.440 -1.7297 -0.8010 -1.3361
   58MOL    H9015024   0.811   3.105   3.476  0.0875 -0.5567  0.6460
   58MOL    H9115025   0.938   2.563   3.576 -0.2268  0.1430  0.0532
   58MOL    H9215026   0.892   2.676   3.449 -0.0008  0.0988  1.0848
   58MOL    C9315027   1.099   2.675   3.487  0.7468  0.0446  0.3214
   58MOL    N9415028   1.108   2.585   3.367 -0.5272 -0.0600  0.0607
   58MOL    C9515029   1.101   2.637   3.238  0.0233  0.2429 -0.1423
   58MOL    O9615030   1.093   2.758   3.209  0.0509  0.2711 -0.5110
   58MOL    C9715031   1.105   2.552   3.120 -0.2078 -1.2189  0.3847
   58MOL    C9815032   1.193   2.632   3.606  0.6657  0.4940  0.3108
   58MOL    H9915033   1.128   2.774   3.451  0.3073 -0.0935 -0.4059
   58MOL   H10015034   1.107   2.485   3.381 -1.1184 -0.0627  0.0326
   58MOL   H10115035   1.195   2.585   3.067 -0.2474 -2.9854 -0.8143
   58MOL   H10215036   1.123   2.449   3.152  0.9337 -0.8355  1.0307
   58MOL   H10315037   1.013   2.541   3.063 -1.2515 -0.9032  1.9744
   58MOL   H10415038   1.192   2.703   3.689 -1.0994 -1.1083  1.7227
   58MOL   H10515039   1.136   2.549   3.648  0.1388  0.6473 -0.0916
   58MOL   C10615040   1.337   2.578   3.574 -0.2054 -0.1945 -0.3838
   58MOL   N10715041   1.413   2.545   3.692  0.3714 -0.1056 -0.0247
   58MOL   C10815042   1.423   2.421   3.729 -0.5228 -0.3677  0.4254
   58MOL   O10915043   1.357   2.327   3.691 -0.1370 -0.4399  0.5693
   58MOL   C11015044   1.523   2.391   3.839  0.3103 -0.5421 -0.0300
   58MOL   C11115045   1.420   2.684   3.490  0.0825 -0.2224 -0.1039
   58MOL   H11215046   1.322   2.492   3.509 -1.0249 -1.6353  1.6313
   58MOL   H11315047   1.488   2.606   3.721 -1.1393  1.6315  0.3302
   58MOL   H11415048   1.611   2.338   3.803  0.4438 -1.0895  1.0802
   58MOL   H11515049   1.544   2.484   3.892  0.6825 -0.4093 -0.4136
   58MOL   H11615050   1.471   2.324   3.907 -0.9232 -2.7385 -3.0473
   58MOL   H11715051   1.357   2.729   3.413 -2.4631  0.9025  2.4827
   58MOL   H11815052   1.414   2.768   3.560  2.8276  0.3286 -0.5003
   58MOL   C11915053   1.562   2.652   3.440  0.5748  0.6404 -0.5150
   58MOL   N12015054   1.653   2.753   3.486 -0.1767 -0.1572 -0.1844
   58MOL   C12115055   1.689   2.763   3.613 -0.2001  0.4920 -0.5506
   58MOL   O12215056   1.669   2.689   3.706 -0.4084 -0.0273  0.0864
   58MOL   C12315057   1.777   2.882   3.635  0.0179  0.6075  0.1579
   58MOL   C12415058   1.572   2.620   3.288  0.1384  0.5729 -0.0636
   58MOL   H12515059   1.591   2.561   3.493 -2.7769 -1.1055 -1.4898
   58MOL   H12615060   1.686   2.819   3.417  2.1087 -0.3597  0.6651
   58MOL   H12715061   1.861   2.881   3.565 -0.9182 -3.3922 -1.0406
   58MOL   H12815062   1.722   2.974   3.616 -0.6328  0.5850  1.8613
   58MOL   H12915063   1.815   2.890   3.737 -0.9324  3.8693  0.3307
   58MOL   H13015064   1.543   2.708   3.231 -0.5517  0.5457  0.2375
   58MOL   H13115065   1.675   2.595   3.261  0.1941  1.1729 -0.4119
   58MOL   C13215066   1.484   2.503   3.243  0.4389  0.6366  0.3309
   58MOL   N13315067   1.492   2.374   3.309  0.0845  0.2271  0.1735
   58MOL   C13415068   1.389   2.290   3.327  0.2098 -0.5426 -0.3244
   58MOL   O13515069   1.276   2.307   3.277  0.0292  0.7168  0.4720
   58MOL   C13615070   1.420   2.167   3.403  0.1434 -0.0539 -0.3422
   58MOL   C13715071   1.496   2.489   3.094 -0.2933  0.2754  0.4321
   58MOL   H13815072   1.384   2.541   3.260  0.6326  0.8088  1.0897
   58MOL   H13915073   1.580   2.361   3.356  0.0070  0.2442  0.3249
   58MOL   H14015074   1.359   2.174   3.493  0.0872  0.1930 -0.3984
   58MOL   H14115075   1.392   2.084   3.337 -1.8288 -1.4097  2.1284
   58MOL   H14215076   1.526   2.155   3.422  0.4351 -2.8867 -3.3184
   58MOL   H14315077   1.403   2.442   3.062 -0.2595 -0.1914  1.0154
   58MOL   H14415078   1.497   2.587   3.045 -0.2644 -0.6509 -1.4631
   58MOL   C14515079   1.627   2.413   3.036  0.4023  0.2483 -0.0340
   58MOL   N14615080   1.698   2.488   2.925 -0.1449 -0.2654 -0.6089
   58MOL   C14715081   1.808   2.563   2.944  0.4518 -0.3307 -0.5951
   58MOL   O14815082   1.855   2.588   3.058  0.2598 -0.0673 -0.2726
   58MOL   C14915083   1.847   2.641   2.820  0.3458 -0.2986  0.6195
   58MOL   C15015084   1.596   2.264   3.002 -1.0285 -0.8721  0.8355
   58MOL   H15115085   1.704   2.424   3.113  0.3919 -0.1673  0.0381
   58MOL   H15215086   1.636   2.490   2.845 -1.4064 -3.2980  0.2217
   58MOL   H15315087   1.861   2.745   2.851 -2.7145  1.4187 -3.3364
   58MOL   H15415088   1.933   2.609   2.762 -1.3500  0.7181 -2.5689
   58MOL   H15515089   1.769   2.635   2.745  2.7377 -0.3002 -1.9626
   58MOL   H15615090   1.692   2.214   3.007 -0.1081  0.7844  0.2278
   58MOL   H15715091   1.537   2.220   3.083  0.5216 -1.2621  1.7650
   58MOL   C15815092   1.526   2.219   2.872 -0.3429  0.6096 -0.4066
   58MOL   N15915093   1.414   2.300   2.832  0.1497  0.1935  0.3713
   58MOL   C16015094   1.418   2.412   2.762 -0.0372 -0.6541  0.6272
   58MOL   O16115095   1.520   2.453   2.709  0.5082 -0.0689 -0.4905
   58MOL   C16215096   1.292   2.490   2.745 -0.6533 -1.2753 -0.9640
   58MOL   C16315097   1.492   2.069   2.881 -0.2899  0.0893 -0.1775
   58MOL   H16415098   1.606   2.226   2.798 -0.8710  1.1302 -0.9277
   58MOL   H16515099   1.324   2.268   2.864  0.3912 -1.0617 -0.1457
   58MOL   H16615100   1.318   2.592   2.714  0.9525 -1.0482  1.0268
   58MOL   H16715101   1.246   2.446   2.656 -0.4424  1.4836 -2.5269
   58MOL   H16815102   1.232   2.492   2.836  1.1752 -2.4399  0.2853
   58MOL   H16915103   1.581   2.017   2.914  2.1437  1.6870 -3.8541
   58MOL   H17015104   1.419   2.058   2.961 -0.5582 -1.1754 -0.5822
   58MOL   C17115105   1.433   2.002   2.758 -0.3362 -0.4029 -0.3149
   58MOL   N17215106   1.400   1.865   2.799  0.4619  0.4442 -0.1184
   58MOL   C17315107   1.310   1.786   2.750  0.1707  0.3569  0.9811
   58MOL   O17415108   1.245   1.814   2.649 -0.3539  0.9298  0.0577
   58MOL   C17515109   1.268   1.652   2.828  0.1832 -0.3833  0.1259
   58MOL   C17615110   1.533   2.016   2.640 -0.0960 -0.5292 -0.5872
   58MOL   H17715111   1.340   2.052   2.730  1.0434  1.7404 -1.1682
   58MOL   H17815112   1.440   1.833   2.886 -0.5329  1.7926  0.8675
   58MOL   H17915113   1.344   1.575   2.838 -0.1258 -0.7341 -0.2164
   58MOL   H18015114   1.234   1.678   2.928  0.9568 -0.6783  0.4664
   58MOL   H18115115   1.191   1.604   2.768  1.1875 -0.6819 -0.9384
   58MOL   H18215116   1.636   2.030   2.674 -1.0023  2.4804  1.1283
   58MOL   H18315117   1.528   1.923   2.584  0.8050 -0.1705 -1.2697
   58MOL   C18415118   1.481   2.109   2.532 -0.3092 -0.2888  0.9681
   58MOL   N18515119   1.360   2.055   2.462  0.2908  0.6954 -0.5350
   58MOL   C18615120   1.239   2.114   2.463  0.3991  0.2026 -0.1457
   58MOL   O18715121   1.205   2.216   2.526 -0.2339  0.5881 -0.4347
   58MOL   C18815122   1.136   2.039   2.386 -0.0585  0.2824 -0.4875
   58MOL   C18915123   1.585   2.136   2.423 -0.2496 -0.6388  0.1396
   58MOL   H19015124   1.461   2.205   2.579  1.8946 -0.5853  2.5859
   58MOL   H19115125   1.360   1.957   2.435 -0.2439  0.1283  1.4452
   58MOL   H19215126   1.042   2.045   2.440  1.8484  2.1461  2.7734
   58MOL   H19315127   1.124   2.078   2.284 -0.4120  0.5038 -0.3629
   58MOL   H19415128   1.160   1.933   2.379 -1.4922 -0.1052  0.2479
   58MOL   H19515129   1.669   2.176   2.480 -0.1963 -0.8550  0.2130
   58MOL   H19615130   1.633   2.050   2.376  0.7468  0.8220 -1.5851
   58MOL   C19715131   1.532   2.238   2.320 -0.5982 -0.1194 -1.2669
   58MOL   N19815132   1.469   2.165   2.217  0.7709 -0.1027  0.3472
   58MOL   C19915133   1.359   2.203   2.151  0.4176  0.5112 -0.1681
   58MOL   O20015134   1.282   2.299   2.180  0.1743  0.0443  0.3976
   58MOL   C20115135   1.316   2.121   2.028  0.4426  0.0284 -0.0343
   58MOL   C20215136   1.650   2.331   2.262 -0.4104  0.1140  0.1816
   58MOL   H20315137   1.457   2.297   2.372 -0.7091 -0.2316 -1.2995
   58MOL   H20415138   1.521   2.091   2.173 -1.7271 -2.5656  1.3785
   58MOL   H20515139   1.343   2.016   2.027  1.0957  0.2044 -0.6776
   58MOL   H20615140   1.209   2.133   2.011  1.0703  2.3804 -2.7163
   58MOL   H20715141   1.354   2.154   1.932  1.2681  1.3251  0.7289
   58MOL   H20815142   1.689   2.388   2.347 -0.2452 -0.4450  0.4841
   58MOL   H20915143   1.727   2.264   2.222 -1.3700 -0.2121 -1.1257
   58MOL   C21015144   1.617   2.439   2.160  0.1895  1.3696 -0.2702
   58MOL   N21115145   1.693   2.423   2.035  0.4554 -0.1103 -0.4169
   58MOL   C21215146   1.694   2.323   1.947  0.3401  0.2851 -0.6684
   58MOL   O21315147   1.626   2.223   1.959  0.3151 -0.5177  0.4413
   58MOL   C21415148   1.806   2.318   1.843 -0.1939 -0.1059  0.5161
   58MOL   C21515149   1.631   2.583   2.214  0.2389 -0.3498 -0.1027
   58MOL   H21615150   1.513   2.428   2.129  0.8561 -0.8660 -1.8770
   58MOL   H21715151   1.773   2.484   2.026 -1.8705  3.2037  0.5586
   58MOL   H21815152   1.787   2.378   1.754  0.7400 -0.6310 -0.0484
   58MOL   H21915153   1.904   2.345   1.883  0.3913  0.6984 -1.4102
   58MOL   H22015154   1.820   2.220   1.797 -0.1271 -0.4255  1.2056
   58MOL   H22115155   1.597   2.588   2.318 -2.7215  2.5542 -1.1182
   58MOL   H22215156   1.733   2.618   2.227  0.6735 -1.3341 -0.7977
   58MOL   C22315157   1.545   2.694   2.151 -0.2150 -0.2052 -0.6005
   58MOL   N22415158   1.611   2.753   2.035  0.0076  0.2225  0.5838
   58MOL   C22515159   1.597   2.712   1.911  0.3293  0.1257 -0.0362
   58MOL   O22615160   1.529   2.617   1.876 -0.2574  0.0583  1.0740
   58MOL   C22715161   1.673   2.784   1.801 -0.1448  0.3079  0.6400
   58MOL   C22815162   1.495   2.799   2.251  0.2423  0.3178  0.0211
   58MOL   H22915163   1.455   2.640   2.122 -0.6741 -0.1381  0.6851
   58MOL   H23015164   1.676   2.830   2.048 -0.8147  1.3212 -1.4883
   58MOL   H23115165   1.599   2.846   1.751  1.1249  1.1314 -0.2520
   58MOL   H23215166   1.757   2.846   1.832 -1.5162  1.5209  2.0197
   58MOL   H23315167   1.715   2.707   1.737 -0.8419  0.9846 -0.6584
   58MOL   H23415168   1.454   2.751   2.340  0.7534  0.7834  0.5164
   58MOL   H23515169   1.569   2.865   2.297 -1.5348 -0.0058  3.5032
   58MOL   C23615170   1.383   2.891   2.199 -0.1210  0.7925  0.0144
   58MOL   N23715171   1.440   3.009   2.135 -0.2868  0.0836  0.4324
   58MOL   C23815172   1.429   3.052   2.008  0.2502 -0.1192 -0.2550
   58MOL   O23915173   1.342   3.009   1.929 -0.0832 -0.0353 -0.0524
   58MOL   C24015174   1.530   3.155   1.961 -0.0178 -0.0686  0.3125
   58MOL   C24115175   1.290   2.921   2.324  0.3782  0.2224  0.4081
   58MOL   H24215176   1.330   2.844   2.116  0.9435 -0.0602 -0.1981
   58MOL   H24315177   1.507   3.062   2.189  1.3345 -0.9562 -0.5213
   58MOL   H24415178   1.610   3.112   1.901  0.7493  1.9234 -0.1219
   58MOL   H24515179   1.484   3.230   1.895  0.2003 -0.4623 -0.2901
   58MOL   H24615180   1.571   3.214   2.043 -0.4568 -0.2862  0.6925
   58MOL   H24715181   1.232   2.829   2.331 -0.5923  0.4594 -3.4543
   58MOL   H24815182   1.340   2.951   2.416 -0.3372  0.2439  0.7923
   58MOL   C24915183   1.185   3.028   2.289  0.2757 -0.1738 -0.4073
   58MOL   N25015184   1.096   3.061   2.403 -0.0392 -0.2903 -0.1327
   58MOL   C25115185   1.117   3.157   2.500  0.4376  0.6853  0.3147
   58MOL   O25215186   1.212   3.229   2.503  0.1298  0.2744 -0.1144
   58MOL   C25315187   1.017   3.152   2.610  0.0751 -0.0089 -0.2055
   58MOL   C25415188   1.093   2.985   2.172 -0.7015 -0.3838 -0.6836
   58MOL   H25515189   1.228   3.125   2.262  1.5184 -0.2412  1.2186
   58MOL   H25615190   1.011   3.007   2.402 -0.8903  1.0237  0.4101
   58MOL   H25715191   0.917   3.175   2.573 -0.0479 -0.7709 -0.3540
   58MOL   H25815192   1.008   3.057   2.664  0.1836 -1.4284 -2.6221
   58MOL   H25915193   1.030   3.236   2.678  1.8787 -0.7787  0.4340
   58MOL   H26015194   1.039   2.894   2.199 -0.6379 -0.0242  0.6880
   58MOL   H26115195   1.021   3.057   2.133 -2.3735 -1.5634  0.1796
   58MOL   H26215196   1.159   2.969   2.087  1.6227  2.4230  0.5055
   59MOL     C115197   4.667   2.466   5.707 -0.1737  0.4895  0.6394
   59MOL     N215198   4.618   2.445   5.843  0.0809  0.2538 -0.4573
   59MOL     C315199   4.544   2.523   5.920  0.2214  0.2757 -0.2533
   59MOL     O415200   4.489   2.634   5.883  0.1243  0.3621 -0.1360
   59MOL     C515201   4.509   2.469   6.062 -0.7022  1.1808  0.1798
   59MOL     C615202   4.785   2.562   5.701 -0.7583  0.3394 -0.2538
   59MOL     H715203   4.695   2.369   5.667 -0.8686  0.1084  1.0796
   59MOL     H815204   4.643   2.355   5.882 -1.3271  0.0040 -0.1388
   59MOL     H915205   4.401   2.462   6.060 -0.6511 -0.5407  1.8769
   59MOL    H1015206   4.548   2.367   6.069 -0.0980  1.3686 -0.3688
   59MOL    H1115207   4.538   2.535   6.144 -0.6243  2.7968 -1.1230
   59MOL    H1215208   4.756   2.657   5.745 -0.9608  0.1417  0.0370
   59MOL    H1315209   4.868   2.525   5.761  0.5436  2.0323 -0.9962
   59MOL    H1415210   4.577   2.492   5.651 -0.1629 -2.1578 -0.6895
   59MOL    C1515211   4.832   2.590   5.557  0.3085 -0.5185 -0.2069
   59MOL    N1615212   4.958   2.662   5.553  0.6424  0.0865 -0.1110
   59MOL    C1715213   5.002   2.769   5.620 -0.2658  0.2289  0.3555
   59MOL    O1815214   4.942   2.843   5.702  0.2483  0.0559 -0.6657
   59MOL    C1915215   5.153   2.803   5.592 -0.0899 -0.8549  0.4721
   59MOL    C2015216   4.732   2.656   5.460  0.0433  0.4494  0.2227
   59MOL    H2115217   4.856   2.486   5.532  2.0235 -0.1267 -0.2574
   59MOL    H2215218   5.033   2.624   5.497 -0.3953 -1.8656 -0.2146
   59MOL    H2315219   5.178   2.892   5.651 -2.4964  1.8529 -2.4024
   59MOL    H2415220   5.212   2.713   5.612  1.1492 -0.2429 -0.3497
   59MOL    H2515221   5.172   2.837   5.490  0.7832  1.3350  1.3327
   59MOL    H2615222   4.625   2.644   5.478 -0.1151  0.2548 -0.8240
   59MOL    H2715223   4.739   2.763   5.478 -2.5061  0.6984 -0.0625
   59MOL    C2815224   4.756   2.629   5.311  0.7273  0.2081 -0.3598
   59MOL    N2915225   4.640   2.687   5.236  0.2818  0.8457 -0.3516
   59MOL    C3015226   4.639   2.772   5.138  0.0617 -0.0642  0.3553
   59MOL    O3115227   4.736   2.820   5.080 -0.5503  0.2355  0.1434
   59MOL    C3215228   4.498   2.802   5.079  0.4617 -0.7579  0.5744
   59MOL    C3315229   4.786   2.483   5.273  0.1066 -0.2728 -0.5157
   59MOL    H3415230   4.850   2.682   5.294  1.1096 -0.6898 -1.1174
   59MOL    H3515231   4.549   2.646   5.248 -0.0943  1.9796  0.7414
   59MOL    H3615232   4.500   2.800   4.970  0.0995 -0.8606  0.5684
   59MOL    H3715233   4.419   2.734   5.109 -0.5213  0.3651  0.5516
   59MOL    H3815234   4.470   2.901   5.114  2.0020  0.3859 -1.2658
   59MOL    H3915235   4.869   2.444   5.333  0.6667 -1.6100 -2.1352
   59MOL    H4015236   4.696   2.431   5.306  0.1901  0.2936  0.6313
   59MOL    C4115237   4.804   2.460   5.124  0.1853 -0.4453  0.2468
   59MOL    N4215238   4.686   2.401   5.070 -0.5667 -0.2656 -0.0197
   59MOL    C4315239   4.651   2.415   4.940  0.1802  0.4041  0.0299
   59MOL    O4415240   4.717   2.475   4.855  0.3812  0.3483 -0.4920
   59MOL    C4515241   4.524   2.360   4.896  0.3156 -0.4262  0.5184
   59MOL    C4615242   4.921   2.366   5.096 -0.1701  0.6912 -0.3613
   59MOL    H4715243   4.820   2.555   5.072  0.9246 -0.4633  0.4275
   59MOL    H4815244   4.629   2.354   5.138 -0.0062 -1.8545 -0.6290
   59MOL    H4915245   4.538   2.275   4.828  0.8379 -0.7906  1.0797
   59MOL    H5015246   4.475   2.321   4.985  2.5094 -0.8228  1.5809
   59MOL    H5115247   4.459   2.426   4.839  1.0926 -0.0972 -0.0047
   59MOL    H5215248   4.904   2.268   5.140  0.9739  1.0386  0.8846
   59MOL    H5315249   4.931   2.357   4.988 -1.2631 -0.5846 -0.3734
   59MOL    C5415250   5.056   2.424   5.144 -0.1104  0.2112 -0.0436
   59MOL    N5515251   5.073   2.570   5.123  0.7204  0.6267  0.7247
   59MOL    C5615252   5.121   2.656   5.214  0.1526  0.0936 -0.4993
   59MOL    O5715253   5.135   2.627   5.333 -0.4140  0.2608 -0.1368
   59MOL    C5815254   5.142   2.802   5.167 -0.2632  0.0265  0.4581
   59MOL    C5915255   5.176   2.362   5.068 -0.0264 -0.3132 -0.4586
   59MOL    H6015256   5.074   2.399   5.248  2.9415  2.1613 -0.0422
   59MOL    H6115257   5.051   2.602   5.029  0.0229 -1.3946  0.1887
   59MOL    H6215258   5.184   2.866   5.245 -0.2779 -0.6326  1.0096
   59MOL    H6315259   5.209   2.816   5.082 -0.8604 -4.6350 -0.8969
   59MOL    H6415260   5.053   2.855   5.131  0.2014  0.0858 -0.6132
   59MOL    H6515261   5.163   2.393   4.964 -2.1398 -1.9692 -0.7129
   59MOL    H6615262   5.275   2.406   5.082 -0.8297  1.8299 -1.2152
   59MOL    C6715263   5.185   2.209   5.068  0.3203  0.2183  0.4824
   59MOL    N6815264   5.241   2.159   5.190 -0.3363  0.1318  0.1265
   59MOL    C6915265   5.200   2.059   5.268  0.0179  0.8309  0.8795
   59MOL    O7015266   5.092   2.000   5.250 -0.0893  0.2724  0.9131
   59MOL    C7115267   5.275   2.031   5.401  0.0115 -0.3662  0.6288
   59MOL    C7215268   5.259   2.140   4.949  0.0404 -0.6228 -0.5477
   59MOL    H7315269   5.086   2.172   5.040 -0.0818  2.1056 -0.6954
   59MOL    H7415270   5.325   2.202   5.224 -0.2294 -0.4993  0.6496
   59MOL    H7515271   5.339   1.944   5.391 -0.6802 -0.8029 -0.0935
   59MOL    H7615272   5.332   2.119   5.431  0.8457 -0.8227  0.3801
   59MOL    H7715273   5.207   2.017   5.485  0.9549  0.2164  1.4868
   59MOL    H7815274   5.363   2.168   4.962 -0.1898  0.3840 -0.8546
   59MOL    H7915275   5.246   2.033   4.964 -0.2351 -0.8341 -2.1152
   59MOL    C8015276   5.213   2.177   4.800  0.1150 -0.7635 -0.6693
   59MOL    N8115277   5.069   2.173   4.786  0.1505  1.2258  0.1803
   59MOL    C8215278   4.997   2.228   4.691  0.2443  0.1796 -0.4491
   59MOL    O8315279   5.036   2.317   4.619 -0.0326 -0.1642 -0.2382
   59MOL    C8415280   4.850   2.172   4.680  0.0666 -0.2196 -0.6327
   59MOL    C8515281   5.282   2.086   4.698  0.6614 -0.0193 -0.0060
   59MOL    H8615282   5.242   2.282   4.787  2.1413 -1.0734  1.1208
   59MOL    H8715283   5.021   2.097   4.832  1.4911  0.6251  0.6223
   59MOL    H8815284   4.801   2.204   4.588 -0.7590  0.7617  0.1362
   59MOL    H8915285   4.839   2.065   4.698 -0.8718 -0.1852 -0.9971
   59MOL    H9015286   4.787   2.211   4.759 -1.4301  1.5396 -2.6403
   59MOL    H9115287   5.252   1.982   4.715  0.0115  0.3784  1.3224
   59MOL    H9215288   5.244   2.117   4.601 -2.2805  0.1299  1.1341
   59MOL    C9315289   5.436   2.104   4.701  0.2845 -0.0882  0.5861
   59MOL    N9415290   5.479   2.210   4.613 -0.0507  0.1576 -0.4221
   59MOL    C9515291   5.518   2.337   4.649  0.2185  0.4415  0.6081
   59MOL    O9615292   5.524   2.388   4.762  0.1889 -0.2263  0.6908
   59MOL    C9715293   5.554   2.414   4.526 -0.1871  0.3228  0.2112
   59MOL    C9815294   5.528   1.982   4.656 -0.1087  0.0259  0.5677
   59MOL    H9915295   5.482   2.129   4.796  1.5372  0.2777 -0.1104
   59MOL   H10015296   5.476   2.182   4.516  0.9198  0.6743 -0.5996
   59MOL   H10115297   5.536   2.360   4.433  0.7977  1.7870 -0.8667
   59MOL   H10215298   5.503   2.509   4.510 -1.1291  0.0211  1.3266
   59MOL   H10315299   5.659   2.445   4.526 -0.2794  0.7475  3.3637
   59MOL   H10415300   5.486   1.945   4.563  1.4257  1.5043 -0.7502
   59MOL   H10515301   5.634   2.004   4.646  0.1104  1.0197  4.1683
   59MOL   C10615302   5.526   1.854   4.744  0.3042  0.1201  0.0741
   59MOL   N10715303   5.593   1.883   4.873 -0.2142  0.0770  0.3134
   59MOL   C10815304   5.533   1.886   4.993 -0.4341  0.4353  0.8126
   59MOL   O10915305   5.412   1.885   5.004 -0.0629 -0.4501 -0.5529
   59MOL   C11015306   5.626   1.905   5.112  0.7928  0.6532  0.5495
   59MOL   C11115307   5.585   1.731   4.675 -0.3327 -0.0710  0.7991
   59MOL   H11215308   5.419   1.834   4.748  0.4677 -0.6272  0.8314
   59MOL   H11315309   5.693   1.871   4.879 -0.4850 -2.4898  0.2416
   59MOL   H11415310   5.590   1.985   5.177 -2.1047 -0.2821  0.1663
   59MOL   H11515311   5.626   1.813   5.172 -2.9963 -0.8914 -1.6074
   59MOL   H11615312   5.727   1.931   5.083  0.7253 -0.7838 -1.0568
   59MOL   H11715313   5.535   1.722   4.579 -0.3541  0.5692  0.7539
   59MOL   H11815314   5.691   1.732   4.650 -0.5935 -2.8981 -0.6899
   59MOL   C11915315   5.549   1.601   4.745 -0.7258  0.9678  0.3272
   59MOL   N12015316   5.631   1.496   4.684  0.1920 -0.2735 -0.4648
   59MOL   C12115317   5.708   1.402   4.741  0.2588 -0.1169  0.9205
   59MOL   O12215318   5.705   1.378   4.867 -0.1154 -0.4879  0.6645
   59MOL   C12315319   5.806   1.331   4.656 -0.8063 -0.0864  0.1032
   59MOL   C12415320   5.401   1.566   4.736 -0.3736 -0.5821  0.1526
   59MOL   H12515321   5.574   1.611   4.851  1.8406  1.6457 -0.3117
   59MOL   H12615322   5.650   1.516   4.587 -1.5303 -1.1015 -0.9853
   59MOL   H12715323   5.815   1.388   4.563  1.1358 -0.5404 -0.0104
   59MOL   H12815324   5.903   1.318   4.705 -1.7233 -2.3867  1.3486
   59MOL   H12915325   5.766   1.237   4.619 -2.1540 -0.1379  1.6924
   59MOL   H13015326   5.338   1.651   4.761 -0.9080 -1.3619  1.5285
   59MOL   H13115327   5.368   1.556   4.633 -1.9058 -0.5250  0.6195
   59MOL   C13215328   5.364   1.438   4.814 -0.2678 -0.2408 -0.5389
   59MOL   N13315329   5.222   1.411   4.788  0.0819  0.2573  0.1259
   59MOL   C13415330   5.178   1.337   4.682 -0.4803 -0.1887 -0.4346
   59MOL   O13515331   5.260   1.287   4.604 -0.0322  0.0086 -0.6138
   59MOL   C13615332   5.023   1.318   4.680 -0.0757  0.4381 -0.8711
   59MOL   C13715333   5.401   1.450   4.969 -0.0821  0.2656  0.1583
   59MOL   H13815334   5.429   1.358   4.780  0.6716  0.9023 -1.5194
   59MOL   H13915335   5.152   1.468   4.833 -1.8591 -1.0683 -1.1665
   59MOL   H14015336   5.011   1.227   4.621  0.5030 -0.3707  0.2459
   59MOL   H14115337   4.970   1.315   4.775 -0.4187  1.3834 -1.0237
   59MOL   H14215338   4.961   1.395   4.632  0.3408  0.3708 -1.5182
   59MOL   H14315339   5.392   1.353   5.018 -0.1508  0.0482 -0.2820
   59MOL   H14415340   5.506   1.468   4.988  0.0787  2.0191 -2.1959
   59MOL   C14515341   5.310   1.535   5.063 -0.1221 -0.1043 -0.5533
   59MOL   N14615342   5.258   1.658   5.003  0.3799  0.8290 -0.3334
   59MOL   C14715343   5.135   1.668   4.953  0.0625 -0.1774 -0.4196
   59MOL   O14815344   5.064   1.572   4.925  0.2033  0.1284 -0.5566
   59MOL   C14915345   5.091   1.810   4.930  0.4691  0.0768 -0.6003
   59MOL   C15015346   5.382   1.564   5.195 -0.3510 -0.2313  0.3939
   59MOL   H15115347   5.229   1.467   5.089  2.7111 -3.7636 -0.8466
   59MOL   H15215348   5.310   1.745   5.013  0.9666  0.3691  0.7699
   59MOL   H15315349   5.101   1.877   5.014 -1.1128  0.9727 -1.1065
   59MOL   H15415350   5.149   1.856   4.850  0.8572  0.4057 -0.1298
   59MOL   H15515351   4.988   1.814   4.895 -0.2032 -0.0421  1.3476
   59MOL   H15615352   5.436   1.657   5.183 -0.8181  0.1048  0.8333
   59MOL   H15715353   5.319   1.605   5.275 -0.4975 -1.0279  0.6933
   59MOL   C15815354   5.453   1.447   5.264  0.3118 -0.5318  0.0732
   59MOL   N15915355   5.355   1.357   5.331 -0.0910  0.0740 -0.2144
   59MOL   C16015356   5.328   1.234   5.293  0.6163  0.8847  0.4605
   59MOL   O16115357   5.387   1.168   5.202 -0.0438  0.6226 -0.0160
   59MOL   C16215358   5.224   1.163   5.376  0.3304  0.1558 -0.1369
   59MOL   C16315359   5.558   1.485   5.373 -0.5753 -0.0441  0.8384
   59MOL   H16415360   5.508   1.381   5.196 -1.2986 -0.4983 -1.3058
   59MOL   H16515361   5.312   1.396   5.414 -1.1060 -0.8283 -0.2990
   59MOL   H16615362   5.224   1.055   5.358 -1.3724  0.1389 -0.0957
   59MOL   H16715363   5.256   1.162   5.480  0.1979  0.5606 -0.0920
   59MOL   H16815364   5.128   1.209   5.355  0.8069  1.1125 -0.2522
   59MOL   H16915365   5.499   1.510   5.461 -0.4895  1.1337  0.5686
   59MOL   H17015366   5.611   1.396   5.407  1.1462  0.7380  0.2824
   59MOL   C17115367   5.656   1.604   5.364  0.0856  0.5030  0.1204
   59MOL   N17215368   5.737   1.580   5.250  0.5002 -0.6565  1.0090
   59MOL   C17315369   5.842   1.650   5.204 -0.0561 -0.2243 -0.3693
   59MOL   O17415370   5.895   1.750   5.252  0.0957  0.6913 -0.4671
   59MOL   C17515371   5.904   1.593   5.077  0.3709  0.1653 -0.2929
   59MOL   C17615372   5.720   1.624   5.502  0.0171 -0.1779 -0.3003
   59MOL   H17715373   5.591   1.687   5.334  0.6285 -0.3100 -3.5182
   59MOL   H17815374   5.708   1.507   5.186  0.5337  0.8224 -0.7286
   59MOL   H17915375   5.828   1.587   4.999  2.0431  0.2334 -1.9774
   59MOL   H18015376   5.984   1.656   5.039 -0.2980  1.2523  0.0990
   59MOL   H18115377   5.937   1.489   5.070  0.5655  0.2546 -0.7251
   59MOL   H18215378   5.785   1.711   5.491  0.8577 -0.7866 -0.2345
   59MOL   H18315379   5.645   1.652   5.576  1.2185  0.7925  0.5581
   59MOL   C18415380   5.799   1.513   5.563  0.7199  0.5098 -0.2434
   59MOL   N18515381   5.722   1.442   5.667 -0.6192 -0.8172  0.1298
   59MOL   C18615382   5.687   1.313   5.668 -0.6377 -0.6530  0.6115
   59MOL   O18715383   5.717   1.240   5.577 -0.1839  0.2546 -0.3890
   59MOL   C18815384   5.606   1.252   5.785  1.0844 -0.3459 -0.4142
   59MOL   C18915385   5.928   1.557   5.631 -0.0751  0.0604  0.5678
   59MOL   H19015386   5.821   1.440   5.485  0.1549 -0.5623  0.5694
   59MOL   H19115387   5.701   1.492   5.752  1.9894  2.8294 -1.2591
   59MOL   H19215388   5.508   1.298   5.790  0.7577 -1.1655  1.0625
   59MOL   H19315389   5.596   1.144   5.774  1.7285 -0.2784 -1.8028
   59MOL   H19415390   5.659   1.277   5.877 -0.7688  0.6602  0.3995
   59MOL   H19515391   5.943   1.665   5.633 -1.2927  0.2150  1.8157
   59MOL   H19615392   5.924   1.519   5.733  1.9501  0.9725  1.0135
   59MOL   C19715393   6.055   1.494   5.568  0.3340 -0.5845  0.0014
   59MOL   N19815394   6.163   1.525   5.664 -0.6704 -0.4954  0.0272
   59MOL   C19915395   6.230   1.641   5.676 -0.5877  0.0030 -0.2050
   59MOL   O20015396   6.212   1.740   5.607 -0.0864 -0.2773  0.1335
   59MOL   C20115397   6.342   1.635   5.780 -0.4028  0.3696 -0.0584
   59MOL   C20215398   6.087   1.513   5.422  0.1377 -0.1516 -0.5165
   59MOL   H20315399   6.033   1.387   5.574  2.7672 -1.1869 -1.2775
   59MOL   H20415400   6.200   1.447   5.717 -0.7976  0.9385  2.2940
   59MOL   H20515401   6.391   1.732   5.789  0.4505 -0.2490  2.5300
   59MOL   H20615402   6.304   1.597   5.875  0.0338 -1.0181 -0.4282
   59MOL   H20715403   6.425   1.569   5.752 -1.1735 -0.2760 -0.8376
   59MOL   H20815404   6.000   1.473   5.370  1.6849 -2.5070 -1.3545
   59MOL   H20915405   6.088   1.621   5.409 -0.7187  0.3546  3.1340
   59MOL   C21015406   6.215   1.454   5.361 -0.3505  0.2874 -1.0735
   59MOL   N21115407   6.204   1.485   5.219  0.6666 -0.3418 -0.1439
   59MOL   C21215408   6.302   1.538   5.141  0.4968 -0.7251  0.0033
   59MOL   O21315409   6.411   1.573   5.182  0.0429  0.6368 -0.2479
   59MOL   C21415410   6.263   1.562   4.995 -0.3622 -0.0567  0.6143
   59MOL   C21515411   6.221   1.301   5.392 -0.1487 -0.9174 -0.1676
   59MOL   H21615412   6.309   1.498   5.395 -1.4322  1.7222  0.1175
   59MOL   H21715413   6.123   1.454   5.167 -0.9124  0.7508  1.5964
   59MOL   H21815414   6.162   1.540   4.960 -0.0487  0.0263 -0.3808
   59MOL   H21915415   6.271   1.667   4.967  0.4635 -0.2346  0.1767
   59MOL   H22015416   6.322   1.494   4.933  0.2752 -0.4238  1.6106
   59MOL   H22115417   6.210   1.272   5.496 -1.9005 -0.5791 -0.2412
   59MOL   H22215418   6.134   1.263   5.338 -2.7438  0.4302  2.9396
   59MOL   C22315419   6.334   1.220   5.325  0.5526 -0.2902  0.6098
   59MOL   N22415420   6.299   1.083   5.324  0.3297 -0.1961 -0.7295
   59MOL   C22515421   6.273   1.001   5.221 -0.0838 -0.0019 -1.1546
   59MOL   O22615422   6.295   1.042   5.106  0.2341 -0.1256 -0.1532
   59MOL   C22715423   6.225   0.860   5.257 -0.0615 -0.0286  0.7924
   59MOL   C22815424   6.464   1.238   5.393  0.0876  0.5207  0.3762
   59MOL   H22915425   6.334   1.257   5.223 -1.0067 -2.1203 -0.0726
   59MOL   H23015426   6.260   1.045   5.409 -0.2756  0.5935 -0.6433
   59MOL   H23115427   6.199   0.862   5.363 -0.5565 -0.1508  0.6722
   59MOL   H23215428   6.134   0.841   5.200  2.2173 -0.9097 -2.6891
   59MOL   H23315429   6.308   0.794   5.233 -1.1612 -1.2041  0.1893
   59MOL   H23415430   6.472   1.338   5.435 -0.4058  0.6187  0.2382
   59MOL   H23515431   6.463   1.182   5.487 -1.0700  1.6395  1.0460
   59MOL   C23615432   6.582   1.226   5.288 -0.2044 -0.4321 -0.1130
   59MOL   N23715433   6.593   1.086   5.248 -0.5970  0.6395 -0.4102
   59MOL   C23815434   6.684   0.992   5.279  0.2797  0.1993  0.0438
   59MOL   O23915435   6.778   1.007   5.362 -0.0078 -0.2568 -0.9285
   59MOL   C24015436   6.656   0.857   5.223  0.1984  0.3116  0.2803
   59MOL   C24115437   6.711   1.291   5.339 -0.0406 -0.0590  0.0167
   59MOL   H24215438   6.548   1.285   5.203 -5.0223 -0.9317  1.3067
   59MOL   H24315439   6.517   1.056   5.187 -1.1137 -1.4482  1.1957
   59MOL   H24415440   6.745   0.823   5.170  0.4160  1.7401 -0.3120
   59MOL   H24515441   6.646   0.785   5.304 -0.8240  3.3421  2.9892
   59MOL   H24615442   6.572   0.858   5.155  0.5062  1.1403 -0.1026
   59MOL   H24715443   6.689   1.390   5.378 -0.0164 -0.7714  1.9191
   59MOL   H24815444   6.747   1.224   5.417 -1.7429 -1.4470 -0.3559
   59MOL   C24915445   6.815   1.303   5.223 -0.7091 -0.7602 -0.2837
   59MOL   N25015446   6.953   1.316   5.263  0.3167  0.0536  0.5637
   59MOL   C25115447   7.052   1.230   5.230 -1.1056  0.3555 -0.5769
   59MOL   O25215448   7.035   1.122   5.176  1.3236  0.1226  0.2654
   59MOL   C25315449   7.198   1.278   5.251  0.7863 -0.2479 -0.0524
   59MOL   C25415450   6.767   1.410   5.126  0.4939 -0.4499 -0.3981
   59MOL   H25515451   6.805   1.212   5.163  1.0656 -1.1317 -0.0166
   59MOL   H25615452   6.970   1.407   5.305  1.0141 -0.7442  2.0643
   59MOL   H25715453   7.241   1.200   5.314  1.9958  1.2153  0.9731
   59MOL   H25815454   7.251   1.283   5.156 -0.6692  0.5811 -0.8467
   59MOL   H25915455   7.209   1.369   5.310  1.7729 -0.1873 -0.3249
   59MOL   H26015456   6.680   1.382   5.067 -1.4705  1.1910  1.6629
   59MOL   H26115457   6.734   1.501   5.176  0.0549 -1.7483  1.7605
   59MOL   H26215458   6.848   1.435   5.057 -0.4030 -1.0647 -1.6851
   60MOL     C115459   1.702   4.238   7.753 -0.3734 -0.4109 -0.3427
   60MOL     N215460   1.763   4.121   7.691 -0.4393 -0.2791 -0.3813
   60MOL     C315461   1.857   4.119   7.596  0.0767  0.1195  0.3267
   60MOL     O415462   1.918   4.219   7.565  0.3126  0.1539  0.0854
   60MOL     C515463   1.901   3.985   7.538  0.7016  0.3586  0.9237
   60MOL     C615464   1.579   4.199   7.836 -0.6120  0.2044 -0.4301
   60MOL     H715465   1.781   4.274   7.819  0.3872 -2.3920 -0.1084
   60MOL     H815466   1.707   4.037   7.686 -0.0140 -0.6129  0.4683
   60MOL     H915467   1.931   3.915   7.617  0.7727 -1.0926 -0.3587
   60MOL    H1015468   1.817   3.933   7.491  1.4986 -0.2048  0.1225
   60MOL    H1115469   1.986   4.000   7.472 -0.1482 -2.0928 -0.8064
   60MOL    H1215470   1.517   4.145   7.765 -0.5199  1.1458 -1.2423
   60MOL    H1315471   1.600   4.135   0.081  0.3360  2.9461  1.4766
   60MOL    H1415472   1.680   4.305   7.670  2.1904 -2.0420 -2.4353
   60MOL    C1515473   1.503   4.320   0.060  0.0359  0.5100 -0.3365
   60MOL    N1615474   1.596   4.404   0.140 -0.9483  0.0560  0.4420
   60MOL    C1715475   1.665   4.379   0.245  0.1363 -0.7559  0.1520
   60MOL    O1815476   1.747   4.462   0.283  0.0604 -0.4880  0.2471
   60MOL    C1915477   1.634   4.273   0.342 -0.5195 -0.3426  0.3574
   60MOL    C2015478   1.381   4.273   0.148  0.1542  0.1310  0.9307
   60MOL    H2115479   1.476   4.388   7.819  3.5979  0.0574 -2.0042
   60MOL    H2215480   1.617   4.494   0.097  1.1426 -0.7253 -0.2065
   60MOL    H2315481   1.544   4.314   0.388  0.9906  2.4347  0.9319
   60MOL    H2415482   1.618   4.173   0.303  0.2581  0.0371 -0.9622
   60MOL    H2515483   1.715   4.267   0.415 -0.1776  0.5353  0.0587
   60MOL    H2615484   1.423   4.196   0.214  0.6458 -1.1786 -0.8680
   60MOL    H2715485   1.341   4.356   0.206  1.1594  1.5185 -0.3569
   60MOL    C2815486   1.283   4.197   0.056 -0.6655 -0.1166 -0.2971
   60MOL    N2915487   1.169   4.279   0.016  0.1889  0.5547  0.0645
   60MOL    C3015488   1.158   4.372   7.763 -0.5838 -1.0011  0.3442
   60MOL    O3115489   1.255   4.408   7.698 -0.0978 -0.2857 -0.3555
   60MOL    C3215490   1.017   4.426   7.746 -0.2457 -0.0386  0.1308
   60MOL    C3315491   1.227   4.077   0.139  0.1731  0.6073 -0.1234
   60MOL    H3415492   1.324   4.152   7.805 -0.5973  0.3358 -0.4960
   60MOL    H3515493   1.083   4.264   0.067 -0.3650  0.3926 -0.8957
   60MOL    H3615494   0.951   4.345   7.714 -0.0294 -1.0870  2.2121
   60MOL    H3715495   0.972   4.466   7.837  0.5308  1.1936 -0.0123
   60MOL    H3815496   1.015   4.513   7.681 -4.2572  0.2792  0.5368
   60MOL    H3915497   1.309   4.025   0.188  2.0437  3.3155 -0.2888
   60MOL    H4015498   1.182   4.117   0.230  2.0084  1.0980  0.5703
   60MOL    C4115499   1.148   3.958   0.071 -0.2550  1.0800  0.2410
   60MOL    N4215500   1.010   3.957   0.126 -0.0228 -0.3086  0.6024
   60MOL    C4315501   0.904   4.024   0.072  0.1257  0.5207  0.2429
   60MOL    O4415502   0.923   4.120   7.830  0.0606 -0.4513  0.3638
   60MOL    C4515503   0.763   3.991   0.112 -0.4729 -0.5040 -0.1290
   60MOL    C4615504   1.217   3.824   0.081 -0.5569 -0.1871  0.3732
   60MOL    H4715505   1.136   3.984   7.806  1.4510 -0.1960 -0.2854
   60MOL    H4815506   0.977   3.898   0.202  1.7807 -1.1921  0.7162
   60MOL    H4915507   0.753   3.884   0.126 -2.0781 -0.2576  0.6953
   60MOL    H5015508   0.738   4.041   0.206  0.6586 -2.1407  1.0715
   60MOL    H5115509   0.700   4.023   0.029  0.4922 -0.8640 -1.0097
   60MOL    H5215510   1.215   3.781   0.182  1.4090 -0.8163  0.1680
   60MOL    H5315511   1.150   3.754   0.032 -0.3792 -0.4862  0.5501
   60MOL    C5415512   1.360   3.800   0.017  0.4903 -0.3968 -0.2948
   60MOL    N5515513   1.360   3.850   7.721 -0.2084 -0.0143 -0.0788
   60MOL    C5615514   1.464   3.903   7.650 -0.4920  0.8923  0.3386
   60MOL    O5715515   1.578   3.900   7.695  0.0294  0.1046 -0.7447
   60MOL    C5815516   1.438   3.996   7.529 -0.5062  0.9909 -0.1291
   60MOL    C5915517   1.398   3.652   0.008  0.0635 -0.1703  0.1306
   60MOL    H6015518   1.437   3.851   0.074 -0.6112  1.1623 -0.1656
   60MOL    H6115519   1.271   3.855   7.673 -1.1446  1.2190  1.7264
   60MOL    H6215520   1.353   4.063   7.542 -0.2766  1.6658 -1.9835
   60MOL    H6315521   1.524   4.062   7.516 -3.5236  4.1523 -5.3755
   60MOL    H6415522   1.423   3.938   7.438  0.4870 -0.1005  0.3749
   60MOL    H6515523   1.329   3.606   7.778  0.0432  0.1350 -0.0501
   60MOL    H6615524   1.492   3.645   7.793  0.7131  1.2390  1.0268
   60MOL    C6715525   1.426   3.586   0.151  0.6846  0.0152  0.3246
   60MOL    N6815526   1.532   3.656   0.219  0.4890  0.4439  0.2871
   60MOL    C6915527   1.513   3.749   0.314 -1.2970  0.0087 -0.1163
   60MOL    O7015528   1.404   3.782   0.354  0.2377  0.1037  0.1599
   60MOL    C7115529   1.639   3.801   0.377 -0.2818  0.0784 -0.0873
   60MOL    C7215530   1.459   3.440   0.142  0.2810 -0.8089  0.0804
   60MOL    H7315531   1.332   3.588   0.207 -0.8358 -0.2200 -2.1593
   60MOL    H7415532   1.629   3.635   0.200  0.4618 -0.0046  0.6447
   60MOL    H7515533   1.631   3.906   0.404  2.3423 -0.0378  1.4031
   60MOL    H7615534   1.658   3.749   0.471 -0.0704  0.1657 -0.0816
   60MOL    H7715535   1.732   3.801   0.321 -0.3300  2.5257 -0.2086
   60MOL    H7815536   1.554   3.443   0.089  0.7155 -0.5722  0.8775
   60MOL    H7915537   1.484   3.395   0.238 -0.1544  0.5053  0.8259
   60MOL    C8015538   1.354   3.340   0.071 -0.1974 -0.8770 -0.3134
   60MOL    N8115539   1.243   3.295   0.156  0.4127  0.1128  0.2522
   60MOL    C8215540   1.130   3.361   0.179 -0.3632 -0.0509 -0.7894
   60MOL    O8315541   1.114   3.481   0.145 -0.1906 -0.0595  0.8513
   60MOL    C8415542   1.022   3.300   0.255 -0.5395  0.1079  0.8040
   60MOL    C8515543   1.427   3.214   0.014  0.1446  0.3065  0.2282
   60MOL    H8615544   1.326   3.397   7.823  0.0031  0.8750  0.7266
   60MOL    H8715545   1.248   3.211   0.212  0.4757  0.6456  1.0499
   60MOL    H8815546   0.929   3.357   0.246 -0.3680  0.4123  0.9658
   60MOL    H8915547   0.982   3.214   0.201 -0.9341  0.2273  0.9064
   60MOL    H9015548   1.056   3.284   0.357 -0.8522  2.2433  1.2607
   60MOL    H9115549   1.532   3.234   0.031  0.0339  0.3247  0.8922
   60MOL    H9215550   1.392   3.131   0.075 -1.0075  2.3129  2.3725
   60MOL    C9315551   1.411   3.184   7.707 -0.5818  0.4635  0.0536
   60MOL    N9415552   1.273   3.155   7.667  0.4467  0.3209 -0.1542
   60MOL    C9515553   1.191   3.059   7.716 -0.1825 -0.0837  1.2494
   60MOL    O9615554   1.224   2.988   7.812  0.0286 -0.2673 -0.7700
   60MOL    C9715555   1.048   3.041   7.676 -0.0288 -0.5785 -0.5061
   60MOL    C9815556   1.515   3.071   7.663 -0.8737 -0.2369 -0.2607
   60MOL    H9915557   1.437   3.273   7.650 -0.4759  0.0438 -0.5581
   60MOL   H10015558   1.229   3.218   7.600 -0.1133 -0.5168 -0.5753
   60MOL   H10115559   1.043   3.046   7.567  1.0769 -0.0213 -0.5374
   60MOL   H10215560   1.008   2.946   7.711  0.6743 -0.9935 -0.8186
   60MOL   H10315561   0.986   3.120   7.720  1.1558  0.3560 -0.4933
   60MOL   H10415562   1.613   3.115   7.681 -1.4212  2.4995 -3.4967
   60MOL   H10515563   1.504   2.985   7.729 -1.6569  1.1567  1.4790
   60MOL   C10615564   1.502   3.025   7.514 -0.7288  0.6306  0.0330
   60MOL   N10715565   1.576   2.900   7.500 -0.9742 -0.9957  0.1777
   60MOL   C10815566   1.515   2.779   7.500 -0.0411 -0.5167  0.4742
   60MOL   O10915567   1.393   2.764   7.503 -0.1952  0.1588 -0.0543
   60MOL   C11015568   1.610   2.662   7.488 -0.3356  0.5319  0.2554
   60MOL   C11115569   1.555   3.122   7.404  0.2379  1.0914 -0.0406
   60MOL   H11215570   1.397   3.002   7.498 -0.8962 -0.0102  1.9194
   60MOL   H11315571   1.677   2.897   7.505 -0.7061 -0.5672 -3.4451
   60MOL   H11415572   1.576   2.578   7.427  0.7874  0.4012 -0.2057
   60MOL   H11515573   1.694   2.692   7.425 -0.3817 -1.7120 -0.9350
   60MOL   H11615574   1.645   2.636   7.587 -0.2373 -1.9409 -0.3902
   60MOL   H11715575   1.508   3.221   7.401 -2.0268  0.0904  1.0507
   60MOL   H11815576   1.655   3.152   7.437  0.4013 -0.0241  0.5048
   60MOL   C11915577   1.583   3.061   7.269  0.1805 -0.0725 -0.1699
   60MOL   N12015578   1.654   3.159   7.189 -0.3396  0.1039  0.2327
   60MOL   C12115579   1.778   3.160   7.139 -0.1798  0.7771  0.2878
   60MOL   O12215580   1.869   3.094   7.184 -0.4575  0.1924  0.3809
   60MOL   C12315581   1.800   3.262   7.030 -0.0086  0.0653  0.5499
   60MOL   C12415582   1.469   2.995   7.192 -0.6167  0.1102 -0.0317
   60MOL   H12515583   1.654   2.979   7.278 -0.7644 -0.8376  0.2703
   60MOL   H12615584   1.590   3.231   7.161 -1.2361 -0.5538  0.5810
   60MOL   H12715585   1.884   3.237   6.965 -0.7831  2.2003 -1.3180
   60MOL   H12815586   1.708   3.277   6.975  0.5419  0.5035 -0.2644
   60MOL   H12915587   1.819   3.362   7.070 -1.0393  0.1289  0.8934
   60MOL   H13015588   1.385   2.950   7.244  0.6654 -3.5963 -1.0417
   60MOL   H13115589   1.421   3.071   7.130 -1.3971 -0.3167  0.0441
   60MOL   C13215590   1.521   2.896   7.080 -0.1273  0.1589  0.3254
   60MOL   N13315591   1.422   2.880   6.974 -0.1154 -0.3250  0.1698
   60MOL   C13415592   1.428   2.914   6.847  0.3068 -0.4097 -0.5522
   60MOL   O13515593   1.523   2.976   6.802 -0.2451  0.0471 -0.1691
   60MOL   C13615594   1.322   2.871   6.746  0.4799 -0.7455 -0.1569
   60MOL   C13715595   1.562   2.751   7.131  0.2729 -0.0484 -0.2260
   60MOL   H13815596   1.610   2.934   7.029 -0.3826 -0.2000 -0.3965
   60MOL   H13915597   1.339   2.836   7.011 -0.5254  0.8456  0.6813
   60MOL   H14015598   1.335   2.774   6.699 -1.4146 -1.2528  0.3003
   60MOL   H14115599   1.218   2.884   6.778  0.2384 -0.3310 -1.0942
   60MOL   H14215600   1.346   2.942   6.667  0.7827  1.3098  1.7172
   60MOL   H14315601   1.656   2.760   7.187  0.4221  0.0873 -0.4975
   60MOL   H14415602   1.493   2.709   7.205 -0.5778 -0.7983 -1.4393
   60MOL   C14515603   1.584   2.637   7.034 -0.3422  0.3803 -0.5379
   60MOL   N14615604   1.621   2.517   7.109  0.1935 -0.1742  0.0548
   60MOL   C14715605   1.523   2.428   7.138  0.6995  0.1149  0.3566
   60MOL   O14815606   1.399   2.457   7.143 -0.0117  0.1098 -0.2598
   60MOL   C14915607   1.566   2.288   7.165  0.1141 -0.1511  0.4437
   60MOL   C15015608   1.700   2.672   6.936 -0.0122 -0.4547  0.5961
   60MOL   H15115609   1.497   2.611   6.974 -0.5180  1.8038 -0.9091
   60MOL   H15215610   1.719   2.492   7.112  0.6253  1.1693 -1.5833
   60MOL   H15315611   1.630   2.243   7.090 -1.9449  0.6669 -1.8838
   60MOL   H15415612   1.603   2.277   7.267 -0.0645 -0.3047  0.4911
   60MOL   H15515613   1.476   2.227   7.163 -0.1994  0.1170  3.3334
   60MOL   H15615614   1.664   2.755   6.875 -0.4222  0.6244  2.2767
   60MOL   H15715615   1.778   2.718   6.996 -1.2216  1.7896  0.5128
   60MOL   C15815616   1.766   2.569   6.838 -0.0047 -1.0772  0.5212
   60MOL   N15915617   1.867   2.503   6.922  0.4965 -0.7401  0.8927
   60MOL   C16015618   1.874   2.375   6.935  0.7043  0.1350  0.2019
   60MOL   O16115619   1.800   2.294   6.882 -0.0137  0.0240  0.3034
   60MOL   C16215620   1.988   2.328   7.024 -0.1789 -1.0002 -0.2654
   60MOL   C16315621   1.841   2.642   6.723  0.1823 -0.2539 -0.1987
   60MOL   H16415622   1.697   2.497   6.795  0.8292 -0.9175 -1.1418
   60MOL   H16515623   1.937   2.572   6.947 -0.2620  0.6789 -0.7553
   60MOL   H16615624   1.955   2.275   7.114 -2.0369 -0.2821 -0.5091
   60MOL   H16715625   2.032   2.244   6.971  0.8572 -1.5750  1.4597
   60MOL   H16815626   2.063   2.405   7.042  0.2996 -1.8248  1.4200
   60MOL   H16915627   1.839   2.751   6.731  1.9410  0.0569 -3.4155
   60MOL   H17015628   1.942   2.601   6.717 -0.3128 -1.4563 -0.4994
   60MOL   C17115629   1.790   2.607   6.578 -0.1945 -0.1756 -0.5642
   60MOL   N17215630   1.897   2.634   6.483  0.9736 -0.1757 -0.0951
   60MOL   C17315631   1.945   2.546   6.397  0.4720  0.2781  0.2825
   60MOL   O17415632   1.891   2.436   6.375 -0.4387  0.1415 -0.5214
   60MOL   C17515633   2.058   2.591   6.317 -0.0905 -0.3693  0.5097
   60MOL   C17615634   1.656   2.664   6.526 -0.3121 -0.3008 -0.9935
   60MOL   H17715635   1.774   2.499   6.585 -0.9075  0.0567  1.5522
   60MOL   H17815636   1.924   2.731   6.477 -1.2692  0.4355 -0.9152
   60MOL   H17915637   2.071   2.509   6.246 -1.1864  0.7877 -1.0641
   60MOL   H18015638   2.029   2.686   6.273  0.1193  0.3356  1.8626
   60MOL   H18115639   2.151   2.604   6.372 -0.3164  2.0846  0.3694
   60MOL   H18215640   1.619   2.598   6.447 -2.4723 -0.4792  0.1205
   60MOL   H18315641   1.586   2.656   6.609  2.1575  1.0346  1.2957
   60MOL   C18415642   1.660   2.819   6.481  0.0524  0.3989 -0.3748
   60MOL   N18515643   1.691   2.916   6.590 -0.1619 -0.0414  0.6296
   60MOL   C18615644   1.806   2.993   6.597  1.0058 -0.6462  0.1899
   60MOL   O18715645   1.905   2.966   6.522 -0.0801 -0.0665 -0.8220
   60MOL   C18815646   1.814   3.106   6.699 -0.2385  0.2303 -0.6138
   60MOL   C18915647   1.524   2.859   6.421 -0.1477  0.4205  0.0130
   60MOL   H19015648   1.742   2.820   6.408  1.5936  0.1957  1.3091
   60MOL   H19115649   1.627   2.922   6.667  1.4725 -1.1343  2.1284
   60MOL   H19215650   1.912   3.154   6.696  0.5372 -1.0661  1.9387
   60MOL   H19315651   1.738   3.179   6.672 -2.0515 -0.4133  2.4689
   60MOL   H19415652   1.795   3.070   6.800  0.7866  0.1985 -0.4242
   60MOL   H19515653   1.504   2.807   6.327 -1.6128 -1.0623  1.1040
   60MOL   H19615654   1.449   2.825   6.493 -0.1339 -1.7018 -0.9265
   60MOL   C19715655   1.501   3.003   6.397 -0.4241 -0.4082  0.8121
   60MOL   N19815656   1.367   3.027   6.339  0.0315 -0.2533 -0.2573
   60MOL   C19915657   1.288   3.133   6.360  0.5623 -0.0377 -0.2272
   60MOL   O20015658   1.322   3.230   6.432 -0.3846 -0.1892 -0.8344
   60MOL   C20115659   1.155   3.133   6.291 -0.4021 -0.0304  0.8112
   60MOL   C20215660   1.612   3.052   6.298 -0.1971  0.1954  0.7904
   60MOL   H20315661   1.506   3.055   6.492 -1.9440 -0.1870  0.7811
   60MOL   H20415662   1.324   2.945   6.298  0.2587 -1.0039  0.9961
   60MOL   H20515663   1.072   3.091   6.349 -3.1658  3.2557 -0.5733
   60MOL   H20615664   1.129   3.235   6.264  3.2031  0.6087 -0.4610
   60MOL   H20715665   1.159   3.087   6.192 -1.6962  1.7057 -0.0705
   60MOL   H20815666   1.715   3.022   6.318 -0.2624  0.3538  1.3803
   60MOL   H20915667   1.597   3.002   6.202  0.4247  0.1856  0.6962
   60MOL   C21015668   1.622   3.205   6.258  0.1161 -0.3555  0.7126
   60MOL   N21115669   1.596   3.279   6.376  0.0406  0.1392 -0.0166
   60MOL   C21215670   1.672   3.367   6.445  0.0579  0.1466 -0.0027
   60MOL   O21315671   1.785   3.406   6.417  0.1503  0.2594  0.4193
   60MOL   C21415672   1.600   3.418   6.570 -0.0807 -1.0820  0.2039
   60MOL   C21515673   1.543   3.267   6.138  0.3688  0.4977 -0.5909
   60MOL   H21615674   1.724   3.221   6.224 -0.9168  0.9013 -1.9443
   60MOL   H21715675   1.505   3.261   6.416  0.1505 -2.6840 -0.9377
   60MOL   H21815676   1.675   3.445   6.645  0.6860  0.2836 -1.0387
   60MOL   H21915677   1.537   3.504   6.547 -0.6167 -1.3215  0.7459
   60MOL   H22015678   1.527   3.346   6.607 -0.7682 -0.3270  0.3424
   60MOL   H22115679   1.441   3.230   6.151  1.0254 -1.4196 -0.8333
   60MOL   H22215680   1.539   3.375   6.154  1.5713  0.6290 -1.1711
   60MOL   C22315681   1.589   3.220   6.001  0.4228  0.1490  0.4219
   60MOL   N22415682   1.724   3.267   5.971  1.0441 -0.4466  1.0886
   60MOL   C22515683   1.810   3.222   5.880 -0.3747 -0.0657  0.1175
   60MOL   O22615684   1.915   3.280   5.850  0.1152 -0.5628 -0.4922
   60MOL   C22715685   1.802   3.083   5.824  0.5103 -0.2898  0.7045
   60MOL   C22815686   1.498   3.276   5.889 -0.6038  0.3507  0.1703
   60MOL   H22915687   1.593   3.114   5.979 -0.8400  0.2012 -0.1258
   60MOL   H23015688   1.751   3.346   6.029  0.4490  0.7671 -0.2629
   60MOL   H23115689   1.853   3.070   5.728 -0.5282 -0.1309  0.1257
   60MOL   H23215690   1.834   3.007   5.896  1.5039 -1.8290 -1.2911
   60MOL   H23315691   1.698   3.063   5.801  0.6678  1.0099 -1.2172
   60MOL   H23415692   1.466   3.376   5.918  0.4511  0.8107 -0.2274
   60MOL   H23515693   1.553   3.289   5.796  1.3632 -3.5844  0.6712
   60MOL   C23615694   1.366   3.205   5.850 -0.2593  0.4480  0.4133
   60MOL   N23715695   1.404   3.091   5.764 -0.2894  0.8643 -0.8630
   60MOL   C23815696   1.328   2.981   5.753 -0.2403 -0.3015 -0.3218
   60MOL   O23915697   1.226   2.970   5.820 -0.4247 -0.2412  0.0793
   60MOL   C24015698   1.368   2.882   5.644 -0.0966 -0.2028  0.2059
   60MOL   C24115699   1.273   3.302   5.778 -0.3465  0.8413 -0.2803
   60MOL   H24215700   1.326   3.172   5.946  1.4987  0.8006  1.2994
   60MOL   H24315701   1.481   3.103   5.699  1.3221 -2.4880  0.3070
   60MOL   H24415702   1.464   2.834   5.662  1.1222  1.7408 -0.9071
   60MOL   H24515703   1.297   2.800   5.635 -0.0124 -0.1121 -1.4308
   60MOL   H24615704   1.364   2.933   5.547  2.1773  0.1789  0.2906
   60MOL   H24715705   1.296   3.406   5.803  2.2292  1.0365 -3.1720
   60MOL   H24815706   1.283   3.288   5.671  2.3411  1.0645 -0.0870
   60MOL   C24915707   1.122   3.289   5.815  0.3649 -0.5547  0.0710
   60MOL   N25015708   1.029   3.357   5.724 -0.6364 -0.7198 -0.6596
   60MOL   C25115709   0.899   3.340   5.725 -0.8918 -0.5757 -0.0462
   60MOL   O25215710   0.843   3.247   5.791 -0.0830 -0.0804  0.1115
   60MOL   C25315711   0.816   3.422   5.638 -0.7522 -0.0111  0.1849
   60MOL   C25415712   1.086   3.346   5.958 -0.3245  0.0076 -0.1546
   60MOL   H25515713   1.097   3.183   5.803 -0.5585 -0.1961 -1.2474
   60MOL   H25615714   1.072   3.401   5.644  0.3268 -1.0685 -0.3440
   60MOL   H25715715   0.729   3.460   5.691 -0.1832  1.6256 -0.0052
   60MOL   H25815716   0.880   3.500   5.597 -0.6985  1.2698  2.6169
   60MOL   H25915717   0.784   3.360   5.554  0.8438 -1.3912  0.5662
   60MOL   H26015718   0.983   3.321   5.986 -0.0149 -1.2468 -0.0879
   60MOL   H26115719   1.144   3.310   6.042 -0.1264  1.6765  0.4294
   60MOL   H26215720   1.105   3.453   5.965  1.6965 -0.3358 -0.2054
   61MOL     C115721   2.024   6.709   5.047 -0.4691  0.2151 -0.3640
   61MOL     N215722   2.155   6.674   4.984 -0.3997  0.1269  0.4515
   61MOL     C315723   2.226   6.563   5.019 -0.1530  0.0717  0.1202
   61MOL     O415724   2.173   6.473   5.082  0.3058  0.1981 -0.1829
   61MOL     C515725   2.369   6.561   4.965  0.2802 -0.1302 -0.9339
   61MOL     C615726   1.925   6.730   4.934  0.4496  0.1111  0.1302
   61MOL     H715727   1.974   6.641   5.116  1.5392  0.7070  1.6202
   61MOL     H815728   2.192   6.742   4.920  1.5926 -0.8287  0.5469
   61MOL     H915729   2.433   6.546   5.052 -0.0373  1.8474 -0.3502
   61MOL    H1015730   2.370   6.479   4.892 -2.3207  0.2259 -1.4233
   61MOL    H1115731   2.399   6.647   4.906  0.6598  0.3423 -0.0502
   61MOL    H1215732   1.971   6.786   4.853  0.8057 -0.1224  0.1727
   61MOL    H1315733   1.893   6.630   4.905  0.1613  0.7926 -1.9671
   61MOL    H1415734   2.042   6.795   5.111  2.2438  0.2608 -1.1258
   61MOL    C1515735   1.791   6.806   4.956  0.2887  0.9344  0.5722
   61MOL    N1615736   1.714   6.779   5.070 -0.1897  0.1308 -0.3974
   61MOL    C1715737   1.656   6.863   5.151  0.1728 -0.4929 -0.4593
   61MOL    O1815738   1.654   6.987   5.136  0.1232  0.1671  0.6053
   61MOL    C1915739   1.577   6.796   5.265 -0.0916 -0.6057 -0.3104
   61MOL    C2015740   1.695   6.783   4.836 -1.0744 -0.0856 -0.5134
   61MOL    H2115741   1.821   6.911   4.957 -1.7449  1.5364  1.5310
   61MOL    H2215742   1.706   6.682   5.097  2.3381  0.1628  0.6225
   61MOL    H2315743   1.499   6.730   5.228 -0.1753  1.2879 -3.6771
   61MOL    H2415744   1.646   6.752   5.337  0.3154  1.8402  0.8638
   61MOL    H2515745   1.519   6.878   5.309  0.6606  2.0199 -4.0473
   61MOL    H2615746   1.655   6.682   4.829  0.4849 -0.8086  0.6096
   61MOL    H2715747   1.604   6.840   4.854 -1.4617 -0.8860  0.0563
   61MOL    C2815748   1.753   6.820   4.695  1.6087 -0.7440  0.6286
   61MOL    N2915749   1.781   6.959   4.694 -0.4825 -0.2455  0.3007
   61MOL    C3015750   1.873   7.018   4.614 -1.0861 -0.4885 -0.0541
   61MOL    O3115751   1.943   6.958   4.535 -0.6364  0.3789  0.3988
   61MOL    C3215752   1.881   7.169   4.634 -0.4080 -0.0788 -0.1303
   61MOL    C3315753   1.639   6.791   4.591 -0.1024 -0.1192  0.2115
   61MOL    H3415754   1.833   6.756   4.658 -0.5583 -1.4157 -3.2788
   61MOL    H3515755   1.736   7.013   4.767 -1.7294 -1.7881  0.7037
   61MOL    H3615756   1.926   7.204   4.541 -2.3659  0.0845 -1.0288
   61MOL    H3715757   1.788   7.224   4.648 -0.3834 -0.1179  0.2015
   61MOL    H3815758   1.950   7.184   4.717  1.0933  0.2482 -1.4079
   61MOL    H3915759   1.546   6.825   4.636  0.9355  1.2462  1.3647
   61MOL    H4015760   1.655   6.858   4.507 -0.2717  1.8694  1.7140
   61MOL    C4115761   1.641   6.652   4.526 -0.3806  1.4279  0.2356
   61MOL    N4215762   1.609   6.543   4.623  0.6662  0.0309 -0.6376
   61MOL    C4315763   1.493   6.486   4.634  0.6522  0.0110 -0.6833
   61MOL    O4415764   1.390   6.522   4.584  0.4581  0.4794  0.0487
   61MOL    C4515765   1.493   6.357   4.721 -0.3582 -0.2175 -0.3960
   61MOL    C4615766   1.767   6.621   4.442  0.2296  0.0441 -0.1642
   61MOL    H4715767   1.557   6.646   4.456 -0.9406 -1.5588  1.0866
   61MOL    H4815768   1.697   6.508   4.658  0.7636 -0.5004 -1.4013
   61MOL    H4915769   1.408   6.296   4.689  0.0006  0.3581 -2.5198
   61MOL    H5015770   1.584   6.298   4.710  0.0240  0.6781 -2.2814
   61MOL    H5115771   1.479   6.378   4.827 -1.2539 -1.2901 -0.2929
   61MOL    H5215772   1.859   6.618   4.501  0.0260 -1.9066  0.0964
   61MOL    H5315773   1.757   6.516   4.415  1.4217 -1.0594  3.3922
   61MOL    C5415774   1.780   6.695   4.303  1.0293 -0.1514 -0.1008
   61MOL    N5515775   1.672   6.659   4.219 -0.9025 -0.0096  0.1118
   61MOL    C5615776   1.553   6.718   4.197  0.0766 -0.1308 -0.2796
   61MOL    O5715777   1.528   6.836   4.226 -0.1532 -0.2319 -0.5781
   61MOL    C5815778   1.446   6.648   4.126  0.6961 -0.5252 -0.5543
   61MOL    C5915779   1.914   6.658   4.237  0.1260  0.9465 -0.2528
   61MOL    H6015780   1.774   6.802   4.322 -0.4144 -0.4534  1.1863
   61MOL    H6115781   1.673   6.562   4.192 -0.2912  0.4515 -1.5791
   61MOL    H6215782   1.467   6.625   4.022  1.5457 -2.9271  0.1163
   61MOL    H6315783   1.418   6.554   4.175  2.5116 -1.2214 -0.8177
   61MOL    H6415784   1.357   6.711   4.124  1.7047  0.9377  0.2811
   61MOL    H6515785   1.945   6.554   4.232  0.1818  0.8481  1.6266
   61MOL    H6615786   1.908   6.678   4.130 -0.9025 -0.7473 -0.5201
   61MOL    C6715787   2.033   6.749   4.283  0.3660  0.4206  0.4375
   61MOL    N6815788   2.015   6.896   4.276  0.0255 -0.5529 -0.6945
   61MOL    C6915789   1.986   6.968   4.162 -0.4272  0.4372 -0.1951
   61MOL    O7015790   2.006   6.927   4.049  0.1035  0.2261  0.3042
   61MOL    C7115791   1.929   7.111   4.184  0.9231  0.3026 -0.3098
   61MOL    C7215792   2.163   6.709   4.212  0.5558 -0.2934  0.4516
   61MOL    H7315793   2.040   6.735   4.391  0.2458 -1.5285  0.1984
   61MOL    H7415794   1.994   6.937   4.366 -0.6042 -2.2116 -0.0485
   61MOL    H7515795   1.980   7.169   4.261 -0.2885 -1.0006  1.5013
   61MOL    H7615796   1.930   7.167   4.091 -0.9846  1.5080  0.3760
   61MOL    H7715797   1.828   7.099   4.221  0.9561  2.1248  0.4289
   61MOL    H7815798   2.178   6.601   4.223  2.7143 -0.0464  0.2648
   61MOL    H7915799   2.147   6.714   4.105  1.2017 -0.0537  0.3610
   61MOL    C8015800   2.296   6.784   4.244 -0.3575  0.0190  0.0231
   61MOL    N8115801   2.365   6.812   4.113  0.3450 -0.5304  0.2379
   61MOL    C8215802   2.451   6.911   4.080 -0.2841  0.1973  0.6067
   61MOL    O8315803   2.496   6.975   4.176  0.0446  0.0297  0.4945
   61MOL    C8415804   2.483   6.948   3.941 -0.3238  0.5065  1.3256
   61MOL    C8515805   2.389   6.701   4.332  0.2365 -0.1730  0.1883
   61MOL    H8615806   2.275   6.879   4.293 -3.3813 -0.9775  0.7660
   61MOL    H8715807   2.333   6.759   4.034 -1.2212 -1.0497  1.2068
   61MOL    H8815808   2.592   6.954   3.931 -0.3495  4.4741  2.5294
   61MOL    H8915809   2.463   6.858   3.882  1.7850 -0.2805  1.7416
   61MOL    H9015810   2.438   7.035   3.893 -0.3064  1.0973  2.3672
   61MOL    H9115811   2.379   6.604   4.282 -2.1809 -0.5546  1.3726
   61MOL    H9215812   2.492   6.731   4.313  0.5917 -1.0547  0.6622
   61MOL    C9315813   2.351   6.689   4.481  0.0850 -0.6033  0.6162
   61MOL    N9415814   2.335   6.823   4.538  0.8328 -0.0634  0.0415
   61MOL    C9515815   2.276   6.863   4.644 -0.3554 -0.1918  0.1030
   61MOL    O9615816   2.221   6.783   4.725 -0.4889 -0.1780 -0.1272
   61MOL    C9715817   2.257   7.011   4.672 -0.0199 -1.1550 -0.4189
   61MOL    C9815818   2.453   6.589   4.555  0.8016  0.0178  0.5000
   61MOL    H9915819   2.252   6.645   4.484  0.2410 -1.3158 -2.4160
   61MOL   H10015820   2.365   6.898   4.479 -3.0724  2.3329  0.9592
   61MOL   H10115821   2.331   7.031   4.750  0.5133 -1.8437 -0.7441
   61MOL   H10215822   2.279   7.073   4.584 -0.1011  1.5225  1.3693
   61MOL   H10315823   2.154   7.021   4.704  0.9205  1.8449  1.8935
   61MOL   H10415824   2.555   6.612   4.525  0.7688  2.4283  2.1016
   61MOL   H10515825   2.450   6.616   4.660  1.1261  0.5954  0.3627
   61MOL   C10615826   2.427   6.441   4.527  0.0651 -0.3377 -0.9999
   61MOL   N10715827   2.475   6.369   4.644 -0.2053 -0.1131 -0.2617
   61MOL   C10815828   2.410   6.274   4.707 -0.4505  0.2675  0.5380
   61MOL   O10915829   2.293   6.239   4.691 -0.0384  0.1763 -0.1179
   61MOL   C11015830   2.490   6.201   4.813  0.2106  0.3207 -0.3376
   61MOL   C11115831   2.502   6.384   4.395  0.1170 -0.5701 -0.5558
   61MOL   H11215832   2.320   6.428   4.517  0.1417 -0.0388 -2.2783
   61MOL   H11315833   2.573   6.383   4.661 -0.4083 -1.7242  2.6008
   61MOL   H11415834   2.566   6.154   4.750  1.5437  2.4955 -0.4206
   61MOL   H11515835   2.550   6.264   4.879  2.1827 -1.7830 -0.0460
   61MOL   H11615836   2.435   6.121   4.863  2.1793 -1.3016 -0.7195
   61MOL   H11715837   2.527   6.476   4.343 -1.1502 -0.5884 -1.2048
   61MOL   H11815838   2.589   6.323   4.418 -0.3635 -2.1488 -2.7520
   61MOL   C11915839   2.421   6.289   4.307  1.0487 -0.1856  0.3678
   61MOL   N12015840   2.372   6.164   4.361 -0.0138 -0.2569 -0.7773
   61MOL   C12115841   2.430   6.057   4.409 -0.0491  0.6529 -0.0770
   61MOL   O12215842   2.546   6.041   4.405  0.0851 -0.0354  0.3070
   61MOL   C12315843   2.343   5.940   4.452  0.3817 -0.1490 -0.2762
   61MOL   C12415844   2.491   6.268   4.172  0.3250  0.7499  0.9276
   61MOL   H12515845   2.328   6.340   4.283  0.6601 -0.6718  0.8430
   61MOL   H12615846   2.273   6.169   4.377  0.6378 -0.4198  4.0093
   61MOL   H12715847   2.304   5.887   4.365  2.0042  0.0813 -1.1484
   61MOL   H12815848   2.412   5.874   4.503 -0.6616 -0.3313  0.9258
   61MOL   H12915849   2.260   5.968   4.517  1.4713  0.1417  0.9877
   61MOL   H13015850   2.599   6.263   4.182  0.3989  1.7835  0.7451
   61MOL   H13115851   2.453   6.176   4.128 -1.3783  2.1770 -0.6527
   61MOL   C13215852   2.465   6.379   4.060 -0.5403 -0.5168 -0.0286
   61MOL   N13315853   2.323   6.370   4.037  0.6172  0.2408 -0.7997
   61MOL   C13415854   2.239   6.457   3.986  0.8424  0.8335 -0.0181
   61MOL   O13515855   2.269   6.564   3.935  0.0636  0.1827 -0.4033
   61MOL   C13615856   2.094   6.408   3.977  0.4687  0.4562 -0.0128
   61MOL   C13715857   2.557   6.353   3.934  0.1906 -0.2326  0.2090
   61MOL   H13815858   2.476   6.479   4.101 -0.5119 -0.6447  0.2827
   61MOL   H13915859   2.277   6.281   4.051  0.4174  0.7790  2.4553
   61MOL   H14015860   2.014   6.475   4.010  0.5580  1.4170 -1.6867
   61MOL   H14115861   2.072   6.373   3.876 -0.6825  0.2485  0.2975
   61MOL   H14215862   2.082   6.320   4.040 -2.0141  0.3701 -0.5387
   61MOL   H14315863   2.654   6.313   3.963  1.3356  0.4291 -2.5646
   61MOL   H14415864   2.526   6.263   3.880  0.0122  0.7615 -1.3610
   61MOL   C14515865   2.584   6.463   3.830  0.0506 -0.7807 -0.8986
   61MOL   N14615866   2.678   6.420   3.726  0.1636  0.7807  1.2916
   61MOL   C14715867   2.662   6.428   3.589 -0.1922  0.4879 -0.2260
   61MOL   O14815868   2.567   6.482   3.537 -0.3411  0.1811 -0.0303
   61MOL   C14915869   2.772   6.364   3.508  0.2587  0.6935  0.8287
   61MOL   C15015870   2.644   6.599   3.893  0.3123 -0.5855 -0.5635
   61MOL   H15115871   2.494   6.477   3.771 -0.1156 -3.1686 -1.2627
   61MOL   H15215872   2.759   6.370   3.758 -0.6671  0.2648  2.6432
   61MOL   H15315873   2.790   6.426   3.419 -0.9141 -1.0708 -0.6758
   61MOL   H15415874   2.868   6.372   3.558  0.7437 -0.9174  0.2026
   61MOL   H15515875   2.757   6.269   3.458  1.8645 -0.0576  1.7489
   61MOL   H15615876   2.697   6.667   3.826  0.7849 -1.8562 -1.4933
   61MOL   H15715877   2.557   6.652   3.931  2.0245  1.8668  0.1264
   61MOL   C15815878   2.751   6.601   4.006 -0.4054 -0.2682  0.2348
   61MOL   N15915879   2.783   6.741   4.043  0.2322  0.4625  0.1198
   61MOL   C16015880   2.791   6.780   4.169  0.0193 -0.4582  0.0537
   61MOL   O16115881   2.787   6.705   4.266  0.8770 -0.4967  0.8915
   61MOL   C16215882   2.806   6.933   4.202  0.4102  0.0211 -0.0662
   61MOL   C16315883   2.886   6.530   3.966  0.0384  0.4397 -0.1608
   61MOL   H16415884   2.700   6.538   4.079 -0.9579  1.1585  1.0960
   61MOL   H16515885   2.796   6.811   3.971 -1.0132  0.9043  0.3074
   61MOL   H16615886   2.906   6.958   4.169  0.1935  0.9891 -0.0033
   61MOL   H16715887   2.735   6.994   4.145 -0.3532  0.3890  1.2492
   61MOL   H16815888   2.803   6.956   4.308  0.5703  0.9741 -0.2659
   61MOL   H16915889   2.877   6.466   3.878 -1.1825  1.1290 -0.5421
   61MOL   H17015890   2.946   6.609   3.921  1.0322 -0.0509  0.2819
   61MOL   C17115891   2.957   6.459   4.085  0.5037  0.1027  0.4218
   61MOL   N17215892   3.093   6.434   4.047  0.4677 -0.2111 -0.3899
   61MOL   C17315893   3.201   6.512   4.073 -0.8687  0.3631  0.1722
   61MOL   O17415894   3.192   6.629   4.106  0.0146  0.4375 -0.0373
   61MOL   C17515895   3.339   6.454   4.071  0.4084  0.2826  0.1982
   61MOL   C17615896   2.892   6.320   4.134 -0.2821  0.0991  0.4996
   61MOL   H17715897   2.964   6.522   4.174  0.8711  2.8426 -1.4771
   61MOL   H17815898   3.111   6.344   4.003  1.8154  0.3220 -0.9438
   61MOL   H17915899   3.324   6.346   4.074 -0.0618  0.3042 -1.1096
   61MOL   H18015900   3.396   6.491   3.986  0.5710 -1.4524 -0.4512
   61MOL   H18115901   3.381   6.481   4.168 -0.8012  2.1403  0.2440
   61MOL   H18215902   2.803   6.361   4.181 -0.0335  1.1400  0.0819
   61MOL   H18315903   2.870   6.252   4.052 -0.3466  0.6725  0.0413
   61MOL   C18415904   2.962   6.233   4.249  0.3580 -0.0373  0.5974
   61MOL   N18515905   3.083   6.171   4.195  0.3341 -0.0824 -0.2005
   61MOL   C18615906   3.100   6.083   4.099 -0.8232 -0.6363  0.5914
   61MOL   O18715907   3.010   6.041   4.031  0.1027 -0.0468 -0.1163
   61MOL   C18815908   3.231   6.019   4.076 -0.3019 -0.3262 -0.2221
   61MOL   C18915909   2.873   6.120   4.307 -0.1451 -0.1879  0.6703
   61MOL   H19015910   2.985   6.292   4.338 -2.3537  2.2109 -0.1270
   61MOL   H19115911   3.160   6.202   4.254 -0.5372  1.2153  0.2681
   61MOL   H19215912   3.208   5.929   4.019 -1.2991 -0.6918  0.7332
   61MOL   H19315913   3.315   6.076   4.037  1.1174 -1.8317  0.5919
   61MOL   H19415914   3.258   5.981   4.175  2.1301  0.2725 -0.6424
   61MOL   H19515915   2.776   6.153   4.344 -1.6249 -2.2683 -1.2033
   61MOL   H19615916   2.842   6.060   4.221 -0.1364  0.7452  0.0088
   61MOL   C19715917   2.933   6.021   4.410 -0.6884 -0.9999 -0.9329
   61MOL   N19815918   2.858   5.900   4.392  0.3192  0.1878  0.0545
   61MOL   C19915919   2.904   5.792   4.325  0.3637  0.1353 -0.0122
   61MOL   O20015920   3.026   5.777   4.294  0.0662  0.2959 -1.1648
   61MOL   C20115921   2.804   5.677   4.298  0.6727  0.1745 -0.3546
   61MOL   C20215922   2.941   6.058   4.562 -0.4300 -0.1879  0.0753
   61MOL   H20315923   3.031   6.006   4.364 -0.7750  0.4610 -1.6250
   61MOL   H20415924   2.759   5.904   4.409 -0.0700  0.2055 -2.1142
   61MOL   H20515925   2.838   5.591   4.357 -0.4583  0.6768  1.0703
   61MOL   H20615926   2.700   5.689   4.330  1.3058  1.3927  1.3050
   61MOL   H20715927   2.816   5.642   4.195  0.9919 -1.8675  0.3419
   61MOL   H20815928   2.846   6.108   4.579 -1.4360 -1.7587 -0.7587
   61MOL   H20915929   2.945   5.970   4.627 -0.2773 -0.5075 -0.3644
   61MOL   C21015930   3.068   6.138   4.599 -0.3057  0.4522  0.5985
   61MOL   N21115931   3.190   6.055   4.575  0.0848 -0.0468 -0.7032
   61MOL   C21215932   3.277   6.084   4.480 -0.2067 -1.0496  0.2797
   61MOL   O21315933   3.279   6.174   4.395  0.1925  0.0900 -0.5423
   61MOL   C21415934   3.398   5.980   4.485  0.5679 -0.5681 -0.2763
   61MOL   C21515935   3.067   6.181   4.743 -0.4073  0.0048  0.2054
   61MOL   H21615936   3.073   6.230   4.541 -1.0198 -0.4072 -0.8410
   61MOL   H21715937   3.206   5.970   4.627 -0.3895  0.9790  1.1816
   61MOL   H21815938   3.378   5.888   4.430 -1.1353 -0.0621 -0.5290
   61MOL   H21915939   3.484   6.031   4.441 -2.0869  4.3357 -0.1916
   61MOL   H22015940   3.421   5.949   4.587 -2.3420  0.9594  0.9184
   61MOL   H22115941   3.055   6.102   4.817 -0.2209 -1.1928 -1.0344
   61MOL   H22215942   3.163   6.230   4.755 -0.3903  0.5180 -1.8821
   61MOL   C22315943   2.955   6.287   4.787 -0.0250  0.3337 -0.3545
   61MOL   N22415944   2.977   6.412   4.713  0.4138 -0.2543 -0.3855
   61MOL   C22515945   2.875   6.479   4.653 -0.3743  0.2834  0.4944
   61MOL   O22615946   2.759   6.437   4.648  0.3518 -0.3280 -0.0242
   61MOL   C22715947   2.906   6.606   4.583  0.3269  0.0519 -0.1528
   61MOL   C22815948   2.949   6.314   4.938  0.0482 -0.0814 -0.3636
   61MOL   H22915949   2.853   6.254   4.767  0.5767 -1.6728 -0.2242
   61MOL   H23015950   3.066   6.460   4.715  0.1641  0.2505 -1.2420
   61MOL   H23115951   2.837   6.647   4.509  1.4398  1.5335 -0.3948
   61MOL   H23215952   2.925   6.685   4.656 -1.1954 -0.0158  0.3384
   61MOL   H23315953   2.999   6.590   4.529 -0.4212  0.9001 -1.7364
   61MOL   H23415954   3.049   6.309   4.980  0.3651  4.7907 -0.3176
   61MOL   H23515955   2.930   6.420   4.955 -0.1149 -0.1746  0.0453
   61MOL   C23615956   2.864   6.217   5.030  0.2509 -0.3638 -0.5186
   61MOL   N23715957   2.915   6.232   5.169  0.1951 -0.4407  0.3562
   61MOL   C23815958   2.846   6.247   5.285  0.0923 -0.1617 -0.1260
   61MOL   O23915959   2.724   6.250   5.292  1.2026  0.1217  0.1904
   61MOL   C24015960   2.925   6.258   5.414 -0.3293 -0.0417  0.2164
   61MOL   C24115961   2.873   6.069   4.992  0.3169  0.2329 -0.4724
   61MOL   H24215962   2.762   6.256   5.038  0.2587 -0.3314 -0.5840
   61MOL   H24315963   3.013   6.229   5.193 -0.6324 -1.1194  3.9101
   61MOL   H24415964   2.975   6.167   5.448 -1.4018  0.0805  2.2547
   61MOL   H24515965   2.991   6.342   5.397 -1.3746  0.9266  0.8773
   61MOL   H24615966   2.849   6.263   5.492  0.8240 -1.1371  1.4479
   61MOL   H24715967   2.855   6.050   4.887  2.4161 -0.7396 -0.6912
   61MOL   H24815968   2.977   6.043   5.016 -0.1081 -1.1920 -0.0993
   61MOL   C24915969   2.789   5.963   5.066  0.2662  0.7807  0.4380
   61MOL   N25015970   2.833   5.831   5.021  0.3611  0.4921  0.2991
   61MOL   C25115971   2.786   5.706   5.061  0.1323 -0.5378 -0.4623
   61MOL   O25215972   2.707   5.696   5.154 -0.6320 -0.6279  0.0093
   61MOL   C25315973   2.837   5.585   4.983  0.1200 -0.3297  0.4448
   61MOL   C25415974   2.634   5.988   5.054  0.0397  0.0102  0.4716
   61MOL   H25515975   2.829   5.979   5.167 -0.5297  0.0807  0.8645
   61MOL   H25615976   2.908   5.834   4.954  2.1615  0.2777  2.2666
   61MOL   H25715977   2.911   5.546   5.053  1.0918  2.5752  1.1396
   61MOL   H25815978   2.760   5.510   4.973 -1.0454  0.2071  4.4191
   61MOL   H25915979   2.880   5.603   4.884 -2.1356 -2.5388 -0.9866
   61MOL   H26015980   2.570   5.919   5.109 -0.0430 -0.4769 -0.2194
   61MOL   H26115981   2.618   6.086   5.097  2.0314 -0.8640  3.3767
   61MOL   H26215982   2.592   5.971   4.954 -0.1119 -1.7523  0.8118
   62MOL     C115983   2.297   3.954   7.344 -0.3468  0.0647 -0.1850
   62MOL     N215984   2.225   3.857   7.253  0.9469 -0.0290  0.7409
   62MOL     C315985   2.130   3.774   7.286 -0.0522 -0.4775 -0.8558
   62MOL     O415986   2.083   3.759   7.400  0.1028  0.3982  0.2456
   62MOL     C515987   2.073   3.696   7.169  0.1871 -0.0870  0.4091
   62MOL     C615988   2.421   3.889   7.417 -1.0072 -0.2520  0.1530
   62MOL     H715989   2.322   4.040   7.282 -0.8470  0.7678  0.5731
   62MOL     H815990   2.254   3.845   7.157 -0.7174 -1.4303  0.4050
   62MOL     H915991   2.131   3.611   7.132 -1.7864 -2.0019  1.5485
   62MOL    H1015992   1.976   3.655   7.198 -1.0015  1.2524 -1.5275
   62MOL    H1115993   2.068   3.765   7.085  0.7038 -0.2681  0.2219
   62MOL    H1215994   2.476   3.812   7.362 -0.4130  0.0959  0.2592
   62MOL    H1315995   2.503   3.961   7.425  1.8525 -3.3827  0.1100
   62MOL    H1415996   2.220   3.976   7.419 -2.2543 -0.8302 -1.8226
   62MOL    C1515997   2.396   3.846   7.561  0.3884  0.1509 -0.0360
   62MOL    N1615998   2.312   3.725   7.558 -0.1599  0.1619  0.4980
   62MOL    C1715999   2.351   3.613   7.617 -0.4215  0.2475  0.3139
   62MOL    O1816000   2.455   3.605   7.681  0.2988  0.1174 -0.3364
   62MOL    C1916001   2.270   3.481   7.590  0.1330 -0.2736  0.2199
   62MOL    C2016002   2.321   3.959   7.649 -0.3817  0.0389  0.3112
   62MOL    H2116003   2.492   3.828   7.609  0.6087  1.0991 -0.1098
   62MOL    H2216004   2.229   3.720   7.501  1.9602  3.2692 -3.0694
   62MOL    H2316005   2.328   3.402   7.542  2.9384  2.6084 -1.3700
   62MOL    H2416006   2.235   3.441   7.685  3.0362  0.4717  1.6566
   62MOL    H2516007   2.189   3.510   7.523 -0.4719  3.0060  2.2393
   62MOL    H2616008   2.304   4.042   7.581  0.8136  1.0065  1.1486
   62MOL    H2716009   2.226   3.916   7.682  1.0512 -0.5687  3.9812
   62MOL    C2816010   2.385   4.012   7.780  0.2375 -0.4639 -0.0974
   62MOL    N2916011   2.465   3.915   0.011 -0.2211 -0.3561 -0.6307
   62MOL    C3016012   2.580   3.944   0.070  0.1868  0.2166 -0.7975
   62MOL    O3116013   2.613   4.059   0.075 -0.5967 -0.1214  0.1432
   62MOL    C3216014   2.652   3.826   0.134  0.8448  0.0318  0.2950
   62MOL    C3316015   2.296   4.105   0.029  0.7202 -0.2154 -0.4317
   62MOL    H3416016   2.450   4.087   7.736  2.7798 -0.2734  3.7563
   62MOL    H3516017   2.418   3.826   0.029 -0.4854 -0.0370  0.3114
   62MOL    H3616018   2.670   3.739   0.071  3.1268  2.8722 -3.1225
   62MOL    H3716019   2.754   3.859   0.156  1.1301 -2.2084  2.5891
   62MOL    H3816020   2.612   3.790   0.229  1.3206 -1.4415 -0.0509
   62MOL    H3916021   2.364   4.173   0.079 -0.1814  0.2006  0.2483
   62MOL    H4016022   2.237   4.171   7.805 -0.0109  1.0877  1.5410
   62MOL    C4116023   2.191   4.048   0.133  0.0293 -0.2646  0.0460
   62MOL    N4216024   2.105   3.947   0.077 -0.2099  0.2417 -0.1902
   62MOL    C4316025   2.135   3.814   0.086 -0.5356  0.3906  0.7069
   62MOL    O4416026   2.229   3.768   0.148 -0.1327  0.3751  0.1572
   62MOL    C4516027   2.035   3.718   0.020 -0.4683 -0.5627  0.1474
   62MOL    C4616028   2.104   4.158   0.195  0.1350 -0.5926  0.3579
   62MOL    H4716029   2.240   4.003   0.220 -2.1347 -1.3527  0.7409
   62MOL    H4816030   2.040   3.978   0.007  0.0874 -1.8195 -1.4029
   62MOL    H4916031   1.937   3.732   0.064 -0.2856  0.1782  0.3147
   62MOL    H5016032   2.033   3.736   7.752 -1.6503  0.2254  0.2980
   62MOL    H5116033   2.071   3.617   0.039 -0.1292 -0.2038  1.4235
   62MOL    H5216034   2.041   4.191   0.113  0.8465  0.5965  0.2756
   62MOL    H5316035   2.027   4.115   0.260  1.7058 -2.4833  1.0267
   62MOL    C5416036   2.173   4.269   0.275 -0.2413  0.3896  0.2001
   62MOL    N5516037   2.205   4.221   0.408  0.3618 -0.2571  0.4384
   62MOL    C5616038   2.324   4.174   0.447 -0.0213 -0.0184  0.0890
   62MOL    O5716039   2.339   4.114   0.556 -0.4309  0.1018 -0.5298
   62MOL    C5816040   2.442   4.163   0.345 -0.0097  0.2834  0.4508
   62MOL    C5916041   2.074   4.386   0.291 -0.1929 -0.5422  0.6757
   62MOL    H6016042   2.254   4.320   0.222 -0.3428  0.4073  0.0624
   62MOL    H6116043   2.135   4.223   0.480  0.3517  0.5177  0.4065
   62MOL    H6216044   2.440   4.242   0.271  1.6409 -2.6661 -2.9132
   62MOL    H6316045   2.530   4.171   0.410  0.9587  0.6244 -0.8785
   62MOL    H6416046   2.444   4.069   0.289  0.2369  0.4376  0.2017
   62MOL    H6516047   2.038   4.409   0.190  0.6572 -1.7580  0.0927
   62MOL    H6616048   1.986   4.346   0.342 -0.2146  0.1636  1.2095
   62MOL    C6716049   2.103   4.506   0.379  0.5191  0.1343 -0.1521
   62MOL    N6816050   1.969   4.568   0.404 -0.5767  0.0363 -0.4699
   62MOL    C6916051   1.936   4.665   0.493  0.1305 -0.3837 -0.2694
   62MOL    O7016052   2.014   4.734   0.564  0.4607  0.3382  0.7937
   62MOL    C7116053   1.790   4.686   0.506  0.1992 -0.4033  0.5376
   62MOL    C7216054   2.201   4.600   0.323 -0.0361  0.2601 -1.0426
   62MOL    H7316055   2.128   4.473   0.480  0.8325  0.1565 -0.2224
   62MOL    H7416056   1.896   4.514   0.361  1.5479 -2.7910 -0.6890
   62MOL    H7516057   1.760   4.719   0.605 -0.3130  1.6725 -0.2840
   62MOL    H7616058   1.760   4.761   0.433  1.2318 -0.1706  0.3532
   62MOL    H7716059   1.733   4.597   0.476 -1.0911  0.3322  0.7720
   62MOL    H7816060   2.210   4.686   0.389 -0.2542 -0.1276 -0.5091
   62MOL    H7916061   2.294   4.542   0.319 -0.0803  0.1509 -0.4787
   62MOL    C8016062   2.182   4.658   0.176  0.0377 -0.3277 -0.0851
   62MOL    N8116063   2.315   4.701   0.138  0.3817 -0.0374  0.3903
   62MOL    C8216064   2.374   4.661   0.023  0.4387  0.1146 -0.5970
   62MOL    O8316065   2.324   4.577   7.789 -0.3749 -0.7208  0.1012
   62MOL    C8416066   2.501   4.735   7.831 -0.1028 -0.3023  0.3778
   62MOL    C8516067   2.085   4.778   0.166 -0.4998  0.3268  0.6410
   62MOL    H8616068   2.143   4.576   0.116 -0.3914 -0.0843 -0.1425
   62MOL    H8716069   2.348   4.782   0.190 -1.0673  1.4380 -0.9132
   62MOL    H8816070   2.519   4.749   7.725 -0.2754  0.5849  0.4618
   62MOL    H8916071   2.499   4.836   0.032 -2.2477 -0.5283  0.8845
   62MOL    H9016072   2.581   4.681   0.043 -0.2681 -0.4355  0.4968
   62MOL    H9116073   1.987   4.754   0.207 -0.3994  2.2467  2.0382
   62MOL    H9216074   2.128   4.857   0.228 -0.3654  1.6717 -1.1293
   62MOL    C9316075   2.064   4.829   0.020  0.9386  0.1042 -0.1847
   62MOL    N9416076   2.029   4.968   0.021 -0.2610 -0.2003  0.1166
   62MOL    C9516077   2.117   5.065   0.020  0.2138  0.9328  0.0288
   62MOL    O9616078   2.231   5.061   7.806  0.2364  0.0118  0.1787
   62MOL    C9716079   2.082   5.191   0.089  0.4173 -0.2843  0.0406
   62MOL    C9816080   1.942   4.749   7.805 -0.2904  0.1627 -0.7009
   62MOL    H9916081   2.151   4.804   7.800 -0.1234  0.3628 -1.8616
   62MOL   H10016082   1.946   5.002   0.068  2.2371  2.9977  2.3964
   62MOL   H10116083   2.105   5.163   0.191  1.2319 -0.4161 -0.1716
   62MOL   H10216084   2.132   5.282   0.053 -0.1431 -0.6199 -1.6561
   62MOL   H10316085   1.974   5.201   0.093  0.2986 -1.2088 -0.7202
   62MOL   H10416086   1.947   4.648   0.006 -0.7950  0.1178 -0.7559
   62MOL   H10516087   1.849   4.795   7.839  0.7335  1.5964  0.2044
   62MOL   C10616088   1.919   4.729   7.655  0.3275  0.0499  0.0548
   62MOL   N10716089   1.777   4.739   7.618  0.2044  0.3550  0.2558
   62MOL   C10816090   1.671   4.670   7.665  0.0963  0.1277  0.0159
   62MOL   O10916091   1.666   4.586   7.752 -0.3536 -0.3853  0.4172
   62MOL   C11016092   1.534   4.718   7.606  0.1439 -0.2788 -0.3892
   62MOL   C11116093   1.985   4.599   7.595 -0.5223  0.4451  0.5159
   62MOL   H11216094   1.969   4.817   7.612 -0.9812  1.4950  1.4156
   62MOL   H11316095   1.756   4.806   7.545  0.3318 -1.1280 -1.1863
   62MOL   H11416096   1.478   4.628   7.577 -1.9470  0.4760  1.1604
   62MOL   H11516097   1.473   4.770   7.680 -1.1072 -1.2305 -0.7189
   62MOL   H11616098   1.561   4.778   7.519  0.0838 -1.0615 -0.9555
   62MOL   H11716099   2.071   4.569   7.656  1.0218  3.4531 -0.0567
   62MOL   H11816100   1.907   4.523   7.599 -0.6862  0.3378 -3.2489
   62MOL   C11916101   2.012   4.600   7.452  0.2294  0.5674  0.0782
   62MOL   N12016102   2.050   4.457   7.425  0.1091 -0.0332  0.2455
   62MOL   C12116103   2.018   4.386   7.316  0.3588  0.0639 -0.1570
   62MOL   O12216104   1.932   4.422   7.233 -0.4499  0.8090  0.2728
   62MOL   C12316105   2.099   4.267   7.281 -0.4667  0.0438 -0.2176
   62MOL   C12416106   2.117   4.694   7.405  0.4261 -0.4940  0.2221
   62MOL   H12516107   1.915   4.633   7.415 -0.9981 -0.3009  2.4378
   62MOL   H12616108   2.121   4.414   7.481 -0.4926  0.9746  1.8010
   62MOL   H12716109   2.058   4.212   7.196 -0.9088  0.8228 -0.5085
   62MOL   H12816110   2.196   4.307   7.252  0.2427 -1.9527 -0.7163
   62MOL   H12916111   2.110   4.192   7.360 -0.2969 -0.4365 -0.6936
   62MOL   H13016112   2.124   4.789   7.458  1.1045 -2.4722  3.8975
   62MOL   H13116113   2.215   4.645   7.413  1.4497  1.4025 -0.4182
   62MOL   C13216114   2.101   4.717   7.248  0.3422 -0.4146 -0.4372
   62MOL   N13316115   2.221   4.771   7.190  0.2297 -0.0754  0.1592
   62MOL   C13416116   2.318   4.690   7.143 -0.5124 -0.5428 -0.2516
   62MOL   O13516117   2.307   4.569   7.135 -0.3372 -0.1246 -0.0567
   62MOL   C13616118   2.453   4.759   7.105 -0.1052  0.2054  0.1385
   62MOL   C13716119   1.982   4.807   7.218 -0.5195 -0.7777 -0.2926
   62MOL   H13816120   2.087   4.617   7.209 -2.2045  0.1514 -1.0554
   62MOL   H13916121   2.232   4.871   7.191  0.9191 -0.1479  2.0403
   62MOL   H14016122   2.495   4.702   7.022 -0.8232 -0.8711  0.5114
   62MOL   H14116123   2.437   4.856   7.058 -0.8692 -1.3328 -2.9159
   62MOL   H14216124   2.528   4.755   7.184 -1.2030 -0.6086  1.1471
   62MOL   H14316125   1.915   4.825   7.302 -2.5372 -0.1170 -2.0297
   62MOL   H14416126   2.019   4.905   7.189 -0.0219 -0.8667  0.0254
   62MOL   C14516127   1.884   4.764   7.105  0.3852  0.0464 -0.3953
   62MOL   N14616128   1.806   4.653   7.153  0.1358  0.5312 -0.0077
   62MOL   C14716129   1.667   4.654   7.175  0.3871  0.1543  0.4219
   62MOL   O14816130   1.596   4.743   7.140 -0.4838  0.0084  0.2995
   62MOL   C14916131   1.607   4.525   7.233 -0.1657  0.4732 -0.6818
   62MOL   C15016132   1.950   4.721   6.970  0.2299  0.9520 -0.2721
   62MOL   H15116133   1.812   4.845   7.095 -1.7041 -1.6379  0.3337
   62MOL   H15216134   1.852   4.564   7.165 -1.3198 -0.2834 -0.4318
   62MOL   H15316135   1.654   4.540   7.330  0.5665  0.1425 -0.9886
   62MOL   H15416136   1.500   4.537   7.252  0.0884 -1.9355  2.7592
   62MOL   H15516137   1.648   4.427   7.209  0.7201  0.8197 -0.5770
   62MOL   H15616138   2.044   4.672   6.993 -0.0972  0.0924 -0.7186
   62MOL   H15716139   1.880   4.648   6.929  1.2842 -0.7316  0.8883
   62MOL   C15816140   1.959   4.833   6.868 -0.7233  0.6216 -0.1000
   62MOL   N15916141   1.901   4.803   6.739  0.2939  0.1913  0.1383
   62MOL   C16016142   1.916   4.706   6.649 -0.7670 -0.2222  0.3107
   62MOL   O16116143   1.979   4.603   6.678  0.0583  0.0854  0.3404
   62MOL   C16216144   1.856   4.723   6.507 -0.2671  0.3451 -0.3280
   62MOL   C16316145   2.107   4.875   6.844 -0.6064  0.7704  0.9267
   62MOL   H16416146   1.899   4.914   6.910 -0.4359  0.3603  0.8481
   62MOL   H16516147   1.856   4.886   6.702 -1.7804 -0.8657  0.1860
   62MOL   H16616148   1.880   4.824   6.472 -0.3391  0.6487  0.4876
   62MOL   H16716149   1.904   4.648   6.444 -1.4675  0.2689 -1.1639
   62MOL   H16816150   1.750   4.705   6.526  0.2859 -0.9657  1.7530
   62MOL   H16916151   2.173   4.850   6.927 -2.1897  1.0846  2.3038
   62MOL   H17016152   2.151   4.817   6.762  0.1908  3.0512 -0.3127
   62MOL   C17116153   2.130   5.027   6.829 -0.2416  0.3524 -0.1504
   62MOL   N17216154   2.051   5.072   6.716 -0.8186  0.2520 -0.5845
   62MOL   C17316155   1.999   5.196   6.705  0.3832 -0.2505  0.9481
   62MOL   O17416156   2.009   5.288   6.785 -0.2262 -0.0456  0.4311
   62MOL   C17516157   1.930   5.217   6.568 -0.0757 -0.3073 -0.1445
   62MOL   C17616158   2.286   5.063   6.815  0.0648  0.2240 -0.4840
   62MOL   H17716159   2.108   5.081   6.921  1.6089  1.4911 -0.3445
   62MOL   H17816160   2.029   5.003   6.645  0.8672 -0.2822 -0.6092
   62MOL   H17916161   2.001   5.201   6.487  0.8810  2.2869  0.1199
   62MOL   H18016162   1.837   5.161   6.562  0.1531 -0.4323 -2.9478
   62MOL   H18116163   1.913   5.323   6.548  1.6769 -0.3404 -1.9681
   62MOL   H18216164   2.302   5.169   6.832 -0.9968  0.3034  0.0239
   62MOL   H18316165   2.331   5.016   6.903  1.6064  0.5660 -1.0656
   62MOL   C18416166   2.345   5.032   6.678 -0.5164  0.0255 -0.0531
   62MOL   N18516167   2.343   4.889   6.649 -0.5514 -0.0341 -0.4448
   62MOL   C18616168   2.284   4.829   6.541  0.0551 -0.2475 -0.4509
   62MOL   O18716169   2.209   4.889   6.460  0.3032  0.5696 -0.3551
   62MOL   C18816170   2.292   4.681   6.523 -0.1382 -0.5096 -0.4454
   62MOL   C18916171   2.490   5.084   6.664  0.1278 -0.4349 -0.3742
   62MOL   H19016172   2.278   5.090   6.614 -0.5641  0.4047  0.3373
   62MOL   H19116173   2.398   4.825   6.704  2.9780  2.5726 -0.7844
   62MOL   H19216174   2.320   4.631   6.616 -0.0553  1.4292  0.5963
   62MOL   H19316175   2.198   4.637   6.491 -0.7579 -0.9021  1.8269
   62MOL   H19416176   2.358   4.653   6.440  0.4988  1.9182 -0.7889
   62MOL   H19516177   2.554   5.052   6.747  0.4080  2.4187  0.5508
   62MOL   H19616178   2.537   5.029   6.582 -1.3429 -1.0206 -0.8408
   62MOL   C19716179   2.497   5.237   6.640 -0.4380 -0.5298  0.6838
   62MOL   N19816180   2.505   5.272   6.497 -0.5080  0.3546  0.1845
   62MOL   C19916181   2.484   5.395   6.451  0.4228 -0.4678  0.8914
   62MOL   O20016182   2.465   5.496   6.519  0.0277  0.3684 -0.2015
   62MOL   C20116183   2.466   5.410   6.300 -0.4545  0.3804  0.1744
   62MOL   C20216184   2.617   5.295   6.720  0.3099  0.6566  0.0516
   62MOL   H20316185   2.401   5.284   6.662 -0.7887 -1.0226  0.2266
   62MOL   H20416186   2.520   5.189   6.442 -0.4059  0.7251 -0.3469
   62MOL   H20516187   2.364   5.416   6.262 -0.5433 -0.8504  0.2245
   62MOL   H20616188   2.527   5.487   6.252  0.2236 -2.1313 -3.2102
   62MOL   H20716189   2.496   5.324   6.241 -2.4431  0.0523 -0.4122
   62MOL   H20816190   2.700   5.228   6.701  1.5199  1.9582  0.6739
   62MOL   H20916191   2.644   5.393   6.679  0.4714  0.3518 -0.5818
   62MOL   C21016192   2.601   5.310   6.874 -0.3814 -0.1767  0.6807
   62MOL   N21116193   2.479   5.386   6.895  0.1124 -0.1039 -0.1124
   62MOL   C21216194   2.392   5.365   6.995  0.3820  0.8091  0.2956
   62MOL   O21316195   2.428   5.306   7.094  0.4697  0.7388  0.4197
   62MOL   C21416196   2.249   5.415   6.976  0.4480  0.3613  0.1593
   62MOL   C21516197   2.715   5.391   6.932 -0.2025  0.2527 -0.6700
   62MOL   H21616198   2.590   5.209   6.912  2.4661 -0.8207 -0.1029
   62MOL   H21716199   2.450   5.441   6.815  0.9476 -0.4861 -0.6863
   62MOL   H21816200   2.258   5.524   6.984  1.0793  0.2481  1.0945
   62MOL   H21916201   2.210   5.406   6.875  1.2948 -2.8617  0.0834
   62MOL   H22016202   2.188   5.376   7.058  0.6714  1.4160  0.8374
   62MOL   H22116203   2.797   5.398   6.860  1.5927 -0.0697  1.2681
   62MOL   H22216204   2.681   5.494   6.940 -0.1937  0.0395  3.3030
   62MOL   C22316205   2.784   5.325   7.058 -0.2225 -0.0847  0.1924
   62MOL   N22416206   2.696   5.289   7.170  0.2500  0.3137 -0.0715
   62MOL   C22516207   2.723   5.219   7.283  0.9010 -0.3887  0.1951
   62MOL   O22616208   2.836   5.172   7.287  0.5625 -0.6002  0.0145
   62MOL   C22716209   2.613   5.203   7.392 -0.0060 -0.4673 -0.4331
   62MOL   C22816210   2.899   5.415   7.109 -0.7015 -0.4359 -0.3227
   62MOL   H22916211   2.816   5.227   7.022 -1.0246 -0.1719 -0.3094
   62MOL   H23016212   2.598   5.307   7.154  0.5212  0.0050 -2.2183
   62MOL   H23116213   2.620   5.102   7.433  0.5911 -1.4643 -2.9020
   62MOL   H23216214   2.658   5.273   7.462  0.5163  0.8244 -2.0348
   62MOL   H23316215   2.516   5.236   7.354  0.9617  1.4455 -1.2572
   62MOL   H23416216   2.866   5.519   7.096  1.1553  0.2875  0.6373
   62MOL   H23516217   2.920   5.422   7.216  2.8244  3.3375 -1.1197
   62MOL   C23616218   3.032   5.394   7.037  0.7046  0.5121 -0.6566
   62MOL   N23716219   3.085   5.256   7.067  0.4608 -0.6250  0.6710
   62MOL   C23816220   3.092   5.153   6.976 -0.2361  0.3263  0.0033
   62MOL   O23916221   3.084   5.166   6.853 -0.2650 -0.2792 -0.2356
   62MOL   C24016222   3.115   5.015   7.039  0.3641  0.1454  0.1193
   62MOL   C24116223   3.127   5.505   7.085 -0.8921 -0.0390  0.6245
   62MOL   H24216224   3.021   5.407   6.929 -2.5424  2.1389 -0.1942
   62MOL   H24316225   3.070   5.224   7.162 -0.2038 -3.6765 -0.3844
   62MOL   H24416226   3.131   4.952   6.952  1.4995 -0.2207  0.5787
   62MOL   H24516227   3.212   5.024   7.087  1.3421 -0.5220 -1.6979
   62MOL   H24616228   3.041   4.976   7.109  0.8070  0.2291  0.6367
   62MOL   H24716229   3.086   5.596   7.042 -1.2269 -1.6682 -2.5931
   62MOL   H24816230   3.123   5.513   7.194  1.9661  0.1828  0.7538
   62MOL   C24916231   3.281   5.485   7.050  0.3013  0.2093 -0.0758
   62MOL   N25016232   3.360   5.604   7.098 -0.3203 -0.2289  0.2612
   62MOL   C25116233   3.416   5.615   7.221  0.1254  0.1033 -0.5611
   62MOL   O25216234   3.411   5.528   7.311  0.0657  0.5996  0.4923
   62MOL   C25316235   3.507   5.738   7.241  0.2293  0.2824  0.6077
   62MOL   C25416236   3.309   5.455   6.906 -0.0822  0.3321  0.0919
   62MOL   H25516237   3.315   5.396   7.103 -0.0909  0.2159  0.1893
   62MOL   H25616238   3.369   5.680   7.032  1.1948 -1.7504 -1.3531
   62MOL   H25716239   3.457   5.826   7.201 -0.8610 -1.7728 -2.6871
   62MOL   H25816240   3.527   5.746   7.348 -2.3207 -0.9178  1.2130
   62MOL   H25916241   3.599   5.717   7.187  0.2763  1.0381  0.3885
   62MOL   H26016242   3.243   5.377   6.868 -0.6308  1.0544 -0.4537
   62MOL   H26116243   3.270   5.536   6.844  3.4128  0.7123 -1.7416
   62MOL   H26216244   3.416   5.453   6.884  0.1756  1.6558  1.1605
   63MOL     C116245   4.217   4.376   7.591 -0.1436  0.2539  0.8382
   63MOL     N216246   4.152   4.277   7.501  0.4311  0.5077 -0.1444
   63MOL     C316247   4.216   4.186   7.436  0.5618  0.0614 -0.0137
   63MOL     O416248   4.335   4.196   7.415  0.1538  0.9572 -0.3528
   63MOL     C516249   4.131   4.077   7.377  0.1394  0.4617 -0.4046
   63MOL     C616250   4.132   4.506   7.613  0.1523  0.1232  0.0518
   63MOL     H716251   4.221   4.328   7.689  0.5176 -1.3802  0.0307
   63MOL     H816252   4.051   4.271   7.493  0.2017  1.5207  1.6038
   63MOL     H916253   4.047   4.040   7.436  0.5845  1.0262  0.5944
   63MOL    H1016254   4.081   4.121   7.290  0.5787 -0.5024 -1.1581
   63MOL    H1116255   4.196   4.000   7.335 -0.5999  0.8571 -2.3488
   63MOL    H1216256   4.091   4.533   7.516  1.7187  0.2036 -0.6051
   63MOL    H1316257   4.048   4.477   7.676  0.1322 -2.6194 -1.1407
   63MOL    H1416258   4.321   4.390   7.564  0.0947 -1.3770  0.8198
   63MOL    C1516259   4.213   4.617   7.676 -0.0038  0.0987  0.3497
   63MOL    N1616260   4.136   4.700   7.769 -0.3787  0.0436  0.5385
   63MOL    C1716261   4.094   4.665   0.049 -0.0422  0.0832  0.4171
   63MOL    O1816262   4.091   4.548   0.093 -0.6309  0.3249  0.4512
   63MOL    C1916263   4.056   4.781   0.141  1.0865 -0.7150 -0.2151
   63MOL    C2016264   4.255   4.707   7.559 -0.1077  0.0065 -0.1367
   63MOL    H2116265   4.305   4.573   7.715  1.0517  2.5723  0.7240
   63MOL    H2216266   4.130   4.797   7.744  1.1308  0.1559  0.6002
   63MOL    H2316267   4.118   4.871   0.135  3.0105 -1.8376  1.9311
   63MOL    H2416268   3.951   4.800   0.120  0.9959 -2.4154 -1.3473
   63MOL    H2516269   4.054   4.758   0.248 -0.6504 -1.0317 -0.2922
   63MOL    H2616270   4.171   4.712   7.490 -0.4947  1.3245  0.4261
   63MOL    H2716271   4.271   4.807   7.599 -0.4801  1.1704 -2.8267
   63MOL    C2816272   4.394   4.685   7.486  0.0891  0.0178 -0.1675
   63MOL    N2916273   4.503   4.698   7.589 -0.4306  0.5759  0.1310
   63MOL    C3016274   4.628   4.653   7.596 -0.5629 -0.0032 -0.3898
   63MOL    O3116275   4.674   4.570   7.518 -0.1457 -0.7601 -0.2816
   63MOL    C3216276   4.709   4.684   7.722  0.6890 -0.3714  0.5229
   63MOL    C3316277   4.417   4.782   7.374 -0.9185  0.2364  0.5794
   63MOL    H3416278   4.393   4.583   7.449  0.9974  0.5749 -1.7487
   63MOL    H3516279   4.493   4.758   7.669  4.5792  0.4026  1.0992
   63MOL    H3616280   4.793   4.615   7.732  2.2337  1.1585 -1.4492
   63MOL    H3716281   4.769   4.772   7.698  0.5459 -0.5348 -0.4452
   63MOL    H3816282   4.648   4.706   7.810 -0.0353 -0.0086 -0.0691
   63MOL    H3916283   4.390   4.881   7.410 -0.8038  0.2029  0.7566
   63MOL    H4016284   4.521   4.792   7.342 -0.7870  1.6719  1.4290
   63MOL    C4116285   4.325   4.756   7.251 -0.3564 -0.7082 -0.4491
   63MOL    N4216286   4.343   4.616   7.201 -0.0738  0.2193 -0.3064
   63MOL    C4316287   4.243   4.540   7.153 -0.3161  0.2212 -0.1553
   63MOL    O4416288   4.125   4.582   7.152  0.1302  0.0290 -0.1134
   63MOL    C4516289   4.275   4.399   7.114  0.0066  0.3795 -0.0254
   63MOL    C4616290   4.330   4.869   7.139 -0.0922 -0.1884 -0.4867
   63MOL    H4716291   4.228   4.759   7.299 -0.2007  0.1951 -0.1790
   63MOL    H4816292   4.437   4.578   7.203 -0.1516  0.0501  0.1586
   63MOL    H4916293   4.211   4.364   7.033 -1.3476 -1.9775  1.9974
   63MOL    H5016294   4.378   4.390   7.081 -0.3976  3.2584 -2.2726
   63MOL    H5116295   4.252   4.338   7.201  0.5386  0.7158  0.3529
   63MOL    H5216296   4.336   4.969   7.181 -4.9742 -0.1173  0.3135
   63MOL    H5316297   4.429   4.859   7.094 -0.6239  1.9456 -2.2408
   63MOL    C5416298   4.219   4.862   7.039  0.3102 -0.0629  0.9075
   63MOL    N5516299   4.241   4.957   6.931 -0.1051 -0.0409 -0.3730
   63MOL    C5616300   4.257   4.942   6.797 -0.5420  0.5748  0.2894
   63MOL    O5716301   4.261   4.831   6.748  0.6738 -0.5181  0.1857
   63MOL    C5816302   4.277   5.067   6.715 -0.5988 -0.9180 -0.3231
   63MOL    C5916303   4.074   4.881   7.096 -0.1819 -0.1135  0.1066
   63MOL    H6016304   4.224   4.760   6.998 -0.9845 -0.0845  0.8039
   63MOL    H6116305   4.244   5.056   6.952  2.2694  0.1812 -1.6070
   63MOL    H6216306   4.210   5.149   6.741 -0.4316 -1.0493  0.5643
   63MOL    H6316307   4.366   5.129   6.732  1.1028 -2.9723 -1.5284
   63MOL    H6416308   4.265   5.043   6.610 -5.2649  0.8178 -0.2972
   63MOL    H6516309   4.069   4.824   7.189 -0.1187 -0.7108 -0.2515
   63MOL    H6616310   4.053   4.987   7.106  0.1167 -0.0189 -0.2449
   63MOL    C6716311   3.960   4.825   7.008 -0.0119  0.0104 -0.2035
   63MOL    N6816312   3.935   4.888   6.884 -0.2276  0.0403  0.5175
   63MOL    C6916313   3.910   5.016   6.867  0.7946  0.7093  0.1439
   63MOL    O7016314   3.881   5.088   6.957 -0.2662  0.0926  0.4783
   63MOL    C7116315   3.886   5.068   6.729 -0.2633  0.2013 -0.2543
   63MOL    C7216316   3.832   4.792   7.091  0.1127 -0.3401  0.7672
   63MOL    H7316317   3.988   4.725   6.974 -2.2787 -0.4546 -0.7951
   63MOL    H7416318   3.974   4.846   6.801  1.2551  0.4072  1.0157
   63MOL    H7516319   3.905   4.991   6.654  0.8834 -1.3169  1.5382
   63MOL    H7616320   3.782   5.094   6.708 -1.1307 -0.2308  3.1778
   63MOL    H7716321   3.950   5.153   6.707 -1.8060  1.4649  0.1128
   63MOL    H7816322   3.857   4.723   7.172  2.8204  0.1550  0.3926
   63MOL    H7916323   3.798   4.876   7.151 -1.3206 -0.7217  0.5260
   63MOL    C8016324   3.707   4.722   7.026  0.3432  0.0772 -0.0117
   63MOL    N8116325   3.609   4.683   7.129  0.3390  0.4462  0.2354
   63MOL    C8216326   3.522   4.761   7.202 -0.1054  0.2793 -0.2656
   63MOL    O8316327   3.491   4.875   7.169 -0.3118 -0.1626 -0.0849
   63MOL    C8416328   3.453   4.694   7.320 -0.5566  0.0487 -0.0870
   63MOL    C8516329   3.743   4.600   6.938 -0.1103 -0.0358  0.0707
   63MOL    H8616330   3.656   4.794   6.962 -1.9387 -0.6129  0.9761
   63MOL    H8716331   3.627   4.589   7.162  1.3354 -0.2497 -2.1516
   63MOL    H8816332   3.376   4.758   7.363  0.4828  0.8868  0.5377
   63MOL    H8916333   3.407   4.596   7.305 -1.1382  0.0642  1.4910
   63MOL    H9016334   3.522   4.681   7.403  0.7195  0.3464 -1.0982
   63MOL    H9116335   3.656   4.580   6.877  1.1077  1.0210 -2.0796
   63MOL    H9216336   3.823   4.635   6.873 -0.7936  2.5297  0.5526
   63MOL    C9316337   3.793   4.467   6.997  0.2200  0.5326 -0.6801
   63MOL    N9416338   3.850   4.469   7.137 -0.0961  0.6846 -0.4452
   63MOL    C9516339   3.772   4.439   7.241  0.4568 -0.1397  0.1745
   63MOL    O9616340   3.656   4.407   7.237  0.0904 -0.3468  0.1127
   63MOL    C9716341   3.841   4.444   7.374 -0.0312  0.1462  1.0744
   63MOL    C9816342   3.904   4.398   6.912 -0.3798  0.4785 -0.2386
   63MOL    H9916343   3.707   4.401   7.004 -0.8957  2.0661  0.5714
   63MOL   H10016344   3.941   4.511   7.156  0.6575 -0.8118 -0.6973
   63MOL   H10116345   3.907   4.531   7.373  1.9456 -1.3083 -2.5197
   63MOL   H10216346   3.776   4.451   7.461 -2.2564  1.7931 -0.6736
   63MOL   H10316347   3.907   4.358   7.381 -0.7814 -0.5457 -0.3946
   63MOL   H10416348   3.903   4.445   6.813 -0.1011  2.0473  0.4857
   63MOL   H10516349   4.006   4.428   6.934 -1.6534  2.4319  3.5479
   63MOL   C10616350   3.897   4.242   6.917 -0.2284  0.8584  0.4098
   63MOL   N10716351   4.034   4.181   6.905 -0.4806 -0.4108  0.3018
   63MOL   C10816352   4.098   4.091   6.978 -0.0495 -0.3678  0.0947
   63MOL   O10916353   4.039   4.028   7.068  0.2771 -0.1812 -0.5869
   63MOL   C11016354   4.244   4.061   6.950  0.2172 -0.5417 -0.0073
   63MOL   C11116355   3.806   4.188   6.804 -0.4686 -0.6110  0.3582
   63MOL   H11216356   3.853   4.222   7.015 -1.4856  0.0362 -0.3162
   63MOL   H11316357   4.085   4.220   6.826 -2.2570 -0.2460 -0.7952
   63MOL   H11416358   4.283   4.126   6.872  3.2359 -1.3121  0.7833
   63MOL   H11516359   4.307   4.063   7.039  1.1205  2.5178 -0.6567
   63MOL   H11616360   4.250   3.957   6.917 -0.0591  0.1613 -2.3194
   63MOL   H11716361   3.857   4.216   6.712 -0.4052 -0.9015  0.3057
   63MOL   H11816362   3.820   4.082   6.822  1.2443 -0.6112 -0.8487
   63MOL   C11916363   3.657   4.237   6.799  0.2419  0.6929  0.6876
   63MOL   N12016364   3.584   4.184   6.916 -0.9389  0.0295 -0.0364
   63MOL   C12116365   3.478   4.235   6.976  0.7355 -0.4987 -0.3066
   63MOL   O12216366   3.443   4.352   6.950 -0.1844 -0.4640 -0.6673
   63MOL   C12316367   3.412   4.143   7.081  0.9626 -0.6094 -0.4622
   63MOL   C12416368   3.585   4.199   6.671  0.0049  1.0690 -1.1968
   63MOL   H12516369   3.653   4.346   6.801 -0.0718  0.6707  1.4432
   63MOL   H12616370   3.605   4.089   6.943 -3.5899 -0.9712 -1.3317
   63MOL   H12716371   3.307   4.133   7.054  0.6274 -1.1013  0.9627
   63MOL   H12816372   3.458   4.046   7.100  1.0035 -0.3072  1.0419
   63MOL   H12916373   3.420   4.206   7.169  0.7975 -1.1456 -0.0588
   63MOL   H13016374   3.571   4.092   6.656  0.2728  0.4578  2.5915
   63MOL   H13116375   3.482   4.235   6.673 -0.3272  0.0420  0.9392
   63MOL   C13216376   3.640   4.252   6.533  0.4472 -0.5605 -0.5123
   63MOL   N13316377   3.611   4.395   6.534 -0.6563 -0.5918  0.5389
   63MOL   C13416378   3.707   4.491   6.561 -0.0670 -0.2731  0.2605
   63MOL   O13516379   3.824   4.465   6.589 -0.2341  0.1147  0.6129
   63MOL   C13616380   3.668   4.634   6.565 -0.2101  0.0142  0.1611
   63MOL   C13716381   3.579   4.188   6.403  0.1979  0.5519  0.0493
   63MOL   H13816382   3.748   4.238   6.536  0.7721  1.9973  0.2636
   63MOL   H13916383   3.518   4.421   6.503 -0.3819 -2.0644 -1.6373
   63MOL   H14016384   3.614   4.665   6.655 -3.0593  1.5178 -1.9929
   63MOL   H14116385   3.756   4.697   6.552 -1.1316  1.3333  0.2327
   63MOL   H14216386   3.610   4.659   6.477 -1.5205 -0.7536  0.7902
   63MOL   H14316387   3.600   4.081   6.401 -0.5208  0.4215 -0.5905
   63MOL   H14416388   3.471   4.198   6.398  0.1512  0.5802  1.0060
   63MOL   C14516389   3.647   4.255   6.284  0.5145 -0.5155  0.7354
   63MOL   N14616390   3.542   4.294   6.185  0.7864 -0.4111 -0.2640
   63MOL   C14716391   3.536   4.414   6.118 -0.6201 -0.5316  0.3603
   63MOL   O14816392   3.605   4.515   6.142 -0.3335 -0.5000 -0.1667
   63MOL   C14916393   3.432   4.424   6.010  0.2160  0.1358  0.0311
   63MOL   C15016394   3.747   4.160   6.211  0.0295  0.6331 -1.5326
   63MOL   H15116395   3.705   4.339   6.321 -0.4758 -0.7354  2.8569
   63MOL   H15216396   3.471   4.225   6.164  1.5643 -1.8670  1.6228
   63MOL   H15316397   3.485   4.437   5.915  2.2701  0.3643  1.1810
   63MOL   H15416398   3.371   4.335   5.997  0.7785 -0.1720 -0.5682
   63MOL   H15516399   3.367   4.508   6.033  1.7259  1.4023 -0.2408
   63MOL   H15616400   3.820   4.124   6.284 -0.7212 -0.6555 -1.4017
   63MOL   H15716401   3.699   4.068   6.180  0.4426 -1.0243  2.4897
   63MOL   C15816402   3.831   4.216   6.089  0.2030  0.0700  0.3872
   63MOL   N15916403   3.871   4.110   5.994 -0.2145  0.0861 -0.0688
   63MOL   C16016404   3.798   4.051   5.901 -0.8170  0.7573 -0.2553
   63MOL   O16116405   3.831   3.945   5.849 -0.5048 -0.4750  0.7515
   63MOL   C16216406   3.665   4.108   5.857 -0.1865 -0.9150  0.5314
   63MOL   C16316407   3.958   4.296   6.126 -0.4388  0.0423 -0.1945
   63MOL   H16416408   3.765   4.282   6.032  1.0428  0.1768 -0.4817
   63MOL   H16516409   3.956   4.062   6.018 -0.7298 -1.4185 -1.1599
   63MOL   H16616410   3.592   4.106   5.938 -0.1374  0.1318  0.6116
   63MOL   H16716411   3.667   4.204   5.805 -1.8150 -1.1201  0.0523
   63MOL   H16816412   3.629   4.038   5.783 -1.3609 -0.1726  0.3807
   63MOL   H16916413   3.947   4.333   6.228 -0.4937 -1.7546  0.4609
   63MOL   H17016414   4.043   4.228   6.129  0.2180  0.8625 -0.1211
   63MOL   C17116415   4.002   4.420   6.042  0.0789  0.0492  0.1663
   63MOL   N17216416   3.905   4.536   6.065 -0.0269  0.2170  0.5699
   63MOL   C17316417   3.951   4.658   6.075 -0.1627 -1.0565  0.2218
   63MOL   O17416418   4.066   4.693   6.051 -0.0466 -0.2075 -0.2675
   63MOL   C17516419   3.858   4.763   6.129  0.9822  0.7663  0.2973
   63MOL   C17616420   4.014   4.396   5.889 -0.2838 -0.1241  0.3470
   63MOL   H17716421   4.097   4.460   6.074 -0.0742  1.6546 -1.3129
   63MOL   H17816422   3.807   4.516   6.078 -0.0199  1.1379  2.1194
   63MOL   H17916423   3.846   4.842   6.054  0.6673 -1.1618 -1.7294
   63MOL   H18016424   3.766   4.726   6.175  0.3865  0.1204 -1.3938
   63MOL   H18116425   3.917   4.814   6.206 -0.2779  1.0357  1.0936
   63MOL   H18216426   3.961   4.310   5.848 -0.1940 -0.4161  0.8416
   63MOL   H18316427   3.967   4.480   5.837 -1.5070 -1.1730 -0.2760
   63MOL   C18416428   4.151   4.381   5.827  1.1070  0.1141  0.4222
   63MOL   N18516429   4.139   4.358   5.683 -0.3304  0.0165  0.0077
   63MOL   C18616430   4.108   4.455   5.596  0.2024 -0.1883 -0.6017
   63MOL   O18716431   4.098   4.571   5.631  0.0658 -0.1287 -0.1672
   63MOL   C18816432   4.096   4.419   5.451 -0.9479 -0.3399  0.4373
   63MOL   C18916433   4.237   4.270   5.888  0.2649  0.5864  0.4583
   63MOL   H19016434   4.192   4.476   5.860 -1.3455  1.0070  0.9659
   63MOL   H19116435   4.149   4.261   5.654  0.4187 -0.3045  1.3031
   63MOL   H19216436   4.173   4.463   5.388  0.3505  0.0648  2.2579
   63MOL   H19316437   4.097   4.310   5.446 -2.7653 -0.4290  1.5364
   63MOL   H19416438   4.006   4.458   5.402 -1.5514  0.6400  2.2678
   63MOL   H19516439   4.224   4.281   5.996 -0.6183 -1.3542  0.5663
   63MOL   H19616440   4.197   4.177   5.848 -0.0372  1.2505 -0.7954
   63MOL   C19716441   4.387   4.270   5.860  0.6400 -0.5872 -0.4154
   63MOL   N19816442   4.436   4.147   5.805  0.5347  0.5357  0.4371
   63MOL   C19916443   4.422   4.110   5.681 -0.3537 -0.8120  0.0701
   63MOL   O20016444   4.369   4.179   5.588 -0.9530  0.4076  0.1159
   63MOL   C20116445   4.464   3.971   5.648  0.0661  0.9290  0.8682
   63MOL   C20216446   4.484   4.311   5.978 -0.0542  0.1719  0.3191
   63MOL   H20316447   4.397   4.349   5.786  2.2525  1.2864  1.7126
   63MOL   H20416448   4.503   4.096   5.861  0.0149 -0.1929  0.4072
   63MOL   H20516449   4.570   3.951   5.666  0.1012 -0.3854 -0.7910
   63MOL   H20616450   4.414   3.907   5.721 -3.0326  2.6078  0.3312
   63MOL   H20716451   4.436   3.936   5.549 -3.0926  0.1135  1.9976
   63MOL   H20816452   4.446   4.405   6.019 -2.0592 -0.7165  0.5463
   63MOL   H20916453   4.474   4.238   6.057 -0.2028 -2.4382 -2.0353
   63MOL   C21016454   4.637   4.324   5.938 -0.5324  0.2749 -0.4561
   63MOL   N21116455   4.703   4.200   5.962  0.1916 -0.7334 -0.4053
   63MOL   C21216456   4.755   4.124   5.868  0.1239  0.3585  0.0785
   63MOL   O21316457   4.736   4.142   5.749 -0.2336 -0.5242  0.4040
   63MOL   C21416458   4.860   4.030   5.914 -0.0924  0.1984 -1.0278
   63MOL   C21516459   4.714   4.432   6.021 -0.1045 -0.5023 -0.0113
   63MOL   H21616460   4.639   4.357   5.834 -0.9912  0.7088 -0.3344
   63MOL   H21716461   4.724   4.179   6.059 -0.4986 -1.0870 -0.3331
   63MOL   H21816462   4.941   4.074   5.971  0.0374  2.8864 -3.1997
   63MOL   H21916463   4.805   3.957   5.974  0.9523 -0.4178 -0.8170
   63MOL   H22016464   4.910   3.986   5.828  0.4893 -0.4023 -0.3880
   63MOL   H22116465   4.653   4.523   6.025  2.7456  1.4290  2.0003
   63MOL   H22216466   4.713   4.410   6.128  0.3792  0.4249  0.1967
   63MOL   C22316467   4.862   4.454   5.990  0.6198  0.0668 -0.0068
   63MOL   N22416468   4.931   4.520   6.098  0.3199  1.1332 -0.4647
   63MOL   C22516469   4.891   4.615   6.188 -0.1246  0.1593 -0.3700
   63MOL   O22616470   4.793   4.691   6.161  0.5839  0.5810  0.3803
   63MOL   C22716471   4.983   4.640   6.311 -0.0043 -0.5077  0.4144
   63MOL   C22816472   4.891   4.540   5.861 -0.2696 -0.2551 -0.2763
   63MOL   H22916473   4.902   4.353   5.983 -2.1034 -1.0353  0.0401
   63MOL   H23016474   5.018   4.475   6.119  0.6869  1.6870 -0.7916
   63MOL   H23116475   4.951   4.708   6.390  2.1902  0.7269  0.2915
   63MOL   H23216476   5.020   4.555   6.368 -0.0812 -1.7426 -1.3288
   63MOL   H23316477   5.074   4.692   6.278  0.9166 -0.8232  2.3864
   63MOL   H23416478   4.818   4.513   5.784 -2.1583 -0.8442  1.6754
   63MOL   H23516479   4.855   4.640   5.885 -0.7150 -1.1262  2.9733
   63MOL   C23616480   5.035   4.546   5.797  0.0372  0.1497 -0.1306
   63MOL   N23716481   5.041   4.676   5.728  0.2447 -0.6760 -0.1027
   63MOL   C23816482   5.149   4.746   5.688  0.1749  0.5064 -0.3185
   63MOL   O23916483   5.263   4.700   5.692  0.0989  0.1901  0.0662
   63MOL   C24016484   5.130   4.886   5.632  0.1946  0.8914  0.0860
   63MOL   C24116485   5.064   4.424   5.702 -0.0838 -0.5531  0.9225
   63MOL   H24216486   5.116   4.567   5.867 -1.1108  1.3128  0.8891
   63MOL   H24316487   4.951   4.718   5.711  1.1701  1.5655  0.3941
   63MOL   H24416488   5.030   4.896   5.591  0.1617  3.7977  0.7668
   63MOL   H24516489   5.150   4.963   5.707  1.2689 -0.3112  1.0707
   63MOL   H24616490   5.195   4.893   5.544  0.9977  0.5064  0.6391
   63MOL   H24716491   4.979   4.425   5.634 -0.7955 -2.3304  1.7500
   63MOL   H24816492   5.148   4.461   5.645 -0.3644 -0.6398  0.4531
   63MOL   C24916493   5.089   4.287   5.772 -0.1556  0.6692  0.1495
   63MOL   N25016494   5.217   4.279   5.839  0.4362 -0.9284  0.2014
   63MOL   C25116495   5.237   4.311   5.970 -0.3535 -0.1563 -0.4438
   63MOL   O25216496   5.147   4.342   6.044  0.4513 -0.6420 -0.7856
   63MOL   C25316497   5.378   4.314   6.020  0.3804  0.6757  0.0325
   63MOL   C25416498   5.074   4.169   5.673  0.2403  0.1615 -0.2168
   63MOL   H25516499   5.006   4.273   5.841 -0.8474  1.0452 -0.6011
   63MOL   H25616500   5.294   4.239   5.789  1.8047  0.9268  0.7885
   63MOL   H25716501   5.409   4.241   6.095  1.2689  0.5855 -0.4059
   63MOL   H25816502   5.449   4.305   5.938 -0.4417 -1.1607 -0.5018
   63MOL   H25916503   5.391   4.408   6.073 -0.6430  0.3376  0.9030
   63MOL   H26016504   5.137   4.168   5.584  1.0182 -0.0789  0.3367
   63MOL   H26116505   5.083   4.076   5.729  0.6750 -0.0827 -0.6866
   63MOL   H26216506   4.974   4.178   5.629  0.0559  1.0374  0.3711
   64MOL     C116507   4.707   3.140   4.610  0.3779 -0.5768 -0.1643
   64MOL     N216508   4.686   3.142   4.466 -0.3598  0.4016  0.0827
   64MOL     C316509   4.625   3.236   4.394  0.4964  0.1914  0.6843
   64MOL     O416510   4.601   3.347   4.444 -0.1304 -0.1968 -0.0957
   64MOL     C516511   4.592   3.205   4.248 -0.2789  0.3697  0.0084
   64MOL     C616512   4.851   3.118   4.671 -0.1724  0.2786  0.1967
   64MOL     H716513   4.669   3.228   4.662 -0.2703  0.5089 -2.4367
   64MOL     H816514   4.709   3.053   4.424 -0.2269  0.7504 -0.5937
   64MOL     H916515   4.675   3.226   4.181  0.9694 -0.4131  1.2718
   64MOL    H1016516   4.564   3.100   4.238  3.2069 -0.4753 -1.5465
   64MOL    H1116517   4.503   3.259   4.214 -1.7162 -0.6277  2.0600
   64MOL    H1216518   4.918   3.069   4.600 -0.0769  2.8513 -1.5627
   64MOL    H1316519   4.889   3.217   4.694  0.3993 -0.0482  0.6858
   64MOL    H1416520   4.658   3.048   4.645 -1.3976  1.4768  3.0338
   64MOL    C1516521   4.854   3.059   4.811 -0.2876 -0.0883  0.6547
   64MOL    N1616522   4.740   3.111   4.898  0.0073 -1.0683  0.3851
   64MOL    C1716523   4.713   3.230   4.955 -0.6267 -0.5756 -0.3748
   64MOL    O1816524   4.771   3.334   4.924  0.2881 -0.1470  0.1269
   64MOL    C1916525   4.607   3.232   5.063 -0.0348  0.1971 -0.1191
   64MOL    C2016526   4.989   3.078   4.890 -0.4390  0.2172  0.6617
   64MOL    H2116527   4.832   2.953   4.798  0.8275 -0.1233 -1.0699
   64MOL    H2216528   4.678   3.035   4.923  0.7407 -1.4777  0.9699
   64MOL    H2316529   4.597   3.140   5.120 -1.5625  0.2511 -0.2885
   64MOL    H2416530   4.635   3.315   5.129  1.0948  0.3754 -0.8103
   64MOL    H2516531   4.514   3.254   5.011 -0.3471  1.6257  1.0049
   64MOL    H2616532   5.012   3.184   4.901 -0.8377  0.3076  0.6439
   64MOL    H2716533   4.970   3.035   4.989  0.1058  1.3791  1.2866
   64MOL    C2816534   5.108   2.997   4.833  0.0084 -0.4195  0.2861
   64MOL    N2916535   5.071   2.855   4.838 -0.5711  0.3802 -0.0905
   64MOL    C3016536   5.079   2.766   4.733  0.7329 -0.7250  0.0427
   64MOL    O3116537   5.092   2.803   4.618  0.5319 -0.2916 -0.5443
   64MOL    C3216538   5.056   2.616   4.764 -0.4621  0.3063  0.0813
   64MOL    C3316539   5.240   3.020   4.899  0.7668  0.1247  0.1486
   64MOL    H3416540   5.132   3.031   4.732 -0.6219  0.5971  0.4709
   64MOL    H3516541   5.062   2.806   4.925  0.1696  1.4850  0.6250
   64MOL    H3616542   5.147   2.561   4.789 -1.3426 -1.1712  0.1429
   64MOL    H3716543   4.968   2.599   4.827 -1.5553  2.6291 -0.7731
   64MOL    H3816544   5.025   2.565   4.673  0.6539 -1.7891  0.8451
   64MOL    H3916545   5.234   3.015   5.007 -1.1212 -0.4147  0.0418
   64MOL    H4016546   5.304   2.940   4.862  1.0344  0.8021 -0.8872
   64MOL    C4116547   5.305   3.159   4.850 -0.7536  0.1932  0.2124
   64MOL    N4216548   5.368   3.135   4.722  0.5713  0.4105 -0.1656
   64MOL    C4316549   5.369   3.207   4.610  0.4217 -0.1217 -0.2240
   64MOL    O4416550   5.322   3.318   4.613  0.4446  0.1185  0.6107
   64MOL    C4516551   5.421   3.139   4.480  0.8171  0.3318 -0.1287
   64MOL    C4616552   5.405   3.228   4.947 -0.0920  0.0780 -0.3682
   64MOL    H4716553   5.222   3.228   4.829 -1.5775 -0.3781  1.5530
   64MOL    H4816554   5.426   3.054   4.707 -1.2241 -1.2605  1.7662
   64MOL    H4916555   5.519   3.180   4.458 -0.1223  1.4943 -2.2962
   64MOL    H5016556   5.422   3.030   4.488 -0.2021  0.3019 -0.3072
   64MOL    H5116557   5.357   3.160   4.394  1.0905 -1.6980 -0.8744
   64MOL    H5216558   5.496   3.167   4.945  1.0107  1.6248  1.1286
   64MOL    H5316559   5.451   3.320   4.911  0.7245 -0.9815 -2.0999
   64MOL    C5416560   5.368   3.237   5.100  0.4869 -0.0175 -0.3232
   64MOL    N5516561   5.250   3.327   5.119  0.2217 -0.3369 -0.0916
   64MOL    C5616562   5.137   3.283   5.176  0.0857 -0.5836  0.1899
   64MOL    O5716563   5.122   3.163   5.201  0.1569 -0.3216 -0.2354
   64MOL    C5816564   5.022   3.380   5.206 -0.4647 -0.4390 -0.3547
   64MOL    C5916565   5.484   3.283   5.188 -0.1061  0.2256  0.7873
   64MOL    H6016566   5.341   3.138   5.138 -0.5118 -0.1708 -1.4120
   64MOL    H6116567   5.248   3.418   5.075  1.8196 -0.7914 -1.1720
   64MOL    H6216568   4.953   3.348   5.283 -1.6863 -0.6039 -1.4917
   64MOL    H6316569   5.071   3.471   5.240  1.7264  0.0201 -4.3204
   64MOL    H6416570   4.970   3.408   5.114 -1.5041  2.0309  0.9598
   64MOL    H6516571   5.578   3.277   5.133  0.4428  0.2765  1.6986
   64MOL    H6616572   5.471   3.390   5.200  2.9573  0.4535  2.5749
   64MOL    C6716573   5.491   3.219   5.332  0.1278 -0.2541 -0.3399
   64MOL    N6816574   5.366   3.215   5.405 -0.1188  0.1615  0.2945
   64MOL    C6916575   5.313   3.124   5.486 -0.0704 -0.8080 -0.3129
   64MOL    O7016576   5.372   3.021   5.531 -0.1579 -0.1105  0.4082
   64MOL    C7116577   5.178   3.163   5.540  0.1677  0.5724  0.0194
   64MOL    C7216578   5.611   3.279   5.419 -0.7781 -1.1655  0.3695
   64MOL    H7316579   5.515   3.114   5.316 -1.1947 -0.8476  1.5358
   64MOL    H7416580   5.301   3.288   5.378  0.3087  0.3509 -0.2240
   64MOL    H7516581   5.169   3.271   5.552  2.8678  0.5393  2.8994
   64MOL    H7616582   5.102   3.122   5.474  1.1824  2.2564 -2.2852
   64MOL    H7716583   5.144   3.125   5.636 -1.8184 -0.8932 -1.2144
   64MOL    H7816584   5.635   3.197   5.487  0.0933 -0.6275  0.7148
   64MOL    H7916585   5.695   3.276   5.351  0.3491  0.5303  1.6572
   64MOL    C8016586   5.583   3.419   5.484  0.4656  0.4977  0.3420
   64MOL    N8116587   5.567   3.524   5.385  0.4425  0.3076  0.0760
   64MOL    C8216588   5.460   3.606   5.383  0.1998  0.6197  0.1348
   64MOL    O8316589   5.379   3.615   5.476 -0.3545 -0.3338  0.1289
   64MOL    C8416590   5.461   3.690   5.260  0.4865 -0.0908 -0.7085
   64MOL    C8516591   5.705   3.443   5.574 -0.0269 -0.3064 -0.0552
   64MOL    H8616592   5.499   3.408   5.552  0.5151 -1.2606  0.1470
   64MOL    H8716593   5.636   3.525   5.310 -0.9642 -1.3832 -1.2768
   64MOL    H8816594   5.374   3.756   5.253 -0.0644 -0.9672 -2.5208
   64MOL    H8916595   5.549   3.753   5.268  1.5139 -1.6569  0.3257
   64MOL    H9016596   5.463   3.633   5.167 -0.8156 -0.2955 -0.6215
   64MOL    H9116597   5.703   3.358   5.642  0.6390 -0.0941  0.2319
   64MOL    H9216598   5.798   3.442   5.517 -1.1889 -0.2093 -1.9878
   64MOL    C9316599   5.700   3.576   5.662 -0.3122  0.6139  0.0523
   64MOL    N9416600   5.568   3.596   5.715  0.0991 -0.0523  0.0783
   64MOL    C9516601   5.523   3.536   5.824  0.0918 -0.1390  0.1521
   64MOL    O9616602   5.592   3.490   5.908  0.0852 -0.0688  0.5087
   64MOL    C9716603   5.371   3.547   5.845 -0.5678 -0.0236  0.2333
   64MOL    C9816604   5.739   3.709   5.587 -0.0738 -0.3648  0.4874
   64MOL    H9916605   5.767   3.561   5.746 -1.3467 -0.2267  0.7388
   64MOL   H10016606   5.495   3.629   5.653 -0.8430  0.3077  1.3521
   64MOL   H10116607   5.339   3.620   5.919  2.4855 -0.4500  2.0395
   64MOL   H10216608   5.319   3.575   5.753 -0.1257  0.4813  0.1390
   64MOL   H10316609   5.339   3.447   5.876  1.1653 -0.3073  1.1880
   64MOL   H10416610   5.667   3.722   5.506 -0.6256  0.6233  1.1230
   64MOL   H10516611   5.721   3.795   5.652  1.8061  0.0348  0.4858
   64MOL   C10616612   5.883   3.708   5.531 -0.1864  0.7796 -0.5361
   64MOL   N10716613   5.967   3.800   5.615  0.3400 -0.2903  0.1196
   64MOL   C10816614   6.031   3.772   5.730 -0.2117 -0.2621  0.1625
   64MOL   O10916615   5.998   3.676   5.798 -0.6175 -0.5425  0.0246
   64MOL   C11016616   6.144   3.867   5.777  0.2610  0.6136  0.1364
   64MOL   C11116617   5.885   3.759   5.378 -0.4368 -0.6358  0.2369
   64MOL   H11216618   5.931   3.609   5.529 -0.6718  0.5505 -0.8989
   64MOL   H11316619   5.982   3.893   5.577 -1.2233 -0.4705 -0.9849
   64MOL   H11416620   6.238   3.814   5.790  0.5787  1.1030 -0.1199
   64MOL   H11516621   6.155   3.954   5.711  0.7742  0.3634 -0.1093
   64MOL   H11616622   6.114   3.890   5.879  2.1386  3.6890  0.0708
   64MOL   H11716623   5.801   3.713   5.326 -0.8202 -0.1096  0.3909
   64MOL   H11816624   5.860   3.865   5.373  0.7774 -0.2129  2.3835
   64MOL   C11916625   6.014   3.728   5.294 -0.3752  0.0039  0.1628
   64MOL   N12016626   6.140   3.777   5.361  0.4728  0.2521  0.1313
   64MOL   C12116627   6.235   3.704   5.427 -0.2271 -0.1198  0.3118
   64MOL   O12216628   6.225   3.583   5.446 -0.2175 -0.1210  0.0188
   64MOL   C12316629   6.340   3.785   5.489  0.5197 -0.5539  0.2257
   64MOL   C12416630   6.009   3.780   5.146  0.2015  0.1627 -0.1821
   64MOL   H12516631   6.031   3.621   5.281  0.0525  0.2757 -1.7048
   64MOL   H12616632   6.150   3.877   5.368  1.7318  0.3377 -2.1873
   64MOL   H12716633   6.313   3.790   5.595 -1.5257 -0.5316 -0.2751
   64MOL   H12816634   6.438   3.740   5.478  1.5670  1.1452  2.1842
   64MOL   H12916635   6.352   3.886   5.451 -1.7457 -0.6586 -0.8267
   64MOL   H13016636   6.030   3.887   5.150  0.3309  0.1304 -0.0372
   64MOL   H13116637   6.089   3.733   5.090 -0.1802  0.5464 -1.0719
   64MOL   C13216638   5.883   3.747   5.062  0.1904 -0.0829 -0.1776
   64MOL   N13316639   5.886   3.606   5.020 -0.2689 -0.4932 -0.0673
   64MOL   C13416640   5.823   3.507   5.076 -0.1219  0.0729  0.3203
   64MOL   O13516641   5.761   3.517   5.181  0.4612  0.7730 -0.6853
   64MOL   C13616642   5.851   3.372   5.011  0.3777  0.3771  0.2306
   64MOL   C13716643   5.863   3.838   4.935  0.0226 -0.3309 -0.2011
   64MOL   H13816644   5.791   3.766   5.116 -2.5065 -1.9154 -3.9436
   64MOL   H13916645   5.931   3.586   4.932 -0.8905  0.2340 -0.5518
   64MOL   H14016646   5.777   3.359   4.932 -0.1141  0.5441  0.6635
   64MOL   H14116647   5.947   3.358   4.961  0.0681  1.7110 -0.7636
   64MOL   H14216648   5.832   3.282   5.069  1.4234 -0.3391 -0.5072
   64MOL   H14316649   5.952   3.834   4.871 -0.7663 -0.5821 -1.2869
   64MOL   H14416650   5.785   3.787   4.879 -0.8220 -3.0127  3.2127
   64MOL   C14516651   5.832   3.983   4.963 -0.2152 -0.2185 -0.2938
   64MOL   N14616652   5.687   4.000   4.983  0.6639 -0.1504 -0.0268
   64MOL   C14716653   5.630   4.014   5.103 -0.1115 -0.4667 -0.2103
   64MOL   O14816654   5.693   4.028   5.209 -0.1528  0.0982 -0.4939
   64MOL   C14916655   5.478   4.006   5.109  0.3863  0.1742 -0.1248
   64MOL   C15016656   5.884   4.078   4.846  0.5221 -0.0702  0.4636
   64MOL   H15116657   5.882   4.020   5.052 -1.7563 -0.9802  0.9030
   64MOL   H15216658   5.628   3.990   4.901  2.1594 -1.6783 -0.9534
   64MOL   H15316659   5.433   4.105   5.117 -2.6262 -1.0086 -1.8035
   64MOL   H15416660   5.435   3.969   5.016  0.4867  0.9355 -0.4801
   64MOL   H15516661   5.439   3.954   5.196  0.4036  2.1832  1.1134
   64MOL   H15616662   5.834   4.062   4.751  1.2906  1.6349 -0.2466
   64MOL   H15716663   5.840   4.177   4.862  0.5081 -0.1850  1.1889
   64MOL   C15816664   6.038   4.103   4.856 -0.0344 -0.2067 -1.0897
   64MOL   N15916665   6.055   4.208   4.956  0.1187  0.1422  0.1344
   64MOL   C16016666   6.115   4.194   5.078 -0.3234 -0.4043 -0.9993
   64MOL   O16116667   6.179   4.094   5.114  0.7518  0.0625 -0.1151
   64MOL   C16216668   6.091   4.295   5.178  0.4047 -0.4765 -0.7398
   64MOL   C16316669   6.094   4.142   4.723 -0.3041 -0.5781 -0.3956
   64MOL   H16416670   6.083   4.012   4.895 -0.9178 -0.5883 -0.9564
   64MOL   H16516671   5.995   4.289   4.950 -0.6047 -0.4927 -1.3571
   64MOL   H16616672   6.068   4.389   5.129 -0.1945 -0.9220 -1.3118
   64MOL   H16716673   5.999   4.272   5.233  0.0512  0.4488 -0.9399
   64MOL   H16816674   6.168   4.298   5.255  0.0390 -2.6716 -0.2594
   64MOL   H16916675   6.046   4.089   4.641 -1.5575  0.3081 -0.2628
   64MOL   H17016676   6.053   4.235   4.682  0.7229 -0.4662 -1.1862
   64MOL   C17116677   6.242   4.145   4.696  0.4728  0.8383  0.4619
   64MOL   N17216678   6.274   4.172   4.555  0.1580  0.4463  0.3386
   64MOL   C17316679   6.272   4.294   4.495 -0.0304 -0.1638 -0.8173
   64MOL   O17416680   6.247   4.399   4.556  0.3441 -0.3244 -0.3807
   64MOL   C17516681   6.298   4.286   4.346  0.5572 -0.4000 -0.7520
   64MOL   C17616682   6.317   4.016   4.740 -0.0009  0.3894  0.4517
   64MOL   H17716683   6.277   4.231   4.753  2.5546  0.1995  0.1838
   64MOL   H17816684   6.295   4.093   4.494 -0.9042  0.0622  0.4615
   64MOL   H17916685   6.374   4.214   4.317 -0.6198 -1.5437 -1.0728
   64MOL   H18016686   6.206   4.271   4.289 -1.3153  2.0243  1.4927
   64MOL   H18116687   6.336   4.387   4.329  1.0183 -0.2917  0.8426
   64MOL   H18216688   6.324   4.022   4.849 -1.9356  0.6647  0.5869
   64MOL   H18316689   6.254   3.931   4.714 -0.8469  1.2119 -0.2279
   64MOL   C18416690   6.462   4.000   4.676 -0.7152 -0.3263 -0.0134
   64MOL   N18516691   6.510   3.865   4.711  0.0135 -0.2225 -0.7184
   64MOL   C18616692   6.590   3.789   4.633 -0.2031  0.4448 -0.4832
   64MOL   O18716693   6.611   3.812   4.512 -0.2267 -0.3775  0.2613
   64MOL   C18816694   6.665   3.678   4.706 -0.1557  0.2280  0.5064
   64MOL   C18916695   6.557   4.115   4.727  0.0317  0.1569 -0.2925
   64MOL   H19016696   6.457   4.011   4.568  0.4307  1.7180  0.1180
   64MOL   H19116697   6.502   3.846   4.810  0.6999  0.4189 -0.5373
   64MOL   H19216698   6.597   3.601   4.743 -0.4105 -0.9482 -2.3065
   64MOL   H19316699   6.730   3.630   4.633 -0.7697  1.1332 -0.6553
   64MOL   H19416700   6.713   3.717   4.796  0.8834  1.5852 -0.6139
   64MOL   H19516701   6.632   4.139   4.652  1.0063  2.6287  1.4310
   64MOL   H19616702   6.504   4.208   4.744 -1.6207 -0.6694 -0.7310
   64MOL   C19716703   6.640   4.069   4.849 -0.2094  0.4782  0.5551
   64MOL   N19816704   6.566   4.059   4.976  0.5133 -0.4824  0.1322
   64MOL   C19916705   6.527   3.947   5.042 -0.3230 -0.1529  0.2030
   64MOL   O20016706   6.544   3.835   4.995 -0.0274  0.0465  0.0322
   64MOL   C20116707   6.469   3.963   5.176 -0.2273 -0.5092  0.6608
   64MOL   C20216708   6.764   4.161   4.869  0.0615 -0.7879  1.2009
   64MOL   H20316709   6.698   3.980   4.825  1.8348  1.8158  0.4460
   64MOL   H20416710   6.524   4.143   5.015 -1.8447 -2.0024  0.9617
   64MOL   H20516711   6.390   4.037   5.188  0.0994  0.1340 -1.1285
   64MOL   H20616712   6.413   3.876   5.210  0.6497 -2.0212 -1.6671
   64MOL   H20716713   6.544   3.967   5.255  0.8486 -1.8641 -0.2751
   64MOL   H20816714   6.814   4.189   4.777 -1.8782  1.2003  0.7184
   64MOL   H20916715   6.733   4.257   4.910 -0.1489  0.0670 -0.9316
   64MOL   C21016716   6.871   4.108   4.964 -0.3318  0.0741  0.1565
   64MOL   N21116717   6.945   4.215   5.032 -0.8330 -0.1147  0.0360
   64MOL   C21216718   6.984   4.220   5.161  0.0012  0.6067 -0.5093
   64MOL   O21316719   6.947   4.141   5.250  0.4974 -0.1148 -0.0350
   64MOL   C21416720   7.080   4.324   5.198  0.6304 -0.0925 -0.2052
   64MOL   C21516721   6.975   4.017   4.893  0.0622 -0.2886 -0.2329
   64MOL   H21616722   6.814   4.060   5.044  0.2047  0.2267  0.6344
   64MOL   H21716723   6.976   4.295   4.978  1.0632 -1.1715 -0.4812
   64MOL   H21816724   7.042   4.402   5.263 -0.7980 -0.9568  0.0053
   64MOL   H21916725   7.157   4.268   5.252  1.4279  1.0691 -0.1214
   64MOL   H22016726   7.128   4.365   5.108 -0.7613  2.8151  0.3386
   64MOL   H22116727   6.915   3.953   4.828  0.2471  1.0081 -1.6953
   64MOL   H22216728   7.035   4.064   4.815  0.4891  0.3100  0.4543
   64MOL   C22316729   7.056   3.919   4.975  0.1183  0.3761  0.2681
   64MOL   N22416730   7.145   3.831   4.896  0.1581  0.2735  0.6788
   64MOL   C22516731   7.256   3.875   4.836  0.0544  0.1639  0.7550
   64MOL   O22616732   7.287   3.993   4.827  0.0613  0.1267  0.0288
   64MOL   C22716733   7.346   3.773   4.779  0.1139 -0.0030 -0.3364
   64MOL   C22816734   6.975   3.834   5.083  0.4310  0.1038 -0.1832
   64MOL   H22916735   7.120   3.985   5.034  0.7850  0.1498 -0.1990
   64MOL   H23016736   7.121   3.733   4.889 -1.5258  0.5185  2.7065
   64MOL   H23116737   7.391   3.790   4.681  0.0777  1.3533 -0.1282
   64MOL   H23216738   7.425   3.753   4.851  0.3860  1.8226 -0.0981
   64MOL   H23316739   7.281   3.686   4.765  1.6887 -1.3432  0.5456
   64MOL   H23416740   6.914   3.904   5.139  2.7559  2.6194 -0.6507
   64MOL   H23516741   6.904   3.763   5.039 -0.2332  1.0435 -0.6457
   64MOL   C23616742   7.069   3.759   5.176 -1.0282  0.0305  0.3495
   64MOL   N23716743   6.982   3.688   5.275 -0.9642 -0.4751  0.5095
   64MOL   C23816744   6.944   3.559   5.274  0.5355 -0.4450 -0.0694
   64MOL   O23916745   6.998   3.481   5.197 -0.4519 -0.0071 -0.1291
   64MOL   C24016746   6.827   3.514   5.352  0.2933 -0.3372 -0.3349
   64MOL   C24116747   7.158   3.858   5.250  0.6895  0.1718  0.4953
   64MOL   H24216748   7.114   3.681   5.114  0.0103  1.6002 -0.9002
   64MOL   H24316749   6.961   3.732   5.363  1.4080 -1.5897  1.7087
   64MOL   H24416750   6.748   3.587   5.338  1.5876  1.0241 -0.6622
   64MOL   H24516751   6.789   3.415   5.327 -0.6921 -0.6601  2.3441
   64MOL   H24616752   6.849   3.515   5.459 -1.6439  3.4336  0.1047
   64MOL   H24716753   7.229   3.907   5.183 -2.2522  4.3912  0.3171
   64MOL   H24816754   7.095   3.931   5.299 -0.2881 -0.6982  0.5582
   64MOL   C24916755   7.264   3.795   5.341 -0.1417 -0.2071 -0.0803
   64MOL   N25016756   7.324   3.906   5.413  0.2247 -0.0092 -0.2358
   64MOL   C25116757   7.377   3.897   5.537 -0.2802 -0.1076  0.2524
   64MOL   O25216758   7.387   3.789   5.594 -0.2606 -0.1364 -0.0549
   64MOL   C25316759   7.447   4.024   5.592 -0.2402 -0.1816  0.7830
   64MOL   C25416760   7.371   3.699   5.274 -0.1821 -0.0943  0.4047
   64MOL   H25516761   7.212   3.727   5.409 -1.3965  0.5056 -0.3187
   64MOL   H25616762   7.340   3.990   5.359  0.3949  0.0158 -0.1428
   64MOL   H25716763   7.388   4.102   5.545  0.6228 -1.3162 -2.2815
   64MOL   H25816764   7.444   4.035   5.701 -0.4098  0.9231  0.6718
   64MOL   H25916765   7.546   4.001   5.551 -0.3060 -0.6247  0.8630
   64MOL   H26016766   7.415   3.759   5.194  0.9778 -0.5688  0.6755
   64MOL   H26116767   7.438   3.657   5.349  2.3301  0.7044 -1.3228
   64MOL   H26216768   7.326   3.618   5.218 -2.7180  2.7853 -1.9102
   65MOL     C116769   3.637   5.388   2.199  0.0909 -0.1617  0.8534
   65MOL     N216770   3.506   5.443   2.241  0.3695 -0.3170  0.5249
   65MOL     C316771   3.472   5.570   2.259 -0.2312 -0.5608  0.7037
   65MOL     O416772   3.549   5.667   2.232 -0.2619 -0.5921  0.3852
   65MOL     C516773   3.324   5.602   2.290 -0.0685  0.1689  0.1785
   65MOL     C616774   3.727   5.381   2.326  0.9090  0.0154 -0.0291
   65MOL     H716775   3.622   5.292   2.150 -1.5275 -0.2683  1.5488
   65MOL     H816776   3.428   5.378   2.245 -0.1341  0.3649  1.9760
   65MOL     H916777   3.293   5.600   2.394 -0.0062  1.1876  0.2263
   65MOL    H1016778   3.317   5.703   2.249  1.5010  0.4880  0.6624
   65MOL    H1116779   3.256   5.541   2.231  0.1121 -0.8932  1.0582
   65MOL    H1216780   3.711   5.457   2.403 -1.0911  0.0798 -0.4964
   65MOL    H1316781   3.694   5.285   2.366 -2.0803  0.2542 -1.7841
   65MOL    H1416782   3.689   5.456   2.131  0.3010 -1.2521 -0.0931
   65MOL    C1516783   3.878   5.367   2.295  0.5398  0.2667  0.2712
   65MOL    N1616784   3.902   5.275   2.182 -0.5417  0.2467  0.0742
   65MOL    C1716785   3.937   5.326   2.059  0.0497 -0.0782 -0.5470
   65MOL    O1816786   3.966   5.449   2.044  0.3407 -0.1631 -0.0126
   65MOL    C1916787   3.954   5.234   1.944 -0.7579  0.9009 -0.0883
   65MOL    C2016788   3.945   5.309   2.417 -0.0363 -0.5319  0.3645
   65MOL    H2116789   3.927   5.463   2.281 -4.4005  3.3488  2.6466
   65MOL    H2216790   3.875   5.178   2.192 -0.4128  0.2865  0.8066
   65MOL    H2316791   3.856   5.210   1.903  0.2492 -1.8447 -0.9836
   65MOL    H2416792   4.016   5.287   1.872 -1.2392  0.3153 -0.9502
   65MOL    H2516793   4.005   5.144   1.978 -0.8789  1.2782  1.1294
   65MOL    H2616794   3.901   5.358   2.503 -0.4676 -0.0483 -0.1248
   65MOL    H2716795   3.920   5.204   2.436 -2.6380  0.4658  2.7558
   65MOL    C2816796   4.099   5.338   2.427 -0.1238  0.2201  0.4514
   65MOL    N2916797   4.174   5.291   2.316  0.0688  0.5932 -0.2659
   65MOL    C3016798   4.193   5.163   2.287 -0.5968  0.0746  0.0048
   65MOL    O3116799   4.172   5.070   2.359 -0.0977  0.0808 -0.0002
   65MOL    C3216800   4.277   5.125   2.167  0.2804 -0.0835 -0.7423
   65MOL    C3316801   4.168   5.301   2.564  0.7592  0.4206  0.1628
   65MOL    H3416802   4.105   5.445   2.404 -1.0148  0.7127  2.4303
   65MOL    H3516803   4.193   5.350   2.235  0.1091  0.8686 -0.0584
   65MOL    H3616804   4.261   5.026   2.124  0.8304 -0.4495 -0.1223
   65MOL    H3716805   4.269   5.197   2.085 -2.6832  1.8252  1.1342
   65MOL    H3816806   4.383   5.119   2.192  0.2138  0.2598 -0.3731
   65MOL    H3916807   4.102   5.334   2.644  2.0664  1.3189  0.8981
   65MOL    H4016808   4.168   5.192   2.569 -1.9817  0.4528  2.1212
   65MOL    C4116809   4.313   5.354   2.571 -1.1487  0.1392  0.6207
   65MOL    N4216810   4.406   5.255   2.636 -0.4047  0.6413 -0.6280
   65MOL    C4316811   4.523   5.213   2.586  0.5863 -0.9926 -0.2975
   65MOL    O4416812   4.570   5.267   2.483 -0.1818  0.0822  0.2642
   65MOL    C4516813   4.599   5.103   2.655  0.4553  0.1603 -0.6784
   65MOL    C4616814   4.322   5.497   2.642  0.7503  0.3757  0.0702
   65MOL    H4716815   4.356   5.368   2.471 -1.9140 -0.2592  0.2308
   65MOL    H4816816   4.378   5.187   2.706  0.6209 -0.8594 -1.6260
   65MOL    H4916817   4.539   5.014   2.671  1.7035 -0.5638  0.0425
   65MOL    H5016818   4.670   5.077   2.576 -0.9010 -4.9488 -0.4017
   65MOL    H5116819   4.652   5.137   2.744  0.5605  0.7253 -0.9565
   65MOL    H5216820   4.224   5.542   2.624  0.3366 -0.4857  0.1048
   65MOL    H5316821   4.339   5.495   2.750  1.8094 -1.2063 -0.1096
   65MOL    C5416822   4.438   5.578   2.582  0.0403  0.1868 -0.0963
   65MOL    N5516823   4.471   5.682   2.681  0.4657 -0.4805  0.2295
   65MOL    C5616824   4.563   5.674   2.777 -0.1263 -0.0463 -0.6771
   65MOL    O5716825   4.587   5.775   2.842  0.1173  0.2334 -0.1114
   65MOL    C5816826   4.628   5.541   2.815  0.0308  0.1357  0.7585
   65MOL    C5916827   4.400   5.634   2.442  0.9737  0.4945  0.7156
   65MOL    H6016828   4.525   5.512   2.578  1.3426  1.8902 -0.5714
   65MOL    H6116829   4.412   5.764   2.674 -0.3914 -1.2526 -1.9012
   65MOL    H6216830   4.697   5.557   2.898 -0.6097  3.0260  0.7836
   65MOL    H6316831   4.553   5.468   2.847  0.5124 -0.7136 -0.0231
   65MOL    H6416832   4.684   5.499   2.731  4.1611  4.0074  1.4100
   65MOL    H6516833   4.329   5.564   2.398  1.9548 -1.6093  2.3852
   65MOL    H6616834   4.340   5.725   2.453 -0.2198 -0.4600  2.3553
   65MOL    C6716835   4.507   5.660   2.336  0.3176 -0.6168 -0.0112
   65MOL    N6816836   4.564   5.529   2.286 -0.0885 -0.2760 -0.4669
   65MOL    C6916837   4.510   5.454   2.191 -0.2546 -0.6586  0.3070
   65MOL    O7016838   4.411   5.491   2.127  0.5330 -0.0577 -0.3459
   65MOL    C7116839   4.576   5.317   2.160  0.4514 -0.4708 -0.6915
   65MOL    C7216840   4.626   5.751   2.372 -0.2588  0.4865 -0.3609
   65MOL    H7316841   4.457   5.699   2.247 -0.4967 -1.8409 -0.1035
   65MOL    H7416842   4.632   5.485   2.346 -0.5571 -2.0860 -1.2320
   65MOL    H7516843   4.669   5.314   2.104 -0.3884 -0.8275 -2.1207
   65MOL    H7616844   4.592   5.250   2.244  1.5086 -2.2381 -2.2715
   65MOL    H7716845   4.525   5.273   2.074  0.0678  0.6808 -1.0664
   65MOL    H7816846   4.691   5.694   2.439 -0.2278  0.3790 -0.4823
   65MOL    H7916847   4.683   5.763   2.280 -1.4541  0.7741 -1.0698
   65MOL    C8016848   4.596   5.893   2.432  0.9887  1.1002  0.0938
   65MOL    N8116849   4.471   5.953   2.384  0.1721  0.2261 -0.4372
   65MOL    C8216850   4.381   5.995   2.475 -0.1260  0.6110 -0.3003
   65MOL    O8316851   4.376   5.954   2.592  0.0343  0.1392  0.5605
   65MOL    C8416852   4.275   6.098   2.437 -0.6751 -0.1857 -0.0490
   65MOL    C8516853   4.706   6.005   2.418  0.1976 -0.1225 -0.2767
   65MOL    H8616854   4.572   5.873   2.537 -0.1617  2.4029  0.0913
   65MOL    H8716855   4.471   5.998   2.293 -1.7716 -0.4478 -0.7945
   65MOL    H8816856   4.262   6.091   2.329  1.6319 -2.5213 -0.2460
   65MOL    H8916857   4.176   6.087   2.481 -1.0051 -1.1179 -0.9888
   65MOL    H9016858   4.312   6.198   2.458  0.3417 -0.3435 -1.0066
   65MOL    H9116859   4.720   6.027   2.313 -1.0295  3.2015  0.1929
   65MOL    H9216860   4.677   6.100   2.464  3.4209  1.7320 -1.9470
   65MOL    C9316861   4.847   5.977   2.487  0.1581  0.5545 -0.6622
   65MOL    N9416862   4.926   5.889   2.403 -0.0454 -0.3666 -0.5352
   65MOL    C9516863   4.998   5.939   2.302  0.3166 -0.0554  0.0817
   65MOL    O9616864   5.011   6.059   2.273  0.6258 -0.0777  0.2966
   65MOL    C9716865   5.084   5.833   2.225  0.4175  0.0527 -0.0867
   65MOL    C9816866   4.816   5.911   2.626  0.4479 -0.6428 -0.1090
   65MOL    H9916867   4.905   6.068   2.504 -0.1900  0.2760  2.3556
   65MOL   H10016868   4.925   5.789   2.420 -0.1982  0.0653  2.2896
   65MOL   H10116869   5.181   5.830   2.275  0.4718 -1.9069 -0.2744
   65MOL   H10216870   5.038   5.735   2.224  1.5595 -0.5213  1.8209
   65MOL   H10316871   5.093   5.871   2.122 -0.7308 -0.5613 -0.4128
   65MOL   H10416872   4.727   5.953   2.673  0.8102 -2.1976  2.0379
   65MOL   H10516873   4.793   5.807   2.604  0.5941 -0.6302 -0.3230
   65MOL   C10616874   4.921   5.914   2.734 -0.6580  0.4141 -0.3648
   65MOL   N10716875   5.053   5.883   2.670  0.8607  0.1875  0.2686
   65MOL   C10816876   5.174   5.943   2.687  0.7564 -0.4587  0.3965
   65MOL   O10916877   5.192   6.036   2.766  0.0469  0.2483  0.0620
   65MOL   C11016878   5.278   5.905   2.587 -0.7273 -0.2487 -0.3463
   65MOL   C11116879   4.890   5.818   2.854 -0.3501 -0.3091  0.0046
   65MOL   H11216880   4.939   6.017   2.765  2.2975  0.1759 -1.1204
   65MOL   H11316881   5.058   5.819   2.593  0.5213  0.6225 -0.1147
   65MOL   H11416882   5.338   5.993   2.564  1.4290 -1.7090 -0.3601
   65MOL   H11516883   5.346   5.829   2.623 -0.9134 -0.4367 -0.3931
   65MOL   H11616884   5.225   5.879   2.495 -0.4386 -2.0096 -0.0266
   65MOL   H11716885   4.800   5.856   2.902 -0.5435 -0.8927  0.1058
   65MOL   H11816886   4.869   5.717   2.817 -0.3528 -0.6186  0.8557
   65MOL   C11916887   4.988   5.801   2.973  0.4790 -0.0943  0.0485
   65MOL   N12016888   4.937   5.691   3.054 -0.0005 -0.7579  0.1244
   65MOL   C12116889   5.009   5.598   3.108 -0.3843  0.1761  0.5174
   65MOL   O12216890   5.132   5.598   3.109 -0.1175  0.4775  0.0721
   65MOL   C12316891   4.932   5.489   3.176  0.0883 -0.9593  0.0051
   65MOL   C12416892   5.003   5.930   3.046 -0.4761 -0.0440 -0.4038
   65MOL   H12516893   5.088   5.772   2.943  1.3752  1.1708  1.7177
   65MOL   H12616894   4.837   5.686   3.072 -0.1588  0.0339 -0.4765
   65MOL   H12716895   4.941   5.493   3.284 -0.3201  0.3818  0.0063
   65MOL   H12816896   4.825   5.478   3.156 -0.1631 -0.7651  1.2280
   65MOL   H12916897   4.980   5.395   3.149  0.5757 -0.8964  0.6441
   65MOL   H13016898   5.026   6.009   2.975  2.9939 -1.7661 -1.3212
   65MOL   H13116899   4.909   5.955   3.095  0.5399 -0.1998  1.6933
   65MOL   C13216900   5.105   5.931   3.159  0.0430 -0.4556 -0.1845
   65MOL   N13316901   5.079   6.048   3.242 -0.8454 -0.1984 -0.4899
   65MOL   C13416902   5.068   6.039   3.382  0.1004  0.0202 -0.4169
   65MOL   O13516903   5.115   5.951   3.453  0.3274  0.1202 -0.1841
   65MOL   C13616904   4.998   6.158   3.448  0.4759 -0.0844  0.1104
   65MOL   C13716905   5.254   5.918   3.113 -0.5494 -0.2930  0.2885
   65MOL   H13816906   5.079   5.844   3.219  0.1216 -0.7801 -0.6169
   65MOL   H13916907   5.042   6.133   3.202 -2.2679 -1.7237 -2.5442
   65MOL   H14016908   5.059   6.198   3.530 -1.2760  0.7772  1.0300
   65MOL   H14116909   4.956   6.236   3.385  1.7679  0.0477 -0.5900
   65MOL   H14216910   4.910   6.118   3.499 -0.9097  1.2281 -1.1860
   65MOL   H14316911   5.275   5.833   3.048 -0.1241  1.7683 -2.3851
   65MOL   H14416912   5.276   6.006   3.052 -1.4381  0.0257  0.4152
   65MOL   C14516913   5.366   5.903   3.216  0.0386 -0.2864 -0.3040
   65MOL   N14616914   5.332   5.820   3.333  0.7822 -0.3216  0.0205
   65MOL   C14716915   5.405   5.721   3.384  0.5682  0.0216 -0.2252
   65MOL   O14816916   5.516   5.690   3.338  0.3412 -0.8364 -0.5713
   65MOL   C14916917   5.351   5.652   3.506 -0.2260  0.6109  0.0034
   65MOL   C15016918   5.428   6.031   3.264 -0.5443  0.4345  0.3795
   65MOL   H15116919   5.437   5.847   3.154  0.1218  0.1655 -0.6184
   65MOL   H15216920   5.240   5.838   3.371  1.0388 -2.5259  1.8273
   65MOL   H15316921   5.314   5.720   3.583  1.8922  1.8582 -0.0296
   65MOL   H15416922   5.265   5.595   3.470 -0.9572  1.6037  0.1812
   65MOL   H15516923   5.439   5.600   3.545  1.3898  3.0468 -0.3381
   65MOL   H15616924   5.436   6.093   3.174  0.9299 -0.4972 -0.1440
   65MOL   H15716925   5.353   6.088   3.319  0.0654  0.6937  0.9516
   65MOL   C15816926   5.567   6.024   3.338 -0.1462  0.3662  0.1204
   65MOL   N15916927   5.593   6.150   3.411  0.9690  0.3477  0.0487
   65MOL   C16016928   5.656   6.166   3.526  0.1301  0.6400  0.5723
   65MOL   O16116929   5.724   6.084   3.586 -0.3257  0.0695 -0.1881
   65MOL   C16216930   5.622   6.307   3.595 -0.6326  0.2247  0.6935
   65MOL   C16316931   5.678   5.989   3.233  0.2892  0.1969  0.3152
   65MOL   H16416932   5.573   5.951   3.419 -1.4311  2.3066  2.0333
   65MOL   H16516933   5.534   6.226   3.382  0.6580  0.7047  1.5417
   65MOL   H16616934   5.703   6.380   3.585 -0.3826 -0.1829 -0.4015
   65MOL   H16716935   5.531   6.360   3.566 -0.4949  2.0171  3.3339
   65MOL   H16816936   5.626   6.280   3.700  0.5919  1.1829  0.9152
   65MOL   H16916937   5.767   5.948   3.280  0.3179 -0.7632 -0.5562
   65MOL   H17016938   5.653   5.907   3.166 -0.1718  0.0422  0.6692
   65MOL   C17116939   5.717   6.109   3.145 -0.1005 -0.5825  0.1515
   65MOL   N17216940   5.749   6.061   3.011 -0.6770 -0.0731  1.0060
   65MOL   C17316941   5.658   6.053   2.914  0.0889  0.0078  0.1263
   65MOL   O17416942   5.549   6.104   2.923 -0.1364  0.2156 -0.4372
   65MOL   C17516943   5.704   5.996   2.784 -0.1278  0.0788 -1.0675
   65MOL   C17616944   5.837   6.185   3.202  0.3900  0.4077  0.0386
   65MOL   H17716945   5.634   6.179   3.151  0.5703  0.0809  1.8885
   65MOL   H17816946   5.845   6.034   2.994 -0.4027  0.2656  1.9722
   65MOL   H17916947   5.809   6.023   2.785  0.0390 -0.2486  3.3568
   65MOL   H18016948   5.692   5.888   2.775 -1.3007  0.0637  0.4055
   65MOL   H18116949   5.652   6.046   2.702 -2.4360 -0.3453  0.0730
   65MOL   H18216950   5.825   6.204   3.308  1.1001 -0.7491  0.3332
   65MOL   H18316951   5.923   6.118   3.200  0.8251  0.9660 -0.0154
   65MOL   C18416952   5.867   6.322   3.130  0.1912 -0.4622  0.0921
   65MOL   N18516953   5.999   6.364   3.175 -0.1067 -0.0073 -0.0642
   65MOL   C18616954   6.084   6.457   3.128 -0.2726 -0.2903 -0.7557
   65MOL   O18716955   6.054   6.525   3.028 -0.2588 -0.1315 -0.5611
   65MOL   C18816956   6.214   6.485   3.209 -0.5743  0.2333  0.2481
   65MOL   C18916957   5.760   6.433   3.165  1.0199 -0.2618  0.0297
   65MOL   H19016958   5.874   6.304   3.022 -2.1463 -1.7293  0.1256
   65MOL   H19116959   6.029   6.309   3.254 -1.9673 -0.2148  0.5247
   65MOL   H19216960   6.186   6.566   3.276  0.4052  0.2793  0.6091
   65MOL   H19316961   6.239   6.399   3.272 -2.6108 -0.2927  0.3638
   65MOL   H19416962   6.296   6.521   3.147 -0.6149  1.2945  0.8006
   65MOL   H19516963   5.683   6.385   3.227 -0.5742  0.5755 -1.2546
   65MOL   H19616964   5.797   6.512   3.230  0.3619 -0.2720  0.4208
   65MOL   C19716965   5.692   6.504   3.046 -0.7780 -0.4666  0.4554
   65MOL   N19816966   5.790   6.543   2.945  0.3655  0.7364  0.1116
   65MOL   C19916967   5.755   6.592   2.823 -0.0464  0.0268 -0.2518
   65MOL   O20016968   5.636   6.611   2.792  0.1662 -0.1493  0.6993
   65MOL   C20116969   5.863   6.626   2.724  0.1393 -0.0328  0.6009
   65MOL   C20216970   5.625   6.633   3.100  0.4957  0.4993  0.6041
   65MOL   H20316971   5.616   6.435   3.008  0.4778  0.1619 -3.5104
   65MOL   H20416972   5.888   6.524   2.959  0.2013 -1.2230 -1.1753
   65MOL   H20516973   5.863   6.551   2.645 -0.6951 -0.8691  1.3685
   65MOL   H20616974   5.847   6.726   2.684  0.6615 -0.0820  0.2713
   65MOL   H20716975   5.958   6.627   2.778 -0.0684  0.7403  0.9550
   65MOL   H20816976   5.702   6.705   3.130  1.3248 -0.6791  1.3485
   65MOL   H20916977   5.571   6.681   3.019  2.2082  0.3194 -0.6614
   65MOL   C21016978   5.522   6.618   3.218 -0.1951  0.8076 -0.3061
   65MOL   N21116979   5.414   6.526   3.173  0.2135 -0.5265 -0.2443
   65MOL   C21216980   5.361   6.423   3.246 -0.3266 -0.3385 -0.7933
   65MOL   O21316981   5.425   6.363   3.335 -0.9296 -0.0618  0.0385
   65MOL   C21416982   5.229   6.368   3.203 -0.2687 -0.2883  0.2864
   65MOL   C21516983   5.472   6.750   3.269 -0.3269 -0.3634 -0.8190
   65MOL   H21616984   5.569   6.578   3.308  1.6660  1.2254 -1.0741
   65MOL   H21716985   5.376   6.555   3.085  0.4760 -1.3932 -0.6553
   65MOL   H21816986   5.144   6.370   3.271 -1.0311  1.9315 -0.6862
   65MOL   H21916987   5.193   6.411   3.110  2.7628 -0.3257 -0.9833
   65MOL   H22016988   5.252   6.264   3.176 -1.8605 -0.0555 -2.1294
   65MOL   H22116989   5.553   6.822   3.272 -0.1880 -0.5942  1.7049
   65MOL   H22216990   5.404   6.795   3.196 -1.8229  0.1212  0.8593
   65MOL   C22316991   5.409   6.750   3.409 -0.1563 -0.0492 -0.1580
   65MOL   N22416992   5.314   6.866   3.422 -0.1410 -0.8213 -0.1779
   65MOL   C22516993   5.194   6.870   3.361  0.8730 -0.1574  0.0376
   65MOL   O22616994   5.133   6.770   3.336 -0.1673  0.1906 -0.1228
   65MOL   C22716995   5.138   7.006   3.327  0.0522  0.1017  0.8842
   65MOL   C22816996   5.523   6.746   3.526  0.3431  0.3864  0.2140
   65MOL   H22916997   5.356   6.655   3.420  0.3680 -0.4420 -0.9386
   65MOL   H23016998   5.352   6.959   3.437  0.2068 -0.7184 -1.6043
   65MOL   H23116999   5.030   7.000   3.312  0.0012  2.1782  0.2281
   65MOL   H23217000   5.162   7.092   3.389  1.3327  1.8253 -1.9126
   65MOL   H23317001   5.188   7.022   3.231 -1.2336 -0.5711  0.0943
   65MOL   H23417002   5.488   6.670   3.596 -0.7534  1.7183  1.1326
   65MOL   H23517003   5.615   6.707   3.483  1.2689  2.4414  0.2763
   65MOL   C23617004   5.553   6.873   3.612 -0.6871  0.5366  0.5729
   65MOL   N23717005   5.601   6.985   3.530  0.3640 -1.6116 -0.5216
   65MOL   C23817006   5.526   7.091   3.479 -0.7033  0.2490  0.3533
   65MOL   O23917007   5.407   7.105   3.496  0.0224 -0.7170 -0.4262
   65MOL   C24017008   5.599   7.173   3.373  1.0368  0.4627 -0.0888
   65MOL   C24117009   5.662   6.828   3.715  0.4487  0.0363  0.3973
   65MOL   H24217010   5.458   6.901   3.658 -0.8082 -0.8018  1.1647
   65MOL   H24317011   5.698   6.995   3.505 -0.1365  1.5398 -1.4920
   65MOL   H24417012   5.705   7.174   3.395  0.8582 -1.8309  0.9338
   65MOL   H24517013   5.594   7.114   3.282  1.9448 -0.2454  0.3181
   65MOL   H24617014   5.552   7.267   3.343  0.0186 -0.5787 -1.8620
   65MOL   H24717015   5.631   6.735   3.764  2.5985 -0.8052  0.2410
   65MOL   H24817016   5.747   6.798   3.654  1.9278  2.5288  1.1457
   65MOL   C24917017   5.715   6.924   3.824 -0.3826 -0.5393  0.6759
   65MOL   N25017018   5.609   6.940   3.923 -0.7815 -0.1699 -0.0821
   65MOL   C25117019   5.611   6.950   4.057 -0.1341  0.4314  0.4791
   65MOL   O25217020   5.505   6.941   4.117 -0.1525 -0.6373 -0.2678
   65MOL   C25317021   5.740   6.974   4.133 -0.5761  0.5502  0.7815
   65MOL   C25417022   5.777   7.062   3.773 -0.4401  0.5768 -0.2947
   65MOL   H25517023   5.796   6.868   3.870 -1.0145 -1.1536  1.0506
   65MOL   H25617024   5.515   6.956   3.891 -0.8304 -0.6275 -0.1734
   65MOL   H25717025   5.749   6.904   4.216 -0.7586 -0.5795 -0.1497
   65MOL   H25817026   5.835   6.958   4.083  0.3549 -1.2592  2.9994
   65MOL   H25917027   5.742   7.078   4.166 -1.7669  0.3279  1.5974
   65MOL   H26017028   5.699   7.124   3.730  0.4384  1.7539 -0.2102
   65MOL   H26117029   5.832   7.118   3.849  0.7234  0.4863 -1.0583
   65MOL   H26217030   5.843   7.042   3.689 -1.5474  0.0759 -1.0554
   66MOL     C117031   0.481   3.910   1.332 -0.1923 -0.0586  0.1135
   66MOL     N217032   0.610   3.864   1.296 -0.1389 -0.7632 -1.2071
   66MOL     C317033   0.650   3.829   1.177  0.7334  0.1601 -0.0563
   66MOL     O417034   0.573   3.838   1.076 -0.9133 -0.0260 -0.5982
   66MOL     C517035   0.789   3.767   1.155  0.4870  0.5551 -0.1643
   66MOL     C617036   0.462   4.058   1.319  0.3050  0.0297  0.0124
   66MOL     H717037   0.403   3.858   1.277  0.4393 -1.0354  0.1177
   66MOL     H817038   0.671   3.852   1.375  0.7995 -2.2892 -2.1278
   66MOL     H917039   0.832   3.741   1.252 -2.1445 -1.3260  0.5904
   66MOL    H1017040   0.760   3.677   1.100  1.3363 -0.2184  0.6293
   66MOL    H1117041   0.857   3.819   1.088  1.0666  0.0739  0.0462
   66MOL    H1217042   0.555   4.109   1.295 -0.0163  1.3138  1.3589
   66MOL    H1317043   0.401   4.083   1.232 -0.9119 -0.5314  0.6823
   66MOL    H1417044   0.479   3.877   1.436  1.6714  0.8095  0.4455
   66MOL    C1517045   0.420   4.126   1.455 -0.5080 -0.8818  0.3376
   66MOL    N1617046   0.378   4.262   1.426  0.8557 -0.5850  0.5440
   66MOL    C1717047   0.258   4.320   1.437 -0.2215  0.1654  0.4675
   66MOL    O1817048   0.163   4.254   1.466 -0.5532  0.3540  0.4844
   66MOL    C1917049   0.241   4.462   1.392  0.5565 -0.3766  0.0490
   66MOL    C2017050   0.529   4.117   1.562 -0.6722 -0.4671 -0.6250
   66MOL    H2117051   0.334   4.081   1.505 -0.9051 -0.1782  0.2967
   66MOL    H2217052   0.452   4.327   1.402 -0.8515  0.2967 -2.8224
   66MOL    H2317053   0.145   4.508   1.414  1.1137  1.3800 -1.0538
   66MOL    H2417054   0.315   4.534   1.428  1.1954 -0.4166 -1.1471
   66MOL    H2517055   0.257   4.456   1.284 -0.0895 -0.6901 -0.0338
   66MOL    H2617056   0.553   4.013   1.582 -0.5175 -1.0154 -3.3949
   66MOL    H2717057   0.618   4.169   1.526 -1.8819  2.5260  0.4873
   66MOL    C2817058   0.494   4.178   1.697 -0.1429  1.1754 -0.1566
   66MOL    N2917059   0.611   4.208   1.780 -0.5207  0.0446 -0.0998
   66MOL    C3017060   0.699   4.119   1.831  0.4020  0.1872  0.4968
   66MOL    O3117061   0.709   4.005   1.793 -0.5939  0.7172  0.1125
   66MOL    C3217062   0.794   4.175   1.932  0.1792  0.1952  0.7038
   66MOL    C3317063   0.391   4.093   1.777  0.2511 -0.3020 -0.3468
   66MOL    H3417064   0.452   4.277   1.675  0.1816  0.9744 -1.7337
   66MOL    H3517065   0.619   4.292   1.836  3.0749 -0.2105 -0.1436
   66MOL    H3617066   0.791   4.284   1.935 -3.0307  0.1479  1.5188
   66MOL    H3717067   0.769   4.143   2.034  0.6048 -0.3496  0.6379
   66MOL    H3817068   0.896   4.147   1.907 -0.7214 -0.9706 -1.8173
   66MOL    H3917069   0.305   4.071   1.714 -1.1291  1.8161  0.7423
   66MOL    H4017070   0.426   3.994   1.804 -0.2761 -0.9523 -1.9990
   66MOL    C4117071   0.339   4.160   1.909 -0.1266 -0.0296  0.1561
   66MOL    N4217072   0.257   4.051   1.972  0.4822  0.4631 -0.3668
   66MOL    C4317073   0.291   3.966   2.067 -0.6051  0.7574 -0.3991
   66MOL    O4417074   0.399   3.963   2.131  0.3657 -0.0555  0.0293
   66MOL    C4517075   0.186   3.857   2.100 -0.5559 -0.0557 -0.0285
   66MOL    C4617076   0.260   4.296   1.893 -0.0887  0.0737  0.4822
   66MOL    H4717077   0.419   4.175   1.982 -1.3416 -0.1079  1.5032
   66MOL    H4817078   0.166   4.031   1.932  0.9275  1.1286 -1.7708
   66MOL    H4917079   0.093   3.886   2.052 -1.5366  0.2264  1.9681
   66MOL    H5017080   0.225   3.771   2.046 -1.4261 -1.3487  1.3393
   66MOL    H5117081   0.173   3.847   2.208  2.3143  1.2207  0.4750
   66MOL    H5217082   0.316   4.371   1.837 -0.1267 -0.3411 -0.1209
   66MOL    H5317083   0.176   4.274   1.827 -0.0058  3.2718 -0.8034
   66MOL    C5417084   0.210   4.344   2.031 -0.4876  0.0605 -0.5536
   66MOL    N5517085   0.093   4.264   2.079 -0.2815  0.0254 -0.0576
   66MOL    C5617086   0.049   4.260   2.206 -0.0184 -0.1015 -0.3894
   66MOL    O5717087   0.101   4.328   2.297  0.6425  0.0633  0.3903
   66MOL    C5817088   7.782   4.150   2.223 -0.0816 -0.2060  0.0449
   66MOL    C5917089   0.187   4.493   2.051  0.2525 -0.0746  0.6616
   66MOL    H6017090   0.297   4.321   2.093  0.5296  1.7851 -1.2817
   66MOL    H6117091   0.029   4.219   2.015  1.4131 -1.4588 -0.7608
   66MOL    H6217092   7.702   4.180   2.156  2.6888  1.4090 -2.7288
   66MOL    H6317093   7.823   4.052   2.197  2.3705  0.3246  1.7026
   66MOL    H6417094   7.742   4.152   2.324  1.1934 -0.3393  0.5692
   66MOL    H6517095   0.096   4.519   1.995 -0.4396 -1.2811  1.2249
   66MOL    H6617096   0.154   4.507   2.154 -1.5612 -0.4209  0.1528
   66MOL    C6717097   0.303   4.585   2.007 -0.7168 -0.0382  0.1994
   66MOL    N6817098   0.422   4.544   2.081  0.1607 -0.8158  0.2076
   66MOL    C6917099   0.532   4.487   2.026 -0.0640 -0.2545  0.5232
   66MOL    O7017100   0.541   4.462   1.908  0.0868  0.5413 -0.2212
   66MOL    C7117101   0.637   4.435   2.113 -0.4304 -0.1226 -0.3014
   66MOL    C7217102   0.263   4.728   2.040 -0.4411  0.0485 -0.1829
   66MOL    H7317103   0.320   4.581   1.899 -3.5032  2.0936 -0.3856
   66MOL    H7417104   0.421   4.567   2.180 -0.7044 -1.1831  0.2958
   66MOL    H7517105   0.617   4.446   2.219 -0.7709 -3.1757  0.0152
   66MOL    H7617106   0.646   4.327   2.097  0.9073  0.3779 -3.1710
   66MOL    H7717107   0.736   4.477   2.096  0.0045 -1.8199 -2.1033
   66MOL    H7817108   0.209   4.724   2.135  1.8509 -1.0269  1.1000
   66MOL    H7917109   0.351   4.791   2.052  0.8886 -1.5856 -1.1868
   66MOL    C8017110   0.177   4.785   1.925  0.5205 -0.4782 -0.1617
   66MOL    N8117111   0.264   4.790   1.807  0.4693  0.2472 -0.2422
   66MOL    C8217112   0.226   4.794   1.683  0.2800  0.8791  0.1611
   66MOL    O8317113   0.107   4.784   1.650  0.1412 -0.0051 -0.2981
   66MOL    C8417114   0.335   4.802   1.579 -0.1545 -0.0382 -0.0252
   66MOL    C8517115   0.116   4.925   1.954 -0.2494 -0.0790 -0.0071
   66MOL    H8617116   0.092   4.719   1.908  0.3756  0.0790 -1.6836
   66MOL    H8717117   0.364   4.786   1.825  0.1261 -2.1718  1.3251
   66MOL    H8817118   0.401   4.716   1.595  2.4620  2.0116  0.5497
   66MOL    H8917119   0.304   4.800   1.475  3.7173  2.4634 -1.3469
   66MOL    H9017120   0.389   4.896   1.590 -1.8801  1.0689 -0.8554
   66MOL    H9117121   0.201   4.990   1.975  0.2906 -1.1403  1.1548
   66MOL    H9217122   0.079   4.962   1.859 -0.1592  1.9423  0.7263
   66MOL    C9317123   0.026   4.955   2.079 -0.0322 -0.2870 -0.3525
   66MOL    N9417124   7.724   4.917   2.047  0.4614  0.2174 -0.9705
   66MOL    C9517125   7.668   4.795   2.034  0.1798  0.4876 -0.3306
   66MOL    O9617126   7.738   4.696   2.056 -0.2686  0.1710  0.3200
   66MOL    C9717127   7.518   4.786   2.016  0.3854  0.1180  0.2771
   66MOL    C9817128   0.028   5.104   2.120 -0.3155 -0.2280  0.7867
   66MOL    H9917129   0.058   4.891   2.161 -2.7465 -0.1827  0.8467
   66MOL   H10017130   7.652   4.987   2.058 -1.5219 -1.6968 -1.4021
   66MOL   H10117131   7.484   4.864   1.949 -0.1300 -0.5357 -0.2212
   66MOL   H10217132   7.489   4.688   1.977  1.6666 -1.0950  2.2130
   66MOL   H10317133   7.469   4.793   2.113 -0.8493 -2.1922 -0.1527
   66MOL   H10417134   0.010   5.165   2.032  1.2479 -1.5112 -0.4591
   66MOL   H10517135   7.791   5.140   2.188 -0.0690  0.0547  0.9186
   66MOL   C10617136   0.148   5.149   2.204 -0.3420  0.4841  0.4806
   66MOL   N10717137   0.155   5.074   2.329 -0.9646 -0.3706  0.2966
   66MOL   C10817138   0.238   4.976   2.354  0.3305  0.8279  0.4916
   66MOL   O10917139   0.338   4.938   2.285  0.0365 -0.3592  0.6753
   66MOL   C11017140   0.214   4.897   2.478  0.1369  0.3852 -0.2280
   66MOL   C11117141   0.139   5.307   2.220  0.0842  0.0952  0.3070
   66MOL   H11217142   0.240   5.138   2.147 -0.2739 -1.0569  0.8604
   66MOL   H11317143   0.091   5.090   2.406 -0.3768 -0.2247  0.7517
   66MOL   H11417144   0.107   4.892   2.499  0.4475  2.3228  2.0693
   66MOL   H11517145   0.246   4.794   2.466  0.7310  0.5659 -0.2120
   66MOL   H11617146   0.258   4.950   2.563  2.1089 -0.9106 -0.4291
   66MOL   H11717147   0.125   5.347   2.119 -1.9373  0.4107  0.6736
   66MOL   H11817148   0.044   5.336   2.266 -0.0050  1.6719 -0.8270
   66MOL   C11917149   0.246   5.394   2.275  0.2225  0.2474  0.6159
   66MOL   N12017150   0.383   5.357   2.224  0.4568  0.6941  0.1633
   66MOL   C12117151   0.439   5.402   2.112  0.4666 -0.8325  0.1885
   66MOL   O12217152   0.379   5.477   2.040 -0.6392 -0.3176  0.2330
   66MOL   C12317153   0.577   5.350   2.084  0.8796 -0.1471  0.1363
   66MOL   C12417154   0.249   5.387   2.433 -0.3006 -0.4503  0.7283
   66MOL   H12517155   0.226   5.496   2.245  1.2948  0.2573 -0.1098
   66MOL   H12617156   0.436   5.294   2.283 -0.9745 -1.1490 -0.4663
   66MOL   H12717157   0.612   5.411   2.001 -0.2445  0.0646 -0.1930
   66MOL   H12817158   0.646   5.354   2.168  0.7265 -0.1237  0.2608
   66MOL   H12917159   0.574   5.246   2.051 -1.1251 -0.1481  0.2226
   66MOL   H13017160   0.279   5.289   2.470 -2.0516 -0.8993  0.9623
   66MOL   H13117161   0.330   5.458   2.454  2.0984 -2.4652 -1.3675
   66MOL   C13217162   0.127   5.442   2.508  0.1106  0.2419  0.3074
   66MOL   N13317163   0.093   5.584   2.491 -0.1893  0.0653  1.1118
   66MOL   C13417164   7.833   5.635   2.420  0.9135  0.2234 -1.0298
   66MOL   O13517165   7.765   5.566   2.344  0.0868  0.3689 -0.2854
   66MOL   C13617166   7.809   5.783   2.439 -0.6947  0.4356 -0.3429
   66MOL   C13717167   0.148   5.424   2.656 -0.0082  0.1664  0.1262
   66MOL   H13817168   0.045   5.381   2.470  1.7003 -0.4200 -2.2070
   66MOL   H13917169   0.139   5.646   2.556 -1.0320 -0.1542  1.9468
   66MOL   H14017170   7.725   5.823   2.381 -0.6846 -1.7145 -1.8674
   66MOL   H14117171   7.771   5.791   2.541  0.4430  0.8002  0.0577
   66MOL   H14217172   0.055   5.844   2.412 -0.6279  0.8540  0.7763
   66MOL   H14317173   0.189   5.328   2.688  1.7199  1.3939  1.7355
   66MOL   H14417174   0.233   5.489   2.678 -0.5466  1.6613 -2.0671
   66MOL   C14517175   0.039   5.465   2.754  0.1409  0.1886  0.1596
   66MOL   N14617176   0.090   5.454   2.888 -0.4878  0.0012 -0.6034
   66MOL   C14717177   0.141   5.551   2.972  0.8755 -0.0910 -0.2477
   66MOL   O14817178   0.129   5.671   2.954 -0.5199 -0.4933 -0.0772
   66MOL   C14917179   0.216   5.492   3.089  1.1075 -0.0237 -0.6824
   66MOL   C15017180   7.757   5.370   2.740 -0.3201  0.2117  0.1151
   66MOL   H15117181   0.011   5.570   2.740  1.5717  0.7985  1.7378
   66MOL   H15217182   0.117   5.359   2.911  1.6230  1.3911  3.1335
   66MOL   H15317183   0.294   5.563   3.118  0.5557  0.7728 -1.1225
   66MOL   H15417184   0.151   5.490   3.177  2.7334 -1.9743  0.5001
   66MOL   H15517185   0.260   5.396   3.063  2.0213  0.2261 -0.0615
   66MOL   H15617186   7.671   5.405   2.797 -1.0305 -0.4788 -0.5200
   66MOL   H15717187   7.721   5.385   2.638  0.6853  1.9779 -0.0047
   66MOL   C15817188   7.784   5.218   2.763 -0.2909  0.1874  0.2626
   66MOL   N15917189   7.665   5.159   2.700 -0.4391  0.4884  0.4313
   66MOL   C16017190   7.678   5.086   2.585  0.5596 -0.7174  0.0861
   66MOL   O16117191   7.792   5.055   2.544  0.7874 -0.8527  0.3722
   66MOL   C16217192   7.552   5.024   2.523  0.1972 -0.1941  0.4828
   66MOL   C16317193   7.785   5.172   2.913  0.2172 -0.4349  0.8493
   66MOL   H16417194   0.038   5.178   2.723  1.2356  1.8810  1.9974
   66MOL   H16517195   7.572   5.182   2.733 -1.9260 -3.5840 -0.6325
   66MOL   H16617196   7.564   5.034   2.415 -0.9913 -1.4778  0.2170
   66MOL   H16717197   7.542   4.925   2.565 -1.5893  0.7801  2.4287
   66MOL   H16817198   7.468   5.091   2.546  1.6173  1.9961 -0.4902
   66MOL   H16917199   0.007   5.240   2.973 -0.8057 -0.4995  1.9978
   66MOL   H17017200   7.689   5.158   2.963 -0.2203 -0.1602  0.0874
   66MOL   C17117201   0.008   5.031   2.944 -0.0847  0.0499  0.0074
   66MOL   N17217202   7.752   4.919   2.916  0.5980 -1.1077  0.0629
   66MOL   C17317203   7.779   4.799   2.864 -0.2777  0.1155  0.0299
   66MOL   O17417204   0.056   4.765   2.848 -0.4114 -0.3603  0.1690
   66MOL   C17517205   7.662   4.712   2.828  0.4362  1.0940 -0.0868
   66MOL   C17617206   0.046   5.010   3.096  0.5653 -0.1344  0.6303
   66MOL   H17717207   0.099   5.017   2.886 -1.2186 -0.5265 -1.6864
   66MOL   H17817208   7.658   4.933   2.950 -0.1114  1.5727 -2.7212
   66MOL   H17917209   7.688   4.622   2.772 -3.7247  0.2653 -0.8960
   66MOL   H18017210   7.614   4.680   2.920 -1.0325 -0.5322 -1.3803
   66MOL   H18117211   7.587   4.764   2.767  0.9176  0.3927 -1.3008
   66MOL   H18217212   7.801   5.053   3.151  2.2106  0.9026  2.4332
   66MOL   H18317213   0.030   4.903   3.110 -1.0614  0.4084  3.5151
   66MOL   C18417214   0.176   5.065   3.163 -0.5754 -0.0290 -0.0318
   66MOL   N18517215   0.300   5.035   3.082 -0.4639  0.5851 -0.1777
   66MOL   C18617216   0.343   5.097   2.970  0.3186 -0.1791 -0.4138
   66MOL   O18717217   0.288   5.187   2.908 -0.4438  0.2092 -0.0175
   66MOL   C18817218   0.462   5.040   2.909 -0.2027  0.0153 -0.2510
   66MOL   C18917219   0.197   5.012   3.307 -0.0842  0.8593  0.1045
   66MOL   H19017220   0.158   5.172   3.168 -1.1629 -0.1700  1.0207
   66MOL   H19117221   0.361   4.962   3.117  1.0759  1.6587 -0.5756
   66MOL   H19217222   0.559   5.081   2.938 -0.1604  0.3268 -0.8211
   66MOL   H19317223   0.454   4.932   2.918  0.1241  0.0273  0.1639
   66MOL   H19417224   0.455   5.057   2.802 -0.6504  0.0585 -0.2141
   66MOL   H19517225   0.183   4.904   3.308 -1.7534  1.0536  0.9852
   66MOL   H19617226   0.298   5.038   3.337  0.3516  0.6044 -1.1054
   66MOL   C19717227   0.106   5.081   3.416  0.1211  0.2383  0.0400
   66MOL   N19817228   0.182   5.099   3.541 -0.2449  0.7685 -0.0777
   66MOL   C19917229   0.217   5.217   3.590 -0.2750  0.2566  0.4062
   66MOL   O20017230   0.197   5.326   3.541  0.2222 -0.8732 -0.2996
   66MOL   C20117231   0.291   5.207   3.721  0.3053 -0.2116  0.5377
   66MOL   C20217232   7.808   5.013   3.446  0.1980 -0.4338  0.1763
   66MOL   H20317233   0.086   5.179   3.372  1.9192  0.8020  0.4488
   66MOL   H20417234   0.229   5.020   3.583 -0.7849  0.1816 -0.5547
   66MOL   H20517235   0.280   5.306   3.765 -2.4808 -0.7150  1.0872
   66MOL   H20617236   0.258   5.131   3.793  0.9554  0.7288  1.8604
   66MOL   H20717237   0.391   5.173   3.697  0.2350 -0.0139 -0.0263
   66MOL   H20817238   7.756   5.007   3.350  2.8222  0.6889 -1.3540
   66MOL   H20917239   7.818   4.912   3.485  0.2732 -0.4400  0.1419
   66MOL   C21017240   7.717   5.095   3.551 -0.2785  0.1537 -0.0409
   66MOL   N21117241   7.729   5.028   3.685  0.1154 -0.0202  0.0632
   66MOL   C21217242   7.693   5.092   3.799 -0.1600  0.1561 -0.0671
   66MOL   O21317243   7.668   5.216   3.806 -0.1023  0.1892  0.0646
   66MOL   C21417244   7.678   5.002   3.915 -0.2808 -0.1323  0.2957
   66MOL   C21517245   7.568   5.097   3.511 -0.2318  0.1184 -0.8291
   66MOL   H21617246   7.765   5.192   3.561  0.3381 -0.2520  1.1681
   66MOL   H21717247   7.764   4.934   3.695  2.3154  1.0378  3.0720
   66MOL   H21817248   7.635   4.909   3.878  1.9423 -0.3824 -1.7609
   66MOL   H21917249   7.773   4.978   3.964 -0.7506  2.0823  2.4336
   66MOL   H22017250   7.613   5.052   3.987 -0.6075  0.2934 -0.3027
   66MOL   H22117251   7.524   4.998   3.523  0.6817 -0.0669  1.1341
   66MOL   H22217252   7.520   5.152   3.592  0.7426  1.8355 -1.3910
   66MOL   C22317253   7.534   5.170   3.378  0.1131  0.0226 -0.3686
   66MOL   N22417254   7.581   5.306   3.390 -0.2154 -0.1337  0.0062
   66MOL   C22517255   7.684   5.366   3.322  0.8705  0.2149  0.3767
   66MOL   O22617256   7.751   5.310   3.235  0.4491 -0.0824  0.0353
   66MOL   C22717257   7.719   5.511   3.365  0.2578  0.7251  0.3255
   66MOL   C22817258   7.376   5.171   3.340 -0.6019 -0.2709  0.6331
   66MOL   H22917259   7.586   5.122   3.295 -0.2651 -0.6951 -0.1946
   66MOL   H23017260   7.532   5.359   3.460 -2.9310  1.8241 -3.2365
   66MOL   H23117261   7.772   5.558   3.281 -1.3562  1.8841 -0.0703
   66MOL   H23217262   7.626   5.563   3.387 -1.8688 -2.3093 -1.1099
   66MOL   H23317263   7.787   5.506   3.449 -2.5123 -0.9139  2.5405
   66MOL   H23417264   7.325   5.170   3.436 -0.4372  2.2988  0.7706
   66MOL   H23517265   7.344   5.262   3.290  3.0230 -0.0716 -1.4638
   66MOL   C23617266   7.326   5.046   3.261  0.4153 -0.1519  0.0771
   66MOL   N23717267   7.321   5.072   3.115  0.1472  0.6078  0.3062
   66MOL   C23817268   7.398   5.005   3.027 -0.1905  0.6011 -0.3366
   66MOL   O23917269   7.472   4.916   3.060  0.1443 -0.6845 -0.1346
   66MOL   C24017270   7.387   5.051   2.879 -0.5294  0.2362 -0.0011
   66MOL   C24117271   7.183   5.000   3.305 -0.3547  0.3699  0.3938
   66MOL   H24217272   7.396   4.967   3.286  2.0460  1.4625  0.8053
   66MOL   H24317273   7.265   5.150   3.083  2.1346  2.2336  0.7107
   66MOL   H24417274   7.429   5.151   2.868 -2.6499  1.1653  0.1391
   66MOL   H24517275   7.434   4.981   2.810 -2.1531 -1.5685  0.6922
   66MOL   H24617276   7.280   5.052   2.864 -0.3156 -1.0066 -1.7869
   66MOL   H24717277   7.103   5.055   3.255 -2.1214 -1.1898  1.4493
   66MOL   H24817278   7.195   4.902   3.260  1.1147  0.4348  0.6069
   66MOL   C24917279   7.148   4.968   3.455 -0.0872  0.1142  0.0981
   66MOL   N25017280   7.248   4.894   3.530 -0.2494 -0.9357 -0.0473
   66MOL   C25117281   7.279   4.909   3.658 -0.7041  0.3095  0.2236
   66MOL   O25217282   7.233   4.988   3.734  0.7520  0.5617 -0.1675
   66MOL   C25317283   7.384   4.807   3.706  0.2720  0.0493 -1.5821
   66MOL   C25417284   7.016   4.888   3.470 -0.3193  0.2185 -0.5977
   66MOL   H25517285   7.132   5.058   3.514  0.6787  0.1001  0.3325
   66MOL   H25617286   7.283   4.815   3.478 -1.3978 -0.6184 -1.3052
   66MOL   H25717287   7.372   4.794   3.813 -0.2651 -2.4984 -1.9282
   66MOL   H25817288   7.374   4.706   3.667 -0.3717 -0.0863 -1.0784
   66MOL   H25917289   7.482   4.854   3.707 -1.0510  2.9043  0.3980
   66MOL   H26017290   7.036   4.787   3.435 -1.6376  0.1908 -1.3115
   66MOL   H26117291   6.982   4.891   3.574  0.6900 -1.0964 -0.2157
   66MOL   H26217292   6.931   4.924   3.412 -1.7159  0.2064  1.3741
   67MOL     C117293   1.238   1.881   6.066  0.2146  0.0237 -0.3364
   67MOL     N217294   1.287   1.852   6.197 -0.1993  0.1568 -0.5401
   67MOL     C317295   1.358   1.928   6.278 -0.4802  0.1284  0.0740
   67MOL     O417296   1.404   2.040   6.255  0.6346 -0.7161 -0.3524
   67MOL     C517297   1.393   1.861   6.407 -0.0911 -0.1630  0.5425
   67MOL     C617298   1.244   1.764   5.967  0.9128  0.0071  0.4441
   67MOL     H717299   1.134   1.912   6.077  0.0834 -0.5152 -0.0617
   67MOL     H817300   1.251   1.763   6.231 -0.4997  0.6957  0.5879
   67MOL     H917301   1.453   1.935   6.459  0.2075 -0.3058  0.4033
   67MOL    H1017302   1.310   1.837   6.473  0.3654  1.0878  1.5943
   67MOL    H1117303   1.456   1.775   6.386  1.2537  0.7525  0.7951
   67MOL    H1217304   1.345   1.753   5.927  1.1018  0.7969  0.6840
   67MOL    H1317305   1.220   1.670   6.017 -1.2962 -1.7707 -3.7314
   67MOL    H1417306   1.291   1.967   6.024 -3.3520  3.1635  1.2741
   67MOL    C1517307   1.155   1.762   5.846  0.7583  0.4130 -0.3293
   67MOL    N1617308   1.014   1.760   5.886 -0.5077 -0.2313  0.7177
   67MOL    C1717309   0.922   1.841   5.830  0.6226  0.0294 -0.0797
   67MOL    O1817310   0.946   1.911   5.738 -0.5253  0.0573  0.1915
   67MOL    C1917311   0.776   1.831   5.872  0.4185  0.1156  0.6924
   67MOL    C2017312   1.178   1.638   5.755  0.2730  0.1972 -0.5021
   67MOL    H2117313   1.167   1.850   5.783 -0.6328 -0.5557 -1.9814
   67MOL    H2217314   0.974   1.708   5.963 -1.0070 -1.5632 -0.4189
   67MOL    H2317315   0.718   1.774   5.799 -2.5026  1.2587  2.0608
   67MOL    H2417316   0.758   1.779   5.966 -2.7435 -2.5760 -1.2857
   67MOL    H2517317   0.724   1.925   5.886  0.6883  0.1790  1.2873
   67MOL    H2617318   1.281   1.646   5.720  0.3190 -0.1713 -0.4494
   67MOL    H2717319   1.155   1.552   5.818  2.1557  0.0137 -0.0216
   67MOL    C2817320   1.097   1.622   5.627  0.3717 -0.0373  0.1964
   67MOL    N2917321   1.093   1.484   5.589  0.0587  0.3077 -0.3790
   67MOL    C3017322   0.992   1.401   5.615  0.1303  0.5843 -0.1374
   67MOL    O3117323   0.879   1.436   5.653 -0.0129 -0.0166 -1.0665
   67MOL    C3217324   1.023   1.256   5.593 -0.2193 -1.0409 -0.4915
   67MOL    C3317325   1.153   1.708   5.507 -0.2314  0.1644 -0.4419
   67MOL    H3417326   0.993   1.649   5.644 -0.1384 -0.8285 -1.5130
   67MOL    H3517327   1.177   1.451   5.545  0.9104  0.5096  1.0703
   67MOL    H3617328   0.941   1.188   5.617 -2.8551  2.8464  1.9256
   67MOL    H3717329   1.063   1.224   5.496  1.0942  0.0261 -0.3185
   67MOL    H3817330   1.099   1.233   5.668 -1.3558 -1.2802  0.5968
   67MOL    H3917331   1.170   1.809   5.546 -0.0848  0.1280 -0.4095
   67MOL    H4017332   1.251   1.680   5.469 -0.5029  1.1820 -1.9562
   67MOL    C4117333   1.057   1.731   5.387 -0.6815 -0.8073 -0.2819
   67MOL    N4217334   0.919   1.695   5.422  0.6722 -0.3998  0.7365
   67MOL    C4317335   0.814   1.775   5.439 -0.1502 -0.6909  0.0417
   67MOL    O4417336   0.821   1.902   5.432 -0.3349 -0.0681 -0.4227
   67MOL    C4517337   0.681   1.713   5.447  0.2190 -0.0159  0.4018
   67MOL    C4617338   1.082   1.624   5.276 -0.0699  0.0845 -0.0003
   67MOL    H4717339   1.059   1.833   5.349 -1.5404 -0.2424  1.1475
   67MOL    H4817340   0.902   1.596   5.430 -0.3880 -0.3936 -1.0879
   67MOL    H4917341   0.614   1.746   5.369 -1.2814  1.3036  2.2252
   67MOL    H5017342   0.688   1.604   5.459 -0.2203 -0.0166  0.6709
   67MOL    H5117343   0.638   1.749   5.540  1.6311 -0.3000  1.1929
   67MOL    H5217344   1.108   1.532   5.328  2.2062 -1.0031 -2.8979
   67MOL    H5317345   1.003   1.611   5.203 -0.1882  0.5295  0.0427
   67MOL    C5417346   1.218   1.646   5.191  0.3239 -0.6029 -0.7468
   67MOL    N5517347   1.199   1.761   5.103 -0.0988 -0.2816 -0.5474
   67MOL    C5617348   1.234   1.885   5.126  0.7112  0.8509  0.1744
   67MOL    O5717349   1.307   1.911   5.223 -0.0584 -0.3319  0.0679
   67MOL    C5817350   1.181   1.996   5.036 -0.1067 -0.1767 -0.4160
   67MOL    C5917351   1.245   1.523   5.101 -0.2818 -0.2592 -0.5311
   67MOL    H6017352   1.295   1.667   5.265 -1.6737 -0.1569  1.2723
   67MOL    H6117353   1.143   1.742   5.021  0.5251 -1.4870 -0.7019
   67MOL    H6217354   1.075   1.994   5.011 -0.0335  0.0900 -0.7612
   67MOL    H6317355   1.204   2.099   5.064 -0.0062 -0.0248 -1.0441
   67MOL    H6417356   1.224   1.987   4.936  0.8407 -0.3112 -0.0005
   67MOL    H6517357   1.155   1.506   5.042 -1.0944 -3.0475  1.4206
   67MOL    H6617358   1.321   1.534   5.024  1.7345 -2.1463  1.1116
   67MOL    C6717359   1.278   1.392   5.173 -0.3115 -0.5851 -0.4970
   67MOL    N6817360   1.409   1.405   5.240  0.1968  0.6142 -0.4931
   67MOL    C6917361   1.424   1.431   5.375 -0.4092 -1.0595 -0.7749
   67MOL    O7017362   1.331   1.445   5.458  0.3911 -0.0596  0.5531
   67MOL    C7117363   1.566   1.469   5.425  1.3220 -0.7003 -0.0268
   67MOL    C7217364   1.289   1.287   5.066  0.7329  0.8790  0.2008
   67MOL    H7317365   1.208   1.361   5.250  0.0949 -0.3030 -0.0166
   67MOL    H7417366   1.492   1.410   5.182  1.4238 -0.9231  1.1090
   67MOL    H7517367   1.577   1.576   5.439 -0.1134 -0.7120  1.2718
   67MOL    H7617368   1.592   1.436   5.526 -1.1955 -0.4565  0.7307
   67MOL    H7717369   1.637   1.424   5.356 -1.1645 -1.1134 -2.3728
   67MOL    H7817370   1.203   1.297   4.999 -0.3122 -1.4685  1.1264
   67MOL    H7917371   1.371   1.308   4.998 -0.0233  0.5287 -0.8334
   67MOL    C8017372   1.273   1.142   5.115 -0.7705 -0.7026 -0.1292
   67MOL    N8117373   1.336   1.118   5.252 -0.3646 -0.2289  0.1213
   67MOL    C8217374   1.278   1.077   5.364  0.6975 -0.6905 -0.3952
   67MOL    O8317375   1.171   1.019   5.364 -0.2663  0.3712  0.1827
   67MOL    C8417376   1.350   1.095   5.494 -0.8548  0.0473 -0.6174
   67MOL    C8517377   1.322   1.033   5.006  0.2082 -0.3745  0.2854
   67MOL    H8617378   1.165   1.132   5.126 -0.7289 -0.2457  0.6633
   67MOL    H8717379   1.428   1.158   5.260  0.8210 -2.4636 -1.7704
   67MOL    H8817380   1.296   1.035   5.568 -0.5987 -1.2435 -1.4564
   67MOL    H8917381   1.453   1.066   5.475  0.7839  2.9107  3.4454
   67MOL    H9017382   1.365   1.199   5.522  2.7909 -0.5928  0.0157
   67MOL    H9117383   1.270   1.070   4.918  0.5121  1.7782  0.9711
   67MOL    H9217384   1.429   1.042   4.988 -0.0715  0.7003 -0.9218
   67MOL    C9317385   1.295   0.880   5.033  0.0960  0.5933  0.0779
   67MOL    N9417386   1.365   0.795   4.936 -0.2705 -0.3326  0.7649
   67MOL    C9517387   1.366   0.798   4.799  0.0185  0.1193 -0.8108
   67MOL    O9617388   1.285   0.864   4.733 -0.3297  0.3274  0.2461
   67MOL    C9717389   1.455   0.690   4.740  0.3192 -0.1730 -0.0381
   67MOL    C9817390   1.144   0.832   5.021  0.0800  0.1022 -0.2633
   67MOL    H9917391   1.339   0.858   5.131 -1.6509  2.5212  1.3581
   67MOL   H10017392   1.429   0.732   4.982 -0.0423 -0.5510  0.1585
   67MOL   H10117393   1.551   0.711   4.786 -0.5550 -0.2541  1.8922
   67MOL   H10217394   1.421   0.589   4.763  0.2286 -0.0796  0.2367
   67MOL   H10317395   1.461   0.704   4.632 -2.9075  2.1522  0.0022
   67MOL   H10417396   1.094   0.918   5.065 -0.3020  0.0072 -0.5110
   67MOL   H10517397   1.108   0.815   4.920  1.9882 -3.1186 -0.4799
   67MOL   C10617398   1.124   0.708   5.106  0.1655  0.1225  0.4407
   67MOL   N10717399   1.202   0.591   5.053  0.4200 -0.0286  0.1079
   67MOL   C10817400   1.300   0.518   5.105 -0.2209 -0.2676  0.3281
   67MOL   O10917401   1.358   0.549   5.208 -0.0156 -0.3797  0.2631
   67MOL   C11017402   1.333   0.391   5.035  0.7240 -0.3124 -0.0261
   67MOL   C11117403   0.973   0.675   5.111 -0.1631 -0.3442 -0.3423
   67MOL   H11217404   1.158   0.723   5.209  0.6587  0.2143  0.2624
   67MOL   H11317405   1.180   0.567   4.957  0.3360 -0.7740  0.3124
   67MOL   H11417406   1.367   0.321   5.111 -0.2743 -0.5607  0.1901
   67MOL   H11517407   1.239   0.345   5.004  0.2499  2.1342 -2.4351
   67MOL   H11617408   1.398   0.406   4.949 -0.1656  0.1408 -0.6223
   67MOL   H11717409   0.938   0.681   5.008  2.1202  1.1914 -1.0611
   67MOL   H11817410   0.956   0.571   5.139 -1.0460  0.4847  2.3752
   67MOL   C11917411   0.878   0.765   5.198  0.2137 -0.4514  0.1714
   67MOL   N12017412   0.916   0.801   5.339 -0.7471 -0.1295 -0.5793
   67MOL   C12117413   0.925   0.715   5.433 -0.0509  0.1174 -0.7565
   67MOL   O12217414   0.916   0.594   5.419 -0.1715 -0.0530  0.5135
   67MOL   C12317415   0.956   0.779   5.574 -0.1833  0.2090  0.6596
   67MOL   C12417416   0.734   0.723   5.182 -0.2718  0.2341 -0.6427
   67MOL   H12517417   0.887   0.867   5.159  1.5709 -0.9137 -0.7500
   67MOL   H12617418   0.930   0.898   5.362  2.4036 -1.4251  3.4841
   67MOL   H12717419   0.964   0.888   5.568 -1.0784  0.2309 -0.2956
   67MOL   H12817420   0.887   0.751   5.653 -0.2306 -1.7824 -0.0650
   67MOL   H12917421   1.051   0.733   5.602 -1.7726 -3.7401 -0.2117
   67MOL   H13017422   0.718   0.714   5.075 -0.4586 -0.9947 -0.5147
   67MOL   H13117423   0.726   0.623   5.225 -1.0154  0.1665 -0.9295
   67MOL   C13217424   0.632   0.821   5.239  0.1733  0.6005  0.3402
   67MOL   N13317425   0.533   0.743   5.307 -0.2399  0.1895  0.0173
   67MOL   C13417426   0.499   0.757   5.435 -0.0718 -0.0018  0.3886
   67MOL   O13517427   0.557   0.831   5.513 -0.2027  0.5255  0.1988
   67MOL   C13617428   0.381   0.678   5.482 -0.0821  0.1744  0.3650
   67MOL   C13717429   0.561   0.911   5.126 -0.4574 -0.2719 -0.3743
   67MOL   H13817430   0.676   0.877   5.321 -2.5646 -0.9765  2.9646
   67MOL   H13917431   0.497   0.669   5.249 -0.3082  2.2644 -2.7034
   67MOL   H14017432   0.416   0.598   5.547  0.4744  0.5663  0.5509
   67MOL   H14117433   0.308   0.746   5.525 -1.3570  0.1068 -1.6155
   67MOL   H14217434   0.328   0.638   5.395 -2.9197  2.9751  0.7388
   67MOL   H14317435   0.516   0.851   5.047  0.1475  0.6348 -1.4219
   67MOL   H14417436   0.468   0.950   5.168  0.3085  0.6247  0.5081
   67MOL   C14517437   0.655   1.019   5.066  0.1890  1.1073 -0.0651
   67MOL   N14617438   0.713   1.104   5.169 -0.1144  0.5180  0.0787
   67MOL   C14717439   0.835   1.156   5.172 -0.4678 -0.1444 -0.3108
   67MOL   O14817440   0.925   1.129   5.099 -0.1410  0.0108 -0.2183
   67MOL   C14917441   0.857   1.256   5.279 -1.0301 -0.1983 -0.1937
   67MOL   C15017442   0.594   1.113   4.957 -0.2534 -0.8362  0.4445
   67MOL   H15117443   0.740   0.964   5.025  0.5196 -0.2538  2.3702
   67MOL   H15217444   0.661   1.123   5.253  2.0521  1.5546  1.2192
   67MOL   H15317445   0.795   1.345   5.282  2.2997  2.1809  0.4624
   67MOL   H15417446   0.835   1.204   5.372  0.9817  0.0365  0.4407
   67MOL   H15517447   0.965   1.269   5.291 -0.8800 -3.6016  3.4541
   67MOL   H15617448   0.518   1.180   4.996  1.6619  1.6749  0.0076
   67MOL   H15717449   0.665   1.192   4.931 -1.4337  0.7188  1.8570
   67MOL   C15817450   0.548   1.051   4.819  0.5039 -0.6126 -0.2649
   67MOL   N15917451   0.659   0.965   4.766 -0.7984  0.0282  0.1264
   67MOL   C16017452   0.660   0.833   4.762 -0.6554  0.6985 -0.4655
   67MOL   O16117453   0.572   0.763   4.803  0.0956 -0.7788  0.4392
   67MOL   C16217454   0.786   0.767   4.689  0.5748  0.0561 -0.2270
   67MOL   C16317455   0.494   1.166   4.729  0.1324 -0.3013  0.0107
   67MOL   H16417456   0.454   0.999   4.836 -0.4501  0.3434 -2.3792
   67MOL   H16517457   0.734   1.012   4.716  0.1165  0.2588  1.6632
   67MOL   H16617458   0.799   0.817   4.593  1.8313 -1.0978 -0.6681
   67MOL   H16717459   0.881   0.762   4.743  1.1916  0.0228 -1.3104
   67MOL   H16817460   0.751   0.664   4.684 -1.5730  0.6846  0.8875
   67MOL   H16917461   0.400   1.213   4.759 -0.2530  0.0654 -1.7048
   67MOL   H17017462   0.553   1.257   4.721  0.4626 -0.1414  3.5709
   67MOL   C17117463   0.481   1.125   4.581  0.1689  0.0547  0.2829
   67MOL   N17217464   0.606   1.127   4.507  0.5064 -0.3569  0.0091
   67MOL   C17317465   0.654   1.035   4.420  0.1877 -0.1525  0.0310
   67MOL   O17417466   0.593   0.934   4.388 -0.4624  0.0055 -0.8313
   67MOL   C17517467   0.788   1.056   4.368  0.2601  0.2550  0.0229
   67MOL   C17617468   0.379   1.217   4.512 -0.1443  0.0400 -0.0062
   67MOL   H17717469   0.444   1.022   4.580  3.4892 -1.1927 -0.7678
   67MOL   H17817470   0.675   1.192   4.540 -1.7233  1.4516  1.1822
   67MOL   H17917471   0.820   1.159   4.383  2.3544 -0.8328  3.3328
   67MOL   H18017472   0.852   0.996   4.432  0.9249  1.0633  0.1208
   67MOL   H18117473   0.810   1.019   4.268  2.2446  0.7703  0.2608
   67MOL   H18217474   0.286   1.211   4.568 -0.4729 -0.6428 -0.6202
   67MOL   H18317475   0.404   1.321   4.533  0.1722 -0.5025  2.5251
   67MOL   C18417476   0.350   1.179   4.359  0.2610  0.1143 -0.1117
   67MOL   N18517477   0.256   1.281   4.307  0.6289  1.0525  0.3734
   67MOL   C18617478   0.280   1.356   4.200 -0.1099  0.5488  0.4486
   67MOL   O18717479   0.389   1.353   4.144 -0.3929 -0.3731  0.0574
   67MOL   C18817480   0.180   1.448   4.130  0.7892  0.1546 -0.3836
   67MOL   C18917481   0.293   1.034   4.331  0.2559 -0.0107  0.5292
   67MOL   H19017482   0.445   1.193   4.308 -0.6664  3.2806 -1.1485
   67MOL   H19117483   0.164   1.266   4.345  0.0820 -0.6504 -1.5519
   67MOL   H19217484   0.085   1.437   4.183  0.5154 -0.0076 -0.9139
   67MOL   H19317485   0.206   1.553   4.145 -0.1452  0.5273 -1.3465
   67MOL   H19417486   0.163   1.419   4.027 -2.6511  0.0495  0.1652
   67MOL   H19517487   0.352   0.960   4.385  0.9784  0.9220  1.0293
   67MOL   H19617488   0.204   1.015   4.389  0.0570 -2.5386 -0.5530
   67MOL   C19717489   0.278   0.989   4.179  0.0476  0.2790 -0.0393
   67MOL   N19817490   0.384   1.049   4.088  0.0503 -0.5717  0.2784
   67MOL   C19917491   0.507   0.992   4.067  1.3127 -0.4983  0.2594
   67MOL   O20017492   0.526   0.880   4.103 -0.1605  0.7660  0.1817
   67MOL   C20117493   0.614   1.069   4.000  0.2850 -0.7518  0.1376
   67MOL   C20217494   0.133   1.020   4.126 -0.2710  0.6937  0.7444
   67MOL   H20317495   0.290   0.881   4.177 -1.0112  0.1318  1.0075
   67MOL   H20417496   0.364   1.141   4.052 -0.9528 -0.5444  0.9069
   67MOL   H20517497   0.674   0.994   3.949  0.0978 -1.7343  1.3344
   67MOL   H20617498   0.578   1.147   3.932  0.6300 -1.2064 -0.5721
   67MOL   H20717499   0.679   1.114   4.075  1.1059  0.5782 -1.3486
   67MOL   H20817500   0.108   1.125   4.131 -1.2555  0.4711  0.5986
   67MOL   H20917501   0.130   0.986   4.022 -2.4489 -1.1923  1.3720
   67MOL   C21017502   0.019   0.945   4.200 -0.4153 -0.0838  0.1138
   67MOL   N21117503   0.041   0.798   4.187  0.2211  0.9144  0.0902
   67MOL   C21217504   0.025   0.704   4.092 -0.1875 -0.3157 -0.1639
   67MOL   O21317505   7.838   0.734   3.977 -0.0738  0.7890  0.4773
   67MOL   C21417506   0.058   0.563   4.127 -0.4986  0.6726  0.0828
   67MOL   C21517507   7.716   0.973   4.148 -0.9411  0.8249 -0.2961
   67MOL   H21617508   0.024   0.963   4.307 -1.7312  0.3999  0.0979
   67MOL   H21717509   0.085   0.751   4.264 -1.6635 -2.0629 -0.5558
   67MOL   H21817510   0.063   0.489   4.047  1.3093  0.2400  0.5522
   67MOL   H21917511   0.153   0.554   4.180 -0.2704 -0.2084 -0.4669
   67MOL   H22017512   7.822   0.522   4.193 -1.3684 -1.2991 -2.0704
   67MOL   H22117513   7.711   0.964   4.040 -0.4077 -1.7894 -0.1353
   67MOL   H22217514   7.646   0.902   4.193  1.4032  0.6353  3.2777
   67MOL   C22317515   7.656   1.110   4.178  0.5146  0.9803  0.4160
   67MOL   N22417516   7.633   1.136   4.325 -0.3368 -0.5084  0.5690
   67MOL   C22517517   7.712   1.205   4.409  0.2384 -0.0485 -0.0472
   67MOL   O22617518   7.818   1.259   4.373  0.2747 -0.1734 -0.0155
   67MOL   C22717519   7.669   1.207   4.559  0.4102 -0.3682 -0.0293
   67MOL   C22817520   7.518   1.129   4.127 -0.1448 -0.3840 -0.4540
   67MOL   H22917521   7.716   1.188   4.131 -0.6008  2.8678  2.0250
   67MOL   H23017522   7.551   1.088   4.358 -1.9593  2.3411  0.8686
   67MOL   H23117523   7.565   1.184   4.582  1.1110 -0.9367  2.7628
   67MOL   H23217524   7.744   1.149   4.613 -0.1187 -0.5002  0.5745
   67MOL   H23317525   7.694   1.308   4.591 -1.1568 -0.9323  3.1094
   67MOL   H23417526   7.508   1.092   4.025  0.8261 -0.0772 -0.6631
   67MOL   H23517527   7.452   1.066   4.187 -0.2429  0.5038  0.3766
   67MOL   C23617528   7.467   1.275   4.135 -0.0591  0.2506  0.2263
   67MOL   N23717529   7.318   1.276   4.161 -0.1943  0.2595 -0.4354
   67MOL   C23817530   7.262   1.288   4.287 -0.3580  0.2656  0.0637
   67MOL   O23917531   7.327   1.314   4.388 -0.6633  0.6258 -0.3423
   67MOL   C24017532   7.115   1.265   4.290  0.3862 -0.4268 -0.2690
   67MOL   C24117533   7.499   1.361   4.014  0.2069  0.1073  0.3661
   67MOL   H24217534   7.505   1.321   4.226  2.9470 -0.3081 -0.6835
   67MOL   H24317535   7.255   1.251   4.086  0.4847  0.9926 -1.2694
   67MOL   H24417536   7.059   1.272   4.383  0.9146 -0.0161  0.0182
   67MOL   H24517537   7.063   1.345   4.238 -1.3914 -2.3526 -1.5508
   67MOL   H24617538   7.095   1.168   4.243 -0.4509  0.4499 -1.7474
   67MOL   H24717539   7.601   1.351   3.976 -0.1636 -1.6640 -0.2232
   67MOL   H24817540   7.449   1.314   3.929 -0.8953 -0.0241  1.0746
   67MOL   C24917541   7.474   1.513   4.031  0.3633  0.1741  0.6404
   67MOL   N25017542   7.490   1.587   3.907 -0.6676 -0.3973  0.1619
   67MOL   C25117543   7.406   1.682   3.870  0.5802  0.0065 -1.4281
   67MOL   O25217544   7.307   1.712   3.941 -0.0865  0.0379  0.1431
   67MOL   C25317545   7.449   1.760   3.747 -0.3485  0.2921  0.0626
   67MOL   C25417546   7.584   1.578   4.133 -0.0376  0.7221 -0.3429
   67MOL   H25517547   7.375   1.528   4.073 -0.7688 -0.9974 -1.5288
   67MOL   H25617548   7.573   1.589   3.849 -0.1388 -0.0703  0.9200
   67MOL   H25717549   7.472   1.694   3.663  1.5025  1.6026 -0.4920
   67MOL   H25817550   7.370   1.823   3.708  0.6615  0.6081 -1.5233
   67MOL   H25917551   7.537   1.819   3.772  0.2606 -0.6596  0.1986
   67MOL   H26017552   7.680   1.580   4.082  0.2580 -2.0400  0.0170
   67MOL   H26117553   7.560   1.681   4.159 -0.3655  0.5446  0.0541
   67MOL   H26217554   7.598   1.527   4.228 -2.0227  0.3037 -0.2419
   68MOL     C117555   3.833   6.362   1.801  0.4496  0.9020 -0.2113
   68MOL     N217556   3.732   6.376   1.695 -0.0834 -0.2362 -0.7754
   68MOL     C317557   3.768   6.405   1.568 -0.0976 -0.2235  0.0102
   68MOL     O417558   3.881   6.400   1.522  0.1849  0.3974 -0.2164
   68MOL     C517559   3.653   6.455   1.476 -0.1156 -0.0771 -0.0036
   68MOL     C617560   3.797   6.250   1.901 -0.1527  0.3713  0.2004
   68MOL     H717561   3.933   6.339   1.765  0.5564  0.4501  0.3543
   68MOL     H817562   3.638   6.405   1.715 -0.2031 -0.7546 -0.5758
   68MOL     H917563   3.556   6.411   1.500  0.9458 -1.0764  2.6362
   68MOL    H1017564   3.652   6.564   1.470  1.7534 -0.1172 -1.5649
   68MOL    H1117565   3.682   6.402   1.386 -0.9633 -1.2785  0.4224
   68MOL    H1217566   3.698   6.277   1.938 -0.9589 -2.6007  0.3205
   68MOL    H1317567   3.780   6.155   1.851  1.7226 -0.1550  0.5314
   68MOL    H1417568   3.832   6.449   1.866 -0.0636  0.8872 -0.2004
   68MOL    C1517569   3.888   6.232   2.027 -0.7182  0.0839  0.7078
   68MOL    N1617570   4.029   6.200   1.990 -1.2938 -0.3349 -0.3173
   68MOL    C1717571   4.128   6.286   2.017 -0.6231  0.5816  0.1610
   68MOL    O1817572   4.104   6.407   2.023  0.0017 -0.3849 -0.6377
   68MOL    C1917573   4.272   6.233   2.041 -0.2692 -0.0069 -0.3219
   68MOL    C2017574   3.834   6.132   2.140 -0.4325 -0.5528  0.4053
   68MOL    H2117575   3.882   6.331   2.072 -2.1251 -0.6288  2.1501
   68MOL    H2217576   4.051   6.106   1.960  0.5123 -1.1478  3.2267
   68MOL    H2317577   4.341   6.309   2.004 -0.5577  1.4674  2.1086
   68MOL    H2417578   4.286   6.231   2.149  0.7292 -1.8559 -0.4754
   68MOL    H2517579   4.307   6.144   1.989  1.8899  1.4439 -1.4690
   68MOL    H2617580   3.743   6.185   2.167  1.0399  1.8453  0.8169
   68MOL    H2717581   3.810   6.037   2.092 -0.0753  0.8460 -2.6221
   68MOL    C2817582   3.925   6.110   2.267  0.3354 -0.3300  0.1335
   68MOL    N2917583   3.914   5.969   2.300 -0.0424  0.5074  0.0665
   68MOL    C3017584   3.819   5.900   2.361 -0.3865 -0.4202  0.2958
   68MOL    O3117585   3.712   5.954   2.394  0.4016 -0.4149 -0.3511
   68MOL    C3217586   3.839   5.750   2.386 -0.1903 -0.0157 -0.3341
   68MOL    C3317587   3.912   6.195   2.396 -0.4766 -0.9333  0.5998
   68MOL    H3417588   4.027   6.132   2.236 -0.5982  0.3124 -2.6003
   68MOL    H3517589   3.983   5.903   2.267 -2.0130 -1.9121  0.6138
   68MOL    H3617590   3.825   5.690   2.296 -3.2682  2.2225 -1.4440
   68MOL    H3717591   3.934   5.731   2.435 -0.8707 -0.5480  0.7999
   68MOL    H3817592   3.755   5.713   2.445  0.6388 -1.1487  0.1565
   68MOL    H3917593   3.810   6.188   2.435 -0.1373  0.2935  1.7276
   68MOL    H4017594   3.978   6.162   2.476 -0.8824 -0.0169  1.3171
   68MOL    C4117595   3.960   6.345   2.377  0.5599  0.4040 -0.7139
   68MOL    N4217596   4.046   6.387   2.490  0.5179 -0.2744 -0.2419
   68MOL    C4317597   4.161   6.454   2.482  0.5871  0.0046 -0.2725
   68MOL    O4417598   4.217   6.479   2.376 -0.1005  0.1637  0.1664
   68MOL    C4517599   4.233   6.489   2.614 -0.3081 -0.2907  0.3356
   68MOL    C4617600   3.837   6.436   2.366 -0.3487  0.9508 -0.2940
   68MOL    H4717601   4.026   6.355   2.290  0.0183  0.1795 -1.1527
   68MOL    H4817602   4.008   6.348   2.575 -1.3118  0.1031 -0.8572
   68MOL    H4917603   4.297   6.404   2.638  1.8176  0.7511 -1.5285
   68MOL    H5017604   4.294   6.577   2.594 -1.8960  0.3062 -2.1165
   68MOL    H5117605   4.164   6.501   2.698  0.0986 -0.6021  0.7154
   68MOL    H5217606   3.762   6.391   2.301 -0.1124  0.9426 -0.5643
   68MOL    H5317607   3.789   6.433   2.463  1.6318  0.9115  0.7100
   68MOL    C5417608   3.871   6.583   2.330  0.4663  0.3600 -0.6546
   68MOL    N5517609   3.747   6.648   2.319  0.1946 -0.3156 -0.1573
   68MOL    C5617610   3.677   6.714   2.413  0.9188 -0.0433  0.1236
   68MOL    O5717611   3.715   6.736   2.528 -0.3770  0.0512 -0.0796
   68MOL    C5817612   3.542   6.775   2.369 -0.1910 -0.2293  1.3483
   68MOL    C5917613   3.944   6.589   2.194  0.2140 -0.1881  0.1798
   68MOL    H6017614   3.930   6.626   2.411  1.6749  1.2890 -1.9935
   68MOL    H6117615   3.712   6.645   2.224  0.5196  0.3986 -0.2987
   68MOL    H6217616   3.503   6.836   2.451  0.4699  1.3657  0.5044
   68MOL    H6317617   3.571   6.839   2.286 -2.6772 -3.4712 -2.1952
   68MOL    H6417618   3.475   6.698   2.330 -0.7420 -0.5140  2.8040
   68MOL    H6517619   4.042   6.543   2.207  0.8358  0.5104 -1.8344
   68MOL    H6617620   3.884   6.522   2.132 -1.6931  1.9600 -0.3319
   68MOL    C6717621   3.961   6.723   2.123 -0.2967  0.6173  0.8669
   68MOL    N6817622   4.041   6.694   2.003 -0.9182  0.3183  0.9449
   68MOL    C6917623   4.007   6.670   1.877 -0.7363 -0.9442  0.6994
   68MOL    O7017624   3.896   6.684   1.834 -0.3980 -0.2500  0.3400
   68MOL    C7117625   4.121   6.605   1.798 -0.2058 -0.6893  0.1891
   68MOL    C7217626   4.016   6.842   2.208 -0.3213 -0.4394 -0.3473
   68MOL    H7317627   3.861   6.753   2.094 -1.0233 -1.8173  0.7388
   68MOL    H7417628   4.132   6.656   2.025 -1.2227 -1.5153 -0.7647
   68MOL    H7517629   4.217   6.634   1.842 -0.7015  2.1017 -0.4851
   68MOL    H7617630   4.110   6.496   1.795  1.7829 -0.9031  0.0001
   68MOL    H7717631   4.104   6.636   1.695  2.5936 -0.5330 -0.2692
   68MOL    H7817632   3.942   6.861   2.286  0.6614 -1.1825  0.7941
   68MOL    H7917633   4.108   6.814   2.259  0.5151  2.1755 -0.3451
   68MOL    C8017634   4.039   6.975   2.129  0.0825  0.6216  0.3473
   68MOL    N8117635   4.101   7.072   2.226 -0.2222 -0.2415 -0.4831
   68MOL    C8217636   4.226   7.121   2.224 -0.3509 -0.1097  0.7470
   68MOL    O8317637   4.309   7.084   2.144  0.1799 -0.1767  0.4555
   68MOL    C8417638   4.254   7.227   2.325  0.2465  0.0616  0.2634
   68MOL    C8517639   3.913   7.043   2.078  0.7371 -0.1227  0.3220
   68MOL    H8617640   4.102   6.945   2.046 -0.6789  1.4618 -0.5520
   68MOL    H8717641   4.035   7.122   2.284 -0.6782  0.8915 -1.9421
   68MOL    H8817642   4.361   7.225   2.345 -0.0096  1.2805  1.8458
   68MOL    H8917643   4.223   7.327   2.295 -1.1890 -0.5648 -0.3873
   68MOL    H9017644   4.213   7.215   2.425 -0.1083 -2.0861 -0.1041
   68MOL    H9117645   3.847   6.972   2.029  1.6052  1.1035 -2.6867
   68MOL    H9217646   3.859   7.066   2.171  2.2920  0.0801  1.1947
   68MOL    C9317647   3.939   7.160   1.982  0.1551  0.1497  0.0391
   68MOL    N9417648   3.859   7.277   2.017 -0.0898  0.1032 -0.0840
   68MOL    C9517649   3.891   7.407   1.999  0.2794  0.0654 -0.2136
   68MOL    O9617650   4.005   7.429   1.972  0.0222  0.6151 -0.2312
   68MOL    C9717651   3.793   7.518   2.017  0.0084  0.1767  0.3568
   68MOL    C9817652   3.928   7.118   1.833 -0.4273  0.2052  0.2650
   68MOL    H9917653   4.041   7.196   1.989  0.3012  0.0070 -1.1887
   68MOL   H10017654   3.763   7.262   2.046 -1.6355  0.6492 -4.5742
   68MOL   H10117655   3.851   7.604   2.051 -2.2079  1.5304  0.8774
   68MOL   H10217656   3.732   7.556   1.935 -2.7890 -2.2688  1.2087
   68MOL   H10317657   3.725   7.496   2.099 -2.4953 -1.4266 -2.0719
   68MOL   H10417658   3.840   7.057   1.811  0.2490 -0.8451  0.4197
   68MOL   H10517659   3.915   7.210   1.777  0.7835 -1.1595 -2.3347
   68MOL   C10617660   4.050   7.038   1.767 -0.0717 -0.3777 -0.4338
   68MOL   N10717661   4.173   7.110   1.795  0.0282  0.0227 -0.0698
   68MOL   C10817662   4.296   7.076   1.757  0.9777  0.3177  0.1786
   68MOL   O10917663   4.320   6.989   1.677 -0.1031  0.1476 -0.1882
   68MOL   C11017664   4.411   7.158   1.816 -0.6704  0.0454  0.0703
   68MOL   C11117665   4.030   6.993   1.618 -0.2894 -0.3737 -0.3098
   68MOL   H11217666   4.055   6.945   1.824  2.4579  0.8658  1.4788
   68MOL   H11317667   4.165   7.182   1.866  0.2543  2.3690 -2.3109
   68MOL   H11417668   4.441   7.133   1.918  1.7620 -1.0372 -0.8694
   68MOL   H11517669   4.495   7.131   1.753  1.2548 -0.4637  2.7481
   68MOL   H11617670   4.391   7.264   1.806  0.1512  0.3933  1.8980
   68MOL   H11717671   4.077   7.069   1.554  3.4978 -1.6474  0.8009
   68MOL   H11817672   4.075   6.897   1.594 -0.0026  0.3924 -3.0055
   68MOL   C11917673   3.884   7.001   1.563 -0.1386 -0.0509  0.1185
   68MOL   N12017674   3.798   6.894   1.619  0.2613  0.2631  0.4625
   68MOL   C12117675   3.668   6.901   1.644 -0.5630 -0.5845  0.4126
   68MOL   O12217676   3.604   7.004   1.610  0.0733  0.4456  0.4537
   68MOL   C12317677   3.611   6.776   1.712  0.8996  0.1833 -0.7041
   68MOL   C12417678   3.870   7.002   1.403  1.0891 -0.7638 -0.0004
   68MOL   H12517679   3.855   7.103   1.587 -1.1923 -0.3281  0.0475
   68MOL   H12617680   3.850   6.821   1.664  1.4289  1.8872  1.8220
   68MOL   H12717681   3.679   6.693   1.729 -1.8610 -2.0151 -0.1115
   68MOL   H12817682   3.561   6.823   1.796  0.6221 -0.4895 -0.4913
   68MOL   H12917683   3.529   6.732   1.656  0.3960 -2.4424  1.9872
   68MOL   H13017684   3.762   7.005   1.391  0.9959  2.2554  1.2275
   68MOL   H13117685   3.914   7.091   1.357 -0.8106 -0.6513 -1.6992
   68MOL   C13217686   3.933   6.889   1.314  0.1792  0.3570  0.4597
   68MOL   N13317687   3.920   6.922   1.173 -0.6718  0.4268  0.1079
   68MOL   C13417688   3.995   7.004   1.092  0.0771 -0.0646  0.2582
   68MOL   O13517689   4.071   7.082   1.139  0.1429 -0.4264 -0.2625
   68MOL   C13617690   3.971   7.003   0.938 -0.4939 -0.1412 -0.1266
   68MOL   C13717691   3.864   6.754   1.331 -0.3634 -0.1529 -0.5829
   68MOL   H13817692   4.041   6.894   1.327  0.2180 -0.6897  0.6225
   68MOL   H13917693   3.860   6.856   1.126  0.3788  0.1747 -0.9092
   68MOL   H14017694   3.915   6.913   0.916 -2.6799  0.9723  0.7114
   68MOL   H14117695   3.910   7.090   0.912  0.2242  1.0225  1.9129
   68MOL   H14217696   4.069   7.009   0.891 -1.0640  1.4813 -1.1648
   68MOL   H14317697   3.853   6.714   1.432  1.7986 -0.2070 -0.3472
   68MOL   H14417698   3.761   6.759   1.296  0.0578  0.5515 -1.7495
   68MOL   C14517699   3.944   6.655   1.248  0.1324 -0.3878 -0.6193
   68MOL   N14617700   3.864   6.543   1.215 -0.2557  0.5593  0.5399
   68MOL   C14717701   3.784   6.545   1.109 -1.2807  0.2062  0.5709
   68MOL   O14817702   3.776   6.641   1.036 -0.2873  0.0854 -0.1098
   68MOL   C14917703   3.715   6.413   1.070  0.6345 -0.0970 -0.2452
   68MOL   C15017704   4.066   6.597   1.316  0.6323 -0.1464 -0.1753
   68MOL   H15117705   3.974   6.691   1.150 -0.2245 -1.4427 -1.1277
   68MOL   H15217706   3.861   6.468   1.282 -1.2570  0.8160  0.7963
   68MOL   H15317707   3.644   6.419   0.988  1.3155  2.0921 -0.7067
   68MOL   H15417708   3.795   6.351   1.029  0.5757 -0.7405  0.5804
   68MOL   H15517709   3.678   6.366   1.161 -0.8481  1.1297 -0.2116
   68MOL   H15617710   4.131   6.684   1.326 -1.0177  1.1998 -0.8970
   68MOL   H15717711   4.038   6.572   1.419  1.0983 -2.1278 -0.5168
   68MOL   C15817712   4.134   6.476   1.249 -0.0188 -0.6476 -0.1257
   68MOL   N15917713   4.077   6.354   1.308 -0.9574 -0.1281 -0.3779
   68MOL   C16017714   4.023   6.253   1.240 -0.9742 -0.6810  0.4070
   68MOL   O16117715   4.019   6.235   1.117 -0.2008  0.1619 -0.4195
   68MOL   C16217716   3.967   6.143   1.332 -0.4934 -0.4796 -0.0941
   68MOL   C16317717   4.280   6.475   1.270 -0.1964  0.0899 -0.0788
   68MOL   H16417718   4.102   6.482   1.145 -2.7478 -0.9435  0.6673
   68MOL   H16517719   4.077   6.352   1.409 -0.4601  1.8388 -0.3150
   68MOL   H16617720   3.859   6.159   1.340 -1.1212 -2.4041 -3.7655
   68MOL   H16717721   3.982   6.040   1.298  2.0480 -0.1896  0.1277
   68MOL   H16817722   4.009   6.146   1.432 -1.9983  1.5153  0.5172
   68MOL   H16917723   4.317   6.575   1.248  1.2456 -0.3776  0.1655
   68MOL   H17017724   4.281   6.458   1.378  0.1912  3.9448  0.6028
   68MOL   C17117725   4.382   6.384   1.204  0.9930  0.3873 -0.1150
   68MOL   N17217726   4.515   6.409   1.252 -0.6207 -0.3127 -0.0057
   68MOL   C17317727   4.598   6.315   1.298  0.2686 -0.7134 -0.0846
   68MOL   O17417728   4.580   6.193   1.277 -0.6212 -0.0254  0.3759
   68MOL   C17517729   4.728   6.367   1.370  0.7684  0.7600  0.4550
   68MOL   C17617730   4.366   6.397   1.052  0.5336 -0.2174 -0.4313
   68MOL   H17717731   4.353   6.281   1.226  0.1454  0.8277  0.8737
   68MOL   H17817732   4.552   6.503   1.252 -0.6260 -0.3080 -0.4978
   68MOL   H17917733   4.752   6.302   1.454  0.1679  1.2010  0.9729
   68MOL   H18017734   4.818   6.360   1.309 -0.4533  1.7297 -1.5241
   68MOL   H18117735   4.717   6.472   1.400  1.9331  1.4371 -1.4224
   68MOL   H18217736   4.258   6.385   1.038  0.0726 -1.7346  3.6831
   68MOL   H18317737   4.386   6.499   1.019  0.5702 -0.4426 -1.1147
   68MOL   C18417738   4.422   6.279   0.973  0.5089 -0.4995  0.7160
   68MOL   N18517739   4.563   6.246   0.992 -0.1576  0.5543  0.0246
   68MOL   C18617740   4.671   6.313   0.960  0.4172 -0.6408  0.6754
   68MOL   O18717741   4.669   6.424   0.906 -0.0668 -0.7028  0.1962
   68MOL   C18817742   4.807   6.247   0.978  0.3708 -0.6774  0.5336
   68MOL   C18917743   4.392   6.282   0.817  0.5184  0.1460  0.5294
   68MOL   H19017744   4.366   6.195   1.013 -0.2317 -0.4980 -0.3069
   68MOL   H19117745   4.583   6.166   1.051 -0.1107 -0.0238 -0.7659
   68MOL   H19217746   4.861   6.263   0.885  1.1678  0.2302  1.1408
   68MOL   H19317747   4.872   6.281   1.059 -2.0513  0.3769  2.1082
   68MOL   H19417748   4.789   6.139   0.977 -0.4498 -0.5405  0.4000
   68MOL   H19517749   4.443   6.361   0.761 -2.0917  0.4018 -1.5916
   68MOL   H19617750   4.432   6.192   0.771  4.4367  2.2528 -0.4098
   68MOL   C19717751   4.245   6.281   0.788 -0.3627 -0.1613  0.2689
   68MOL   N19817752   4.176   6.169   0.847  0.7369  0.0847  0.3848
   68MOL   C19917753   4.187   6.041   0.807  0.0532 -0.2372 -0.6095
   68MOL   O20017754   4.268   6.000   0.720 -0.6356 -0.1361  0.0818
   68MOL   C20117755   4.096   5.942   0.872  0.1173  0.6001 -0.1114
   68MOL   C20217756   4.217   6.285   0.636  0.0141 -0.2531 -0.4407
   68MOL   H20317757   4.199   6.369   0.835 -0.4763  0.0609 -0.2609
   68MOL   H20417758   4.103   6.194   0.913  2.3922  4.0748  0.8342
   68MOL   H20517759   4.121   5.918   0.975  0.3827  1.1798 -0.0367
   68MOL   H20617760   3.996   5.984   0.875  0.6879  2.0999 -1.4059
   68MOL   H20717761   4.094   5.851   0.811 -0.2801  1.8673 -2.0303
   68MOL   H20817762   4.288   6.216   0.592  0.6457 -1.4913  2.4604
   68MOL   H20917763   4.113   6.257   0.616  1.1712 -4.2524 -1.2793
   68MOL   C21017764   4.244   6.417   0.564 -0.2524  0.3813  0.2193
   68MOL   N21117765   4.166   6.531   0.617 -0.1638  0.0991 -0.8103
   68MOL   C21217766   4.204   6.609   0.720  0.4067  0.0400  0.1159
   68MOL   O21317767   4.300   6.594   0.792 -0.2955 -0.0301 -0.0453
   68MOL   C21417768   4.106   6.723   0.744  0.0629 -0.1539 -0.1039
   68MOL   C21517769   4.232   6.402   0.406 -0.0845  0.6905  0.3167
   68MOL   H21617770   4.351   6.437   0.565 -0.0045 -0.4843 -2.7205
   68MOL   H21717771   4.087   6.570   0.569 -0.5289  3.5619  2.3885
   68MOL   H21817772   4.016   6.688   0.794 -0.4950  0.8834 -0.3602
   68MOL   H21917773   4.143   6.800   0.813 -0.3063 -0.6275  0.6266
   68MOL   H22017774   4.059   6.762   0.654  1.4805 -0.9973 -1.2192
   68MOL   H22117775   4.299   6.319   0.383  0.1921  0.2388  2.6398
   68MOL   H22217776   4.130   6.374   0.380  0.1221  0.2884 -0.0690
   68MOL   C22317777   4.271   6.519   0.316  0.4665 -0.1822  0.0729
   68MOL   N22417778   4.171   6.620   0.328 -0.5092  0.2969  0.2086
   68MOL   C22517779   4.201   6.746   0.370  0.9352 -0.1233  0.0313
   68MOL   O22617780   4.310   6.783   0.409  0.0541  0.7425  0.4184
   68MOL   C22717781   4.086   6.846   0.367  0.0085 -0.3189  0.3829
   68MOL   C22817782   4.278   6.486   0.162  0.1190 -0.8684 -0.0741
   68MOL   H22917783   4.365   6.560   0.353 -1.1356  1.9370  1.9057
   68MOL   H23017784   4.075   6.606   0.299 -1.3768  1.2528  2.4649
   68MOL   H23117785   3.985   6.809   0.387 -0.5630  1.2801  0.6063
   68MOL   H23217786   4.096   6.930   0.436 -2.1410  0.4784 -0.2365
   68MOL   H23317787   4.089   6.887   0.266  2.7384 -2.1821 -0.3515
   68MOL   H23417788   4.194   6.421   0.139  0.8908 -2.6525  1.9346
   68MOL   H23517789   4.257   6.574   0.101  0.2175 -0.6318  0.2325
   68MOL   C23617790   4.410   6.419   0.102  0.2960 -0.4410 -0.1614
   68MOL   N23717791   4.517   6.521   0.104 -0.1482 -0.0568  0.0673
   68MOL   C23817792   4.644   6.508   0.143 -0.0332 -0.0498  0.0814
   68MOL   O23917793   4.666   6.410   0.216 -0.6665 -0.7000 -0.9708
   68MOL   C24017794   4.741   6.621   0.111  0.0422  0.3228  1.1025
   68MOL   C24117795   4.396   6.365   7.796 -0.5772  0.0885  0.2104
   68MOL   H24217796   4.426   6.329   0.161 -1.9073 -0.9417 -0.2898
   68MOL   H24317797   4.493   6.598   0.044 -3.7562  0.0749  1.5555
   68MOL   H24417798   4.781   6.597   0.013  0.0222 -0.3121  1.2495
   68MOL   H24517799   4.684   6.713   0.099 -1.5311 -0.4724  2.2206
   68MOL   H24617800   4.822   6.633   0.183  0.2157  3.3003  0.4533
   68MOL   H24717801   4.339   6.435   7.735 -3.3680 -1.9955  0.3103
   68MOL   H24817802   4.490   6.348   7.744 -2.2968 -1.1149 -2.6511
   68MOL   C24917803   4.339   6.225   7.781 -0.0631 -0.7071  0.4673
   68MOL   N25017804   4.429   6.116   7.825  0.1335 -0.1500 -0.3341
   68MOL   C25117805   4.545   6.070   7.781  0.4790 -0.0217  0.0088
   68MOL   O25217806   4.605   6.117   7.684 -0.3102 -0.3282  0.0190
   68MOL   C25317807   4.589   5.935   7.835  0.1512 -0.3012  0.1133
   68MOL   C25417808   4.307   6.194   7.628  0.1150 -0.6868 -0.3110
   68MOL   H25517809   4.251   6.234   0.005 -0.4783 -0.9522 -0.0622
   68MOL   H25617810   4.392   6.064   0.064  0.2386  0.7778  0.3277
   68MOL   H25717811   4.559   5.928   0.100 -2.1730  0.9135 -0.4546
   68MOL   H25817812   4.547   5.852   7.778  2.8220 -1.2365 -0.6008
   68MOL   H25917813   4.698   5.933   7.827  0.1315 -0.7108 -0.0902
   68MOL   H26017814   4.232   6.262   7.587  0.5773 -0.8478 -1.4314
   68MOL   H26117815   4.399   6.213   7.573  0.1667  0.1963  0.0747
   68MOL   H26217816   4.276   6.093   7.604 -0.0825 -0.0709 -2.8084
   69MOL     C117817   3.913   2.776   2.985  0.2103 -1.5502  0.0998
   69MOL     N217818   3.827   2.662   2.986  0.2729  0.6810 -0.3309
   69MOL     C317819   3.784   2.609   3.100  0.5880 -0.3817 -0.2666
   69MOL     O417820   3.818   2.643   3.209  0.0945 -0.2711 -0.7596
   69MOL     C517821   3.678   2.501   3.088  0.4087 -0.1325  0.1938
   69MOL     C617822   3.824   2.897   2.947 -0.0405  0.0617  0.0236
   69MOL     H717823   3.969   2.791   3.078  1.5406 -0.8820 -0.7851
   69MOL     H817824   3.806   2.625   2.894  1.8528  0.9347 -0.8059
   69MOL     H917825   3.723   2.404   3.070 -1.4148 -0.5653 -2.3728
   69MOL    H1017826   3.625   2.495   3.183 -2.1525  0.2287 -1.1578
   69MOL    H1117827   3.608   2.516   3.006  1.6299 -0.6690 -0.9692
   69MOL    H1217828   3.747   2.855   2.882  0.8625  1.3417 -1.9427
   69MOL    H1317829   3.768   2.939   3.030  0.7936 -0.4535  0.8550
   69MOL    H1417830   3.982   2.764   2.901  0.6064  0.2561  0.1389
   69MOL    C1517831   3.896   3.015   2.890 -0.2780  0.4503  0.6786
   69MOL    N1617832   3.955   3.090   3.003 -0.3764  0.0937 -0.1781
   69MOL    C1717833   4.086   3.131   3.002  0.0569  0.3581  0.7149
   69MOL    O1817834   4.169   3.089   2.923  0.6113  0.3813  0.4319
   69MOL    C1917835   4.114   3.248   3.098  0.4823  0.3119  0.1754
   69MOL    C2017836   3.810   3.103   2.808 -0.0149 -1.3093 -0.2215
   69MOL    H2117837   3.967   2.987   2.811 -1.9433 -2.1653  0.0566
   69MOL    H2217838   3.895   3.120   3.078  0.0828 -1.5782  0.8872
   69MOL    H2317839   4.175   3.322   3.045 -0.3060  0.1295 -0.9987
   69MOL    H2417840   4.027   3.293   3.145 -0.9529 -0.7013 -1.4290
   69MOL    H2517841   4.171   3.243   3.190 -3.8602  0.9587  3.0223
   69MOL    H2617842   3.770   3.059   2.716  1.1121 -0.9869 -0.8851
   69MOL    H2717843   3.728   3.127   2.875 -1.7576 -0.9318 -2.4116
   69MOL    C2817844   3.862   3.248   2.776  0.0423 -0.2935  0.3021
   69MOL    N2917845   3.758   3.352   2.774  0.0466  0.2205 -0.2398
   69MOL    C3017846   3.745   3.453   2.858 -0.3912 -0.0908  0.0040
   69MOL    O3117847   3.819   3.471   2.952 -0.2476  0.2317  0.5027
   69MOL    C3217848   3.624   3.550   2.835  0.2945  0.3444  0.0037
   69MOL    C3317849   3.948   3.255   2.648  0.0611 -0.5634  0.4682
   69MOL    H3417850   3.942   3.276   2.843 -0.1633 -1.6207  1.1333
   69MOL    H3517851   3.686   3.344   2.703  0.8250  4.7266 -1.6961
   69MOL    H3617852   3.635   3.590   2.735 -0.3710  0.3288 -0.0742
   69MOL    H3717853   3.526   3.504   2.846  0.7682 -0.3794  1.3368
   69MOL    H3817854   3.632   3.638   2.900 -2.5046  0.4553  0.2286
   69MOL    H3917855   4.038   3.200   2.676 -0.0083  0.3378  2.5233
   69MOL    H4017856   3.896   3.195   2.573 -0.5479 -0.7847  1.0627
   69MOL    C4117857   3.989   3.394   2.588 -0.5152 -0.1588 -0.3320
   69MOL    N4217858   4.062   3.355   2.461  0.0361  0.0879  0.5351
   69MOL    C4317859   4.081   3.440   2.358 -0.0550 -0.3413  0.3294
   69MOL    O4417860   4.019   3.548   2.351 -1.0502 -0.0997 -0.3804
   69MOL    C4517861   4.187   3.400   2.254 -0.1221 -0.0286 -0.3699
   69MOL    C4617862   4.082   3.476   2.686  0.1199  0.0877 -0.0144
   69MOL    H4717863   3.895   3.444   2.566  0.0294  0.6814 -0.7355
   69MOL    H4817864   4.096   3.261   2.446 -1.3151 -0.2838 -0.2424
   69MOL    H4917865   4.152   3.409   2.152 -0.1449 -0.4060 -0.3968
   69MOL    H5017866   4.275   3.460   2.279  0.1833 -0.3042 -0.7900
   69MOL    H5117867   4.214   3.295   2.265  1.5131  0.5084  1.0278
   69MOL    H5217868   4.043   3.482   2.788  1.2265 -0.1120  0.4242
   69MOL    H5317869   4.176   3.422   2.691 -0.2142 -0.5828 -0.7679
   69MOL    C5417870   4.112   3.618   2.648 -0.7512  0.2940 -0.5391
   69MOL    N5517871   4.225   3.665   2.730  0.5300  0.2257 -0.3032
   69MOL    C5617872   4.355   3.639   2.704 -0.1320  0.1747 -0.3393
   69MOL    O5717873   4.400   3.555   2.622  0.4495 -0.2621  0.3736
   69MOL    C5817874   4.452   3.728   2.775 -0.2899  0.7432  0.3321
   69MOL    C5917875   3.997   3.717   2.647  0.4936  0.5299 -0.1843
   69MOL    H6017876   4.149   3.614   2.546  1.4235 -1.9123  0.2626
   69MOL    H6117877   4.182   3.723   2.800 -1.4844 -1.4736 -0.0802
   69MOL    H6217878   4.459   3.810   2.704  0.4529 -1.3829 -2.1313
   69MOL    H6317879   4.407   3.767   2.867 -0.2986  2.6209 -0.4416
   69MOL    H6417880   4.548   3.679   2.794  0.3705  2.5753  1.9283
   69MOL    H6517881   4.002   3.776   2.555 -0.4426 -1.0867 -1.2964
   69MOL    H6617882   3.904   3.663   2.631  0.5196  0.9505 -1.8586
   69MOL    C6717883   3.960   3.810   2.760 -0.4480  0.6511  0.8872
   69MOL    N6817884   3.964   3.741   2.886 -0.1813 -0.1365 -0.4151
   69MOL    C6917885   4.021   3.783   2.997 -0.5471 -0.0872  0.1935
   69MOL    O7017886   4.087   3.887   3.013 -0.1843  0.7622  0.1404
   69MOL    C7117887   3.998   3.692   3.119  0.0928  0.6807 -0.3969
   69MOL    C7217888   3.819   3.878   2.737  0.1572  0.2713 -0.1305
   69MOL    H7317889   4.025   3.897   2.751  1.9308 -1.4098 -3.5580
   69MOL    H7417890   3.919   3.650   2.886  1.0579 -0.7664  1.5598
   69MOL    H7517891   4.028   3.746   3.208 -1.4515  0.2007  0.4232
   69MOL    H7617892   3.893   3.665   3.127 -0.2950  1.6630 -1.8866
   69MOL    H7717893   4.056   3.600   3.111  2.4578  2.0926  0.0808
   69MOL    H7817894   3.736   3.806   2.733  0.2507 -0.1706  3.7359
   69MOL    H7917895   3.805   3.944   2.822  0.8405  0.1426  0.0850
   69MOL    C8017896   3.806   3.964   2.609 -0.0655 -0.2924 -0.0890
   69MOL    N8117897   3.718   4.085   2.618 -0.1691  0.7918 -0.2583
   69MOL    C8217898   3.738   4.189   2.695  0.4356 -0.5439 -0.1350
   69MOL    O8317899   3.831   4.194   2.776  0.5352  0.2496 -0.2374
   69MOL    C8417900   3.640   4.298   2.688  1.2955 -0.6434  0.0473
   69MOL    C8517901   3.749   3.871   2.487 -0.6433 -0.3368  0.2247
   69MOL    H8617902   3.907   4.003   2.596  0.3976 -1.7648 -1.0626
   69MOL    H8717903   3.642   4.088   2.551 -0.7994  0.3478  0.4325
   69MOL    H8817904   3.539   4.261   2.674  1.6999 -1.3074 -1.2067
   69MOL    H8917905   3.634   4.364   2.775  0.9609 -0.1921 -0.3189
   69MOL    H9017906   3.662   4.356   2.599  1.0148  0.7463  0.8680
   69MOL    H9117907   3.758   3.764   2.506  0.8672 -0.4935 -1.2929
   69MOL    H9217908   3.640   3.868   2.494 -0.6974 -0.9436 -0.7811
   69MOL    C9317909   3.787   3.914   2.349  0.2817  0.0141  0.2742
   69MOL    N9417910   3.751   4.054   2.337 -0.5997  0.7143  0.5948
   69MOL    C9517911   3.837   4.151   2.303 -0.8128 -0.2384 -0.3798
   69MOL    O9617912   3.958   4.132   2.286 -0.1867  0.1863  0.4090
   69MOL    C9717913   3.784   4.288   2.293 -0.1517  0.5522 -0.1108
   69MOL    C9817914   3.716   3.819   2.248  0.1357 -0.7273 -0.3834
   69MOL    H9917915   3.895   3.914   2.332  0.3752  0.4258  0.8686
   69MOL   H10017916   3.655   4.086   2.330 -1.3081 -1.1030  1.5886
   69MOL   H10117917   3.867   4.356   2.313  1.3356 -1.0226 -0.7410
   69MOL   H10217918   3.765   4.303   2.187 -0.5328 -1.2341 -0.3166
   69MOL   H10317919   3.703   4.310   2.362 -0.6163 -0.8260 -0.1988
   69MOL   H10417920   3.746   3.716   2.268 -2.5571 -1.3597  0.6775
   69MOL   H10517921   3.608   3.823   2.265  0.4163  1.5097  1.1633
   69MOL   C10617922   3.745   3.856   2.100 -0.1344  0.5375 -0.2993
   69MOL   N10717923   3.637   3.943   2.047  0.1423 -0.2802  0.5358
   69MOL   C10817924   3.509   3.914   2.032  0.2142 -0.2141  0.2089
   69MOL   O10917925   3.461   3.805   2.072 -0.1928  0.5675 -0.0393
   69MOL   C11017926   3.412   4.021   1.987  1.8235  0.3758  0.2006
   69MOL   C11117927   3.762   3.734   2.002 -0.0310  0.0720  0.7514
   69MOL   H11217928   3.827   3.928   2.103  0.4834 -0.2170  1.3727
   69MOL   H11317929   3.657   4.037   2.018 -1.8634 -0.1194 -0.4081
   69MOL   H11417930   3.326   3.964   1.950  2.6321  0.3155 -1.6103
   69MOL   H11517931   3.369   4.083   2.066  1.6632 -0.7197  0.9821
   69MOL   H11617932   3.443   4.078   1.899 -1.6716  1.4852 -0.3991
   69MOL   H11717933   3.671   3.675   2.006 -0.1881  0.2147 -0.5111
   69MOL   H11817934   3.766   3.771   1.899  0.3227  1.4684  1.2510
   69MOL   C11917935   3.882   3.637   2.025 -0.2796  0.0890  0.2717
   69MOL   N12017936   4.001   3.711   2.083 -0.2872  0.0281  0.0568
   69MOL   C12117937   4.076   3.800   2.026  0.1232  0.4332  0.6442
   69MOL   O12217938   4.043   3.850   1.919 -0.6666 -0.2117 -0.0014
   69MOL   C12317939   4.212   3.833   2.084 -0.0417 -0.3031 -0.9408
   69MOL   C12417940   3.927   3.544   1.912  0.2581 -0.5756  0.0700
   69MOL   H12517941   3.841   3.569   2.100 -1.1978 -1.0145 -1.2158
   69MOL   H12617942   4.027   3.682   2.176  1.3785 -0.5477 -0.5542
   69MOL   H12717943   4.202   3.934   2.124  0.6885  0.0036 -1.5253
   69MOL   H12817944   4.226   3.765   2.168 -0.6422  2.1044  1.1607
   69MOL   H12917945   4.295   3.819   2.015  0.5780  0.5215 -0.3760
   69MOL   H13017946   3.980   3.609   1.842 -1.0456 -0.4516 -0.8226
   69MOL   H13117947   3.993   3.470   1.958  2.2634  1.6661  0.9028
   69MOL   C13217948   3.811   3.461   1.846  0.3318 -0.4541  0.3367
   69MOL   N13317949   3.745   3.378   1.941  0.6637  1.0104 -0.4430
   69MOL   C13417950   3.613   3.377   1.966 -0.7622 -0.0874  0.1168
   69MOL   O13517951   3.539   3.465   1.923 -0.1504  0.2065  0.4905
   69MOL   C13617952   3.560   3.252   2.046 -0.0724 -0.0472 -0.1878
   69MOL   C13717953   3.862   3.373   1.729 -0.1128 -0.8004  0.0424
   69MOL   H13817954   3.742   3.534   1.803  1.3135 -0.0694 -0.6268
   69MOL   H13917955   3.796   3.300   1.980  0.4043  1.5866  1.0870
   69MOL   H14017956   3.541   3.288   2.147  1.1907  3.2770 -1.0808
   69MOL   H14117957   3.471   3.227   1.989  1.2706 -0.5427 -2.1524
   69MOL   H14217958   3.628   3.166   2.054 -0.3213 -0.2514 -0.2715
   69MOL   H14317959   3.941   3.310   1.769 -0.6956 -1.1409  0.6421
   69MOL   H14417960   3.781   3.306   1.701 -1.9739 -0.2392  3.7784
   69MOL   C14517961   3.912   3.458   1.608 -0.0132 -0.4767  0.8840
   69MOL   N14617962   3.828   3.577   1.579 -0.1140  0.5621  0.6618
   69MOL   C14717963   3.878   3.685   1.521 -0.4548 -0.1283 -0.1021
   69MOL   O14817964   3.997   3.694   1.486 -0.0919 -0.5616 -0.2107
   69MOL   C14917965   3.775   3.795   1.498  0.3521 -0.5360 -0.3730
   69MOL   C15017966   3.915   3.369   1.484 -0.3009 -0.5069  0.1517
   69MOL   H15117967   4.010   3.492   1.640  0.6247  1.3566 -2.7380
   69MOL   H15217968   3.731   3.563   1.602  0.3977  1.4408  3.6524
   69MOL   H15317969   3.824   3.880   1.449 -1.4673 -0.2119 -1.7023
   69MOL   H15417970   3.697   3.762   1.429  0.5229  0.7800 -1.2259
   69MOL   H15517971   3.712   3.807   1.586  0.4865  0.1532 -0.3696
   69MOL   H15617972   3.817   3.336   1.448  0.1138 -0.2915 -1.2323
   69MOL   H15717973   3.966   3.425   1.405  0.7765 -0.8601  0.5795
   69MOL   C15817974   4.014   3.249   1.484 -0.8749  0.0351 -0.3927
   69MOL   N15917975   4.141   3.278   1.550 -0.4320  0.6405 -0.7357
   69MOL   C16017976   4.239   3.359   1.501  0.2452 -0.2497 -1.3533
   69MOL   O16117977   4.230   3.435   1.406 -0.0361  0.0983  0.6800
   69MOL   C16217978   4.366   3.340   1.578  0.7931  0.5548 -0.5744
   69MOL   C16317979   4.029   3.192   1.342 -0.3694 -0.2003 -0.3198
   69MOL   H16417980   3.969   3.171   1.545  1.1592 -1.1355 -0.3323
   69MOL   H16517981   4.175   3.219   1.625  0.2147  0.0473 -1.4848
   69MOL   H16617982   4.407   3.437   1.604  0.7363  0.4814 -0.2118
   69MOL   H16717983   4.363   3.283   1.671  3.8553  0.4330 -0.5069
   69MOL   H16817984   4.437   3.286   1.516  0.9890  0.4618 -0.2709
   69MOL   H16917985   3.959   3.252   1.285  0.7798  0.3966 -1.1349
   69MOL   H17017986   4.122   3.236   1.305  0.7560  0.1440  2.7586
   69MOL   C17117987   4.014   3.038   1.322  0.6161  0.1660  0.1305
   69MOL   N17217988   4.143   2.982   1.326 -0.4880  0.8116 -0.9506
   69MOL   C17317989   4.193   2.914   1.431 -0.2848 -0.5201  0.4891
   69MOL   O17417990   4.148   2.923   1.544  0.5659  0.1047  0.3100
   69MOL   C17517991   4.332   2.848   1.411  0.1199 -0.1543  0.1260
   69MOL   C17617992   3.941   3.013   1.185  0.0816 -0.3966 -0.2242
   69MOL   H17717993   3.959   2.993   1.405  0.2528 -0.4120 -0.4196
   69MOL   H17817994   4.196   2.994   1.241  1.1247  1.8666  0.1850
   69MOL   H17917995   4.410   2.920   1.389  0.0775  0.2000  1.1020
   69MOL   H18017996   4.368   2.790   1.497  1.8039 -1.3087 -1.3244
   69MOL   H18117997   4.325   2.785   1.323 -1.0821  0.6142 -0.3337
   69MOL   H18217998   3.985   3.062   1.098  1.8076 -0.2751  0.7056
   69MOL   H18317999   3.952   2.907   1.160  2.2007  0.2514 -2.0989
   69MOL   C18418000   3.792   3.053   1.193  0.9080  0.9116  0.3324
   69MOL   N18518001   3.712   2.941   1.243  0.0835  0.1470 -0.0220
   69MOL   C18618002   3.653   2.940   1.364  0.3376  0.0302  0.2156
   69MOL   O18718003   3.640   3.034   1.442 -0.2880 -0.4779  0.2310
   69MOL   C18818004   3.584   2.811   1.404 -0.0306 -0.9343  0.3672
   69MOL   C18918005   3.750   3.113   1.059  0.5634  1.1076  0.0539
   69MOL   H19018006   3.778   3.138   1.260  0.8782  1.0843  0.1054
   69MOL   H19118007   3.703   2.856   1.188  2.4163  0.4192 -0.8810
   69MOL   H19218008   3.565   2.821   1.511  2.3824 -0.8842  0.8313
   69MOL   H19318009   3.492   2.808   1.346 -0.1363 -0.0780  0.4879
   69MOL   H19418010   3.646   2.722   1.391  1.5915  0.1752  0.2759
   69MOL   H19518011   3.803   3.206   1.042  1.3287  0.4873 -1.0626
   69MOL   H19618012   3.773   3.053   0.971  0.0966  1.4960 -0.3311
   69MOL   C19718013   3.599   3.151   1.053  0.1223 -0.3298 -0.6883
   69MOL   N19818014   3.561   3.193   0.916 -0.3733  0.2552 -0.3973
   69MOL   C19918015   3.448   3.154   0.857  0.5101 -0.4626  0.2381
   69MOL   O20018016   3.364   3.088   0.913 -0.0104  0.3707  0.0037
   69MOL   C20118017   3.404   3.204   0.717  0.1310 -0.5797 -0.7780
   69MOL   C20218018   3.574   3.273   1.154 -0.7509 -0.8319 -0.1379
   69MOL   H20318019   3.543   3.063   1.085  0.1825 -1.1767 -2.8446
   69MOL   H20418020   3.625   3.256   0.871  1.4123 -0.4079  1.1701
   69MOL   H20518021   3.351   3.126   0.663  0.5886 -0.5440 -1.2805
   69MOL   H20618022   3.359   3.303   0.710 -0.8257 -0.8296  1.5061
   69MOL   H20718023   3.492   3.226   0.657  1.1739 -0.6794  0.6861
   69MOL   H20818024   3.600   3.250   1.258 -4.4149  1.6349  1.4091
   69MOL   H20918025   3.627   3.365   1.131 -0.8033 -0.8740 -0.4315
   69MOL   C21018026   3.427   3.304   1.183  0.2338 -0.0136 -0.1227
   69MOL   N21118027   3.400   3.438   1.238 -0.2310 -0.1868 -0.6447
   69MOL   C21218028   3.480   3.500   1.329 -0.0549  0.5878  0.1141
   69MOL   O21318029   3.588   3.458   1.363  0.3351  0.1232  0.2771
   69MOL   C21418030   3.445   3.638   1.369  0.1984 -0.2990 -0.4285
   69MOL   C21518031   3.356   3.201   1.267  0.2178  0.0276  0.3444
   69MOL   H21618032   3.375   3.308   1.088  0.5852  0.6063 -0.2954
   69MOL   H21718033   3.333   3.499   1.195 -0.3090  1.7143  2.0922
   69MOL   H21818034   3.350   3.637   1.423  1.2584  0.6454  1.4792
   69MOL   H21918035   3.514   3.680   1.442 -0.0463  0.5333 -0.6740
   69MOL   H22018036   3.435   3.701   1.281  0.2123  1.3725  0.7375
   69MOL   H22118037   3.374   3.097   1.239 -0.5004 -0.0598  0.1908
   69MOL   H22218038   3.409   3.216   1.361  0.4121  1.9541 -0.0391
   69MOL   C22318039   3.202   3.205   1.289  0.0416 -0.0463  0.1877
   69MOL   N22418040   3.159   3.320   1.368 -0.3851  0.3905  0.5931
   69MOL   C22518041   3.116   3.442   1.320  0.6412 -0.3356 -0.4922
   69MOL   O22618042   3.130   3.475   1.200  0.2712  0.2893  0.3846
   69MOL   C22718043   3.045   3.541   1.410  0.1682  0.5785 -0.0393
   69MOL   C22818044   3.150   3.082   1.371 -0.8243 -0.8559 -0.5131
   69MOL   H22918045   3.146   3.196   1.196  3.0103  1.7827 -1.8738
   69MOL   H23018046   3.129   3.292   1.461 -0.9893  0.7153  0.5015
   69MOL   H23118047   3.093   3.638   1.418 -1.6430  1.8313 -3.5372
   69MOL   H23218048   2.956   3.567   1.354  0.9253 -0.0939 -1.5787
   69MOL   H23318049   3.016   3.498   1.506  0.7649  0.7708  0.2248
   69MOL   H23418050   3.159   3.006   1.294  3.8906  0.4404 -1.4132
   69MOL   H23518051   3.216   3.039   1.446  0.3404  0.2766 -0.8571
   69MOL   C23618052   2.998   3.076   1.412  0.0103 -0.1917  0.7323
   69MOL   N23718053   2.980   3.154   1.534 -0.0991 -0.1509 -0.2113
   69MOL   C23818054   2.875   3.220   1.577  0.2559 -0.2619 -0.0771
   69MOL   O23918055   2.878   3.287   1.678  0.4582 -0.1284 -0.4450
   69MOL   C24018056   2.735   3.207   1.502 -0.7363 -0.3282  0.0497
   69MOL   C24118057   2.948   2.931   1.426  0.1353 -0.1819  0.0295
   69MOL   H24218058   2.947   3.125   1.329  0.4442 -0.6317  0.2015
   69MOL   H24318059   3.052   3.149   1.604  0.5661 -1.2444 -0.9557
   69MOL   H24418060   2.737   3.215   1.393  1.1890  0.6165  0.1370
   69MOL   H24518061   2.702   3.106   1.527  2.0679 -1.4498 -0.6770
   69MOL   H24618062   2.660   3.278   1.537  1.0977  0.9674  1.3847
   69MOL   H24718063   3.031   2.872   1.465  1.4436  2.1770  0.9191
   69MOL   H24818064   2.865   2.928   1.497 -0.7873  0.9920 -0.9645
   69MOL   C24918065   2.911   2.860   1.288  0.3767 -0.4297 -0.3684
   69MOL   N25018066   2.820   2.940   1.207 -0.4411 -0.0303 -0.3253
   69MOL   C25118067   2.851   3.027   1.106  0.5354  1.1207 -0.0616
   69MOL   O25218068   2.970   3.041   1.080  0.0677  0.1252 -0.0088
   69MOL   C25318069   2.736   3.089   1.025  0.6151 -0.3480  0.3065
   69MOL   C25418070   2.839   2.730   1.319  0.0248  0.4582 -0.7111
   69MOL   H25518071   2.998   2.845   1.225  0.3461 -0.5391 -0.3854
   69MOL   H25618072   2.722   2.924   1.224 -0.7024  1.8711  0.0606
   69MOL   H25718073   2.730   3.040   0.928  0.0247  0.7268 -0.2040
   69MOL   H25818074   2.642   3.068   1.075 -0.0862  0.2748 -0.7310
   69MOL   H25918075   2.738   3.197   1.012  1.2703 -0.5721 -1.5311
   69MOL   H26018076   2.831   2.659   1.236 -1.0777 -2.4334  1.7888
   69MOL   H26118077   2.893   2.670   1.392 -1.0701 -1.0265 -1.0851
   69MOL   H26218078   2.741   2.731   1.365 -0.1505  0.2534 -1.0718
   70MOL     C118079   2.625   5.285   1.747  0.4248  0.2552 -0.0857
   70MOL     N218080   2.727   5.209   1.814 -0.1311 -0.0451 -0.2942
   70MOL     C318081   2.713   5.080   1.835  0.4459  0.3302 -0.5202
   70MOL     O418082   2.609   5.021   1.809  0.4427  0.3181  0.6644
   70MOL     C518083   2.831   5.002   1.891 -0.0305 -0.1644  0.1170
   70MOL     C618084   2.618   5.250   1.593  0.0114 -0.2914  0.1618
   70MOL     H718085   2.533   5.280   1.805  1.4497 -1.1281  1.4441
   70MOL     H818086   2.812   5.253   1.847 -0.1310  0.1269 -0.5216
   70MOL     H918087   2.813   4.897   1.873  0.8791 -0.3206  0.1039
   70MOL    H1018088   2.919   5.039   1.838  0.0211 -1.0626 -0.4139
   70MOL    H1118089   2.834   5.013   2.000 -1.9727  0.5710  0.1110
   70MOL    H1218090   2.710   5.281   1.544 -0.7138  1.2416 -0.2427
   70MOL    H1318091   2.629   5.142   1.582  2.4596  0.0434 -0.9620
   70MOL    H1418092   2.638   5.393   1.750 -2.3868  0.5753  2.7480
   70MOL    C1518093   2.495   5.289   1.518  0.0524 -0.0552  0.4321
   70MOL    N1618094   2.511   5.246   1.377 -0.6168  0.4075 -0.2616
   70MOL    C1718095   2.416   5.192   1.299 -0.1313 -1.0720  0.0073
   70MOL    O1818096   2.298   5.181   1.335 -0.5395  0.1351 -0.5216
   70MOL    C1918097   2.454   5.164   1.162  0.3651 -0.1164  0.5151
   70MOL    C2018098   2.457   5.440   1.528  0.1087  0.2094 -0.4664
   70MOL    H2118099   2.414   5.234   1.566 -0.0071 -1.6564 -1.4583
   70MOL    H2218100   2.590   5.277   1.323 -1.1819 -0.4810 -1.6176
   70MOL    H2318101   2.515   5.244   1.119 -0.3376  0.2041  0.1056
   70MOL    H2418102   2.519   5.077   1.166  0.8265  0.1658 -0.4672
   70MOL    H2518103   2.367   5.152   1.097  0.9770 -0.6180 -0.2265
   70MOL    H2618104   2.458   5.466   1.634 -1.1900 -0.4256 -0.2763
   70MOL    H2718105   2.532   5.503   1.481  0.1584 -0.1457 -0.8630
   70MOL    C2818106   2.323   5.484   1.466 -0.6469 -0.0080  0.1536
   70MOL    N2918107   2.207   5.396   1.493  0.1272 -0.3405  0.0279
   70MOL    C3018108   2.155   5.384   1.614 -0.6462  0.7455 -0.2741
   70MOL    O3118109   2.197   5.452   1.708  0.6829  0.1700  0.7237
   70MOL    C3218110   2.036   5.295   1.633  0.5429  0.9911  0.5094
   70MOL    C3318111   2.343   5.525   1.319 -0.2254  0.7371  0.2917
   70MOL    H3418112   2.294   5.576   1.516  0.2925  1.1870 -1.4465
   70MOL    H3518113   2.187   5.322   1.427 -0.6980  0.3215 -0.4800
   70MOL    H3618114   1.952   5.339   1.685 -1.2485  0.5493 -1.9177
   70MOL    H3718115   2.000   5.250   1.540 -0.5150  0.7002  1.0602
   70MOL    H3818116   2.066   5.211   1.696  0.7859 -0.3392 -1.3153
   70MOL    H3918117   2.412   5.608   1.323  1.9250 -1.0038  0.2677
   70MOL    H4018118   2.391   5.450   1.256  0.3433  1.2789  0.0848
   70MOL    C4118119   2.217   5.572   1.250 -0.0380 -0.8639  0.3917
   70MOL    N4218120   2.143   5.453   1.193 -0.4976 -0.2137  0.2224
   70MOL    C4318121   2.026   5.407   1.238  0.0060  0.2230 -0.2244
   70MOL    O4418122   1.976   5.449   1.339 -0.0832  0.3275  0.7229
   70MOL    C4518123   1.962   5.296   1.160 -0.3121  0.0174  0.1812
   70MOL    C4618124   2.259   5.661   1.126  0.3255 -0.5526  0.0538
   70MOL    H4718125   2.156   5.628   1.321 -0.4224  0.2782 -0.8394
   70MOL    H4818126   2.184   5.404   1.115  0.6775  1.3311 -0.1502
   70MOL    H4918127   1.898   5.241   1.228  1.0664 -0.0561  1.4405
   70MOL    H5018128   1.895   5.331   1.081  0.8705 -1.3283 -1.4647
   70MOL    H5118129   2.033   5.218   1.133  0.1053  1.0504 -1.8185
   70MOL    H5218130   2.365   5.683   1.109 -0.1401  0.0283 -2.2733
   70MOL    H5318131   2.235   5.601   1.038  0.1209 -0.8903  0.3361
   70MOL    C5418132   2.187   5.796   1.120 -0.2726 -0.3569 -0.6650
   70MOL    N5518133   2.223   5.866   0.996 -0.2910  0.4073  0.0934
   70MOL    C5618134   2.137   5.897   0.898  0.2781 -0.1350  0.6810
   70MOL    O5718135   2.021   5.923   0.926 -0.0814  0.3652 -0.1849
   70MOL    C5818136   2.184   5.886   0.753 -1.0073 -0.2420  0.1981
   70MOL    C5918137   2.222   5.890   1.238 -0.3730  0.1983  0.3685
   70MOL    H6018138   2.080   5.778   1.109 -0.3551  0.4865 -1.3597
   70MOL    H6118139   2.322   5.857   0.978  0.0516 -1.7613  2.7746
   70MOL    H6218140   2.276   5.832   0.732 -1.2205 -0.3184 -0.5666
   70MOL    H6318141   2.106   5.826   0.706  0.0773 -2.9684  1.8067
   70MOL    H6418142   2.186   5.989   0.717  0.4657 -0.4252 -0.2864
   70MOL    H6518143   2.215   5.843   1.336  0.2528  0.5300  0.5767
   70MOL    H6618144   2.328   5.906   1.220 -0.3206 -0.3514  0.1952
   70MOL    C6718145   2.131   6.016   1.247 -0.0219 -0.9645 -0.6124
   70MOL    N6818146   2.209   6.124   1.300  0.0556  0.0602  0.6581
   70MOL    C6918147   2.261   6.220   1.219 -0.0632  0.2514  0.1655
   70MOL    O7018148   2.239   6.230   1.102  0.2256 -0.2991  0.2114
   70MOL    C7118149   2.338   6.336   1.279  0.2884 -0.1963  0.1602
   70MOL    C7218150   2.009   5.979   1.333  0.4087 -0.6210 -0.5489
   70MOL    H7318151   2.093   6.043   1.149  0.7715  1.1047 -0.3731
   70MOL    H7418152   2.233   6.124   1.398  0.5118  1.1731  0.5536
   70MOL    H7518153   2.368   6.418   1.213 -3.7569  2.9012  1.9225
   70MOL    H7618154   2.276   6.379   1.358  0.2821  0.2743 -0.0985
   70MOL    H7718155   2.426   6.297   1.331 -0.8073 -0.5658  1.7902
   70MOL    H7818156   1.974   5.889   1.283 -0.7806  0.4104 -1.5859
   70MOL    H7918157   2.040   5.952   1.435  2.4273  0.1141 -0.9349
   70MOL    C8018158   1.893   6.080   1.342  0.7384 -0.0282  0.0016
   70MOL    N8118159   1.935   6.185   1.433  0.1952 -0.0203  0.5823
   70MOL    C8218160   1.916   6.320   1.418 -0.3471 -0.4193  0.2300
   70MOL    O8318161   1.859   6.371   1.320 -0.1298  0.1104 -0.6485
   70MOL    C8418162   1.966   6.414   1.528 -0.0189 -0.4472  0.2191
   70MOL    C8518163   1.757   6.014   1.396 -0.5205  0.0441  0.4910
   70MOL    H8618164   1.900   6.129   1.245  1.0991  0.4681  0.2777
   70MOL    H8718165   1.977   6.143   1.514  0.0805 -0.5835  0.3522
   70MOL    H8818166   1.884   6.439   1.595  1.7116  1.6811  1.6112
   70MOL    H8918167   2.050   6.375   1.585  0.0931 -2.1798 -1.0960
   70MOL    H9018168   1.980   6.515   1.490 -0.6985 -0.7714 -0.9205
   70MOL    H9118169   1.746   5.920   1.341  0.5608  0.2634 -0.1206
   70MOL    H9218170   1.768   5.977   1.498  1.1066  2.2247  1.1363
   70MOL    C9318171   1.621   6.103   1.384  0.0925 -0.6377  0.3440
   70MOL    N9418172   1.529   6.072   1.499 -0.5212 -0.2343  0.0486
   70MOL    C9518173   1.409   6.136   1.531 -0.3748 -0.0945  0.2901
   70MOL    O9618174   1.364   6.238   1.468 -0.2216 -0.2138 -0.2097
   70MOL    C9718175   1.329   6.078   1.646  0.4834 -0.0014 -0.2375
   70MOL    C9818176   1.546   6.077   1.251  0.3603 -0.4776 -0.1141
   70MOL    H9918177   1.650   6.208   1.390  0.8589 -0.7966 -0.5004
   70MOL   H10018178   1.556   5.994   1.557  2.6168  0.6679 -0.0605
   70MOL   H10118179   1.321   5.970   1.631  2.5319 -0.0942 -0.7512
   70MOL   H10218180   1.377   6.099   1.742 -1.7220 -0.6387  1.0543
   70MOL   H10318181   1.227   6.116   1.642  0.7726  0.7358 -0.5898
   70MOL   H10418182   1.517   5.973   1.244 -1.7067 -0.0178  1.1942
   70MOL   H10518183   1.450   6.129   1.253 -0.5158 -2.1050  1.7821
   70MOL   C10618184   1.626   6.127   1.120 -0.9904  0.3685  0.5354
   70MOL   N10718185   1.644   6.276   1.138  0.2708 -0.7171 -0.1269
   70MOL   C10818186   1.562   6.376   1.091 -0.5196 -0.2537 -0.3175
   70MOL   O10918187   1.449   6.358   1.044  0.1407  0.0097 -0.5047
   70MOL   C11018188   1.614   6.525   1.097  0.2947 -1.0178  0.4565
   70MOL   C11118189   1.552   6.083   0.988  0.5176  0.1010  0.6436
   70MOL   H11218190   1.722   6.076   1.119 -1.0845  0.1955  0.0795
   70MOL   H11318191   1.729   6.305   1.183  0.5115 -0.1452 -0.9413
   70MOL   H11418192   1.701   6.548   1.159 -0.4795 -0.3576  1.3103
   70MOL   H11518193   1.655   6.550   0.999  0.2843  2.0399  1.1651
   70MOL   H11618194   1.535   6.598   1.115  0.6747 -0.3442 -0.5391
   70MOL   H11718195   1.446   6.107   0.998  0.5612 -0.4601  2.6096
   70MOL   H11818196   1.581   6.156   0.913 -0.3510 -1.6577 -1.4775
   70MOL   C11918197   1.576   5.939   0.947 -0.8063 -0.0605 -0.1762
   70MOL   N12018198   1.698   5.922   0.877  0.4054  0.2903  0.0220
   70MOL   C12118199   1.721   5.963   0.755  0.0985  0.4010 -0.1994
   70MOL   O12218200   1.665   6.058   0.699 -1.0288  0.1328  0.4620
   70MOL   C12318201   1.816   5.873   0.676  0.6087 -0.2842  0.0625
   70MOL   C12418202   1.462   5.886   0.868  0.1416  0.3759 -0.3065
   70MOL   H12518203   1.586   5.873   1.033  1.8526 -1.2409 -1.3275
   70MOL   H12618204   1.763   5.854   0.914 -0.0677  0.3684  1.0200
   70MOL   H12718205   1.887   5.933   0.620 -0.3004  0.0989 -0.6758
   70MOL   H12818206   1.884   5.810   0.734  0.2884 -0.2308  0.4987
   70MOL   H12918207   1.758   5.811   0.608  0.8449 -0.1865 -0.2253
   70MOL   H13018208   1.381   5.884   0.940  1.6649  4.5623  1.6755
   70MOL   H13118209   1.433   5.952   0.786 -1.2249  2.3442  1.7242
   70MOL   C13218210   1.483   5.743   0.808 -0.2083 -0.5741  0.4670
   70MOL   N13318211   1.357   5.724   0.735  0.1618  0.6410 -0.4260
   70MOL   C13418212   1.324   5.760   0.607 -0.0614 -0.5751  0.2093
   70MOL   O13518213   1.412   5.763   0.518  0.1082  0.1903  0.3453
   70MOL   C13618214   1.176   5.769   0.578 -0.4506 -0.2923 -0.4391
   70MOL   C13718215   1.518   5.629   0.904  0.0421  0.6720 -0.0156
   70MOL   H13818216   1.563   5.736   0.734  2.0726 -0.4987  2.8690
   70MOL   H13918217   1.288   5.692   0.801  2.1956  0.2764  1.5673
   70MOL   H14018218   1.116   5.703   0.641 -0.3812  0.0065 -0.0595
   70MOL   H14118219   1.158   5.876   0.586 -0.0692 -0.2250 -0.4903
   70MOL   H14218220   1.152   5.733   0.478 -0.9732  1.2139 -0.8704
   70MOL   H14318221   1.595   5.674   0.967  1.1109  2.3529 -2.4402
   70MOL   H14418222   1.438   5.590   0.966  0.9404  0.0853  0.7938
   70MOL   C14518223   1.584   5.501   0.834  0.1615  0.5961 -0.3803
   70MOL   N14618224   1.606   5.400   0.934 -0.5984  0.4946 -0.5981
   70MOL   C14718225   1.523   5.333   1.010  0.5738 -1.0478  0.0431
   70MOL   O14818226   1.399   5.331   0.994  0.0030  0.4085  0.2448
   70MOL   C14918227   1.589   5.285   1.136  0.5393 -0.4517 -0.7787
   70MOL   C15018228   1.723   5.541   0.778  0.1780  0.5265  0.6613
   70MOL   H15118229   1.511   5.460   0.764  0.3887 -3.0655  1.4528
   70MOL   H15218230   1.704   5.397   0.957 -0.5824  3.5191 -0.0981
   70MOL   H15318231   1.655   5.358   1.181 -2.9499  1.7669  0.9988
   70MOL   H15418232   1.506   5.268   1.205  1.2556 -1.0539 -0.0595
   70MOL   H15518233   1.630   5.187   1.110 -2.4006 -1.5924 -1.3962
   70MOL   H15618234   1.708   5.615   0.700  1.6896 -0.1852 -0.3108
   70MOL   H15718235   1.783   5.584   0.858  1.3839 -1.6085  0.9483
   70MOL   C15818236   1.798   5.438   0.701  0.5719  0.9284  0.1423
   70MOL   N15918237   1.937   5.482   0.677  0.6537 -0.3276  0.1370
   70MOL   C16018238   2.038   5.485   0.766  0.2086 -0.4613  0.3772
   70MOL   O16118239   2.013   5.473   0.888 -0.2082  0.4387  0.3196
   70MOL   C16218240   2.183   5.521   0.717 -0.3600  0.6257 -0.0071
   70MOL   C16318241   1.730   5.405   0.565  0.2001  0.1917 -0.4062
   70MOL   H16418242   1.807   5.347   0.760 -0.0955  0.7889  0.0343
   70MOL   H16518243   1.957   5.526   0.588 -0.6921 -0.1470 -0.0811
   70MOL   H16618244   2.180   5.625   0.684  4.1192  1.4986  1.9845
   70MOL   H16718245   2.260   5.511   0.793 -0.9135  0.7227  0.5630
   70MOL   H16818246   2.208   5.472   0.622 -0.6738  0.7583 -0.1612
   70MOL   H16918247   1.635   5.365   0.599 -0.1440  1.6263  0.3647
   70MOL   H17018248   1.703   5.493   0.507  0.3015  0.1295 -0.5499
   70MOL   C17118249   1.808   5.301   0.480  0.7293  0.1115  0.6108
   70MOL   N17218250   1.903   5.378   0.397 -0.5515  0.1970  0.3532
   70MOL   C17318251   2.040   5.367   0.397  0.2501  0.0648  0.2949
   70MOL   O17418252   2.113   5.290   0.462 -0.0819 -0.3835  0.3943
   70MOL   C17518253   2.101   5.464   0.304 -0.1210 -0.3266  0.2769
   70MOL   C17618254   1.709   5.208   0.397 -0.5826 -0.9312  0.5851
   70MOL   H17718255   1.859   5.237   0.553 -1.3893 -2.8337 -0.3968
   70MOL   H17818256   1.864   5.447   0.334 -1.2042  1.0427  1.6753
   70MOL   H17918257   2.046   5.558   0.313 -2.6090 -1.6455 -0.7315
   70MOL   H18018258   2.207   5.485   0.322  0.2961 -0.4316 -1.9581
   70MOL   H18118259   2.089   5.432   0.201 -1.4118 -1.1148  0.6719
   70MOL   H18218260   1.602   5.229   0.407 -0.7054 -1.8516  1.1571
   70MOL   H18318261   1.731   5.239   0.295  0.8777  0.2954  1.2616
   70MOL   C18418262   1.702   5.055   0.407  0.0039  0.6662 -0.6928
   70MOL   N18518263   1.635   5.004   0.286  0.1464  0.2676 -0.2906
   70MOL   C18618264   1.686   5.003   0.165 -0.2999  0.3587 -0.4744
   70MOL   O18718265   1.790   5.053   0.130 -0.3414 -0.1156  0.2361
   70MOL   C18818266   1.603   4.928   0.062  0.3065  0.4510 -0.8370
   70MOL   C18918267   1.611   5.010   0.522 -0.8124  0.0857  0.5681
   70MOL   H19018268   1.801   5.009   0.409  0.6076  1.9722  0.4269
   70MOL   H19118269   1.546   4.956   0.298  0.4045  0.2114  1.4191
   70MOL   H19218270   1.500   4.964   0.062  0.0824 -0.1622 -0.4895
   70MOL   H19318271   1.642   4.954   7.804  2.0515  0.4610 -0.1540
   70MOL   H19418272   1.605   4.820   0.082  2.1588  0.6941  0.4966
   70MOL   H19518273   1.510   5.041   0.496 -0.5472  1.6446  1.3762
   70MOL   H19618274   1.603   4.901   0.527 -0.3855  0.0104 -0.3176
   70MOL   C19718275   1.645   5.050   0.666 -0.0562  0.0486 -0.4614
   70MOL   N19818276   1.790   5.023   0.688 -0.1147  0.0851 -0.2423
   70MOL   C19918277   1.855   5.040   0.803 -0.4381 -0.1679 -0.5412
   70MOL   O20018278   1.810   5.102   0.898 -0.0229 -0.5730 -0.0906
   70MOL   C20118279   1.988   4.972   0.826 -0.1230 -0.0944 -0.5448
   70MOL   C20218280   1.550   4.989   0.775 -0.2960 -0.9208  0.2612
   70MOL   H20318281   1.641   5.159   0.661 -1.8072  0.0531  0.5197
   70MOL   H20418282   1.839   4.953   0.634  0.7926  0.4973  0.0374
   70MOL   H20518283   2.043   4.950   0.734 -0.8734  2.5453 -1.6704
   70MOL   H20618284   2.055   5.031   0.889 -1.0027 -0.6853  0.9580
   70MOL   H20718285   1.961   4.883   0.883 -1.4595  0.8427  0.3099
   70MOL   H20818286   1.581   4.888   0.801  3.7771 -0.1035 -1.0815
   70MOL   H20918287   1.578   5.045   0.865 -0.0819  1.8913 -1.4999
   70MOL   C21018288   1.391   5.003   0.756 -0.1667 -0.2181  0.7707
   70MOL   N21118289   1.338   5.138   0.769 -0.1748  0.8024  0.0151
   70MOL   C21218290   1.296   5.210   0.666 -0.1200  0.3691 -0.1043
   70MOL   O21318291   1.292   5.183   0.544 -0.0232  0.1822  0.6200
   70MOL   C21418292   1.235   5.346   0.698  0.6788  0.0445 -0.0724
   70MOL   C21518293   1.319   4.922   0.865 -0.0800 -0.0503 -0.1866
   70MOL   H21618294   1.367   4.960   0.658 -1.9797  0.6833  0.7897
   70MOL   H21718295   1.338   5.176   0.862 -1.7174 -0.2592  0.4667
   70MOL   H21818296   1.135   5.335   0.741  1.1119 -2.4476  0.3827
   70MOL   H21918297   1.288   5.413   0.765  0.8104 -0.6811  0.5465
   70MOL   H22018298   1.219   5.403   0.606 -0.9704 -0.5610 -0.1777
   70MOL   H22118299   1.354   4.963   0.960 -0.9812  1.0581 -0.3268
   70MOL   H22218300   1.213   4.945   0.877 -0.3654  0.0913 -2.8260
   70MOL   C22318301   1.348   4.769   0.867  0.1201  0.1310 -0.6693
   70MOL   N22418302   1.316   4.698   0.739 -0.3404  0.4702  0.4449
   70MOL   C22518303   1.417   4.649   0.665  0.3535 -0.2816 -0.1450
   70MOL   O22618304   1.534   4.641   0.710  0.4288  0.1045 -0.2377
   70MOL   C22718305   1.390   4.612   0.523 -0.7823  0.7000 -0.1468
   70MOL   C22818306   1.262   4.705   0.978 -0.4865 -0.2825  0.1706
   70MOL   H22918307   1.448   4.741   0.897  0.0730 -1.5369 -2.0055
   70MOL   H23018308   1.220   4.711   0.710 -0.0271 -1.9203 -1.8675
   70MOL   H23118309   1.298   4.667   0.499 -1.2442  0.5190  1.1652
   70MOL   H23218310   1.478   4.643   0.466  0.6618 -1.4676  0.8729
   70MOL   H23318311   1.378   4.505   0.506  0.5994  0.4222  0.6130
   70MOL   H23418312   1.302   4.736   1.075 -1.8887  1.1731  0.3127
   70MOL   H23518313   1.163   4.752   0.975 -1.1958 -1.7393  0.2377
   70MOL   C23618314   1.250   4.552   0.980 -0.2896 -0.2397  0.0205
   70MOL   N23718315   1.150   4.501   1.074  0.2856  0.7097 -0.5265
   70MOL   C23818316   1.022   4.495   1.049  0.3132  0.2352  0.7784
   70MOL   O23918317   0.982   4.521   0.935 -0.2517  0.0744  0.3315
   70MOL   C24018318   0.918   4.471   1.160 -0.1368 -0.1340  0.1085
   70MOL   C24118319   1.382   4.481   1.015 -0.1468  0.3433 -0.1798
   70MOL   H24218320   1.224   4.517   0.880  2.4774  0.5048 -1.0120
   70MOL   H24318321   1.189   4.465   1.160  0.0325  0.0272 -0.6948
   70MOL   H24418322   0.890   4.369   1.185 -0.1191 -0.3192 -0.6081
   70MOL   H24518323   0.955   4.531   1.243 -1.4879  1.0738 -0.1603
   70MOL   H24618324   0.829   4.522   1.124 -0.0200  0.7459  1.0743
   70MOL   H24718325   1.351   4.377   1.018  0.6603  0.0844 -0.5002
   70MOL   H24818326   1.447   4.494   0.928  1.4668  1.6282  1.1725
   70MOL   C24918327   1.465   4.521   1.142  1.2489  0.2774  0.7632
   70MOL   N25018328   1.565   4.614   1.104 -0.1489 -1.1337  0.2139
   70MOL   C25118329   1.593   4.733   1.158  0.4600  0.9510 -0.0269
   70MOL   O25218330   1.516   4.778   1.244 -0.5521  0.2810 -0.5784
   70MOL   C25318331   1.712   4.801   1.097 -0.1937 -0.4001  0.2005
   70MOL   C25418332   1.531   4.406   1.211  0.1512 -0.2773  1.2601
   70MOL   H25518333   1.386   4.556   1.208 -0.0878 -3.3804  1.2200
   70MOL   H25618334   1.617   4.574   1.027  0.0273 -1.8140  0.6815
   70MOL   H25718335   1.812   4.780   1.136  0.3409 -0.0483 -0.9435
   70MOL   H25818336   1.719   4.804   0.988 -0.5008  1.4828  0.2074
   70MOL   H25918337   1.707   4.908   1.121 -2.4363 -0.6140  0.7760
   70MOL   H26018338   1.593   4.349   1.142  0.8682  0.7455  1.0557
   70MOL   H26118339   1.607   4.447   1.278  0.2540  0.0751  0.9282
   70MOL   H26218340   1.464   4.334   1.258  0.5979 -0.7110  1.2448
   71MOL     C118341   5.180   5.652   1.617 -0.1188  0.0120 -0.5615
   71MOL     N218342   5.289   5.718   1.551  0.0123 -0.0706 -0.3019
   71MOL     C318343   5.283   5.839   1.498  0.2890  0.7238  0.4986
   71MOL     O418344   5.181   5.898   1.516  0.2793 -0.8194  0.2363
   71MOL     C518345   5.386   5.900   1.405 -0.3263  0.7318  0.3782
   71MOL     C618346   5.172   5.501   1.584  0.0129 -1.4451  0.5287
   71MOL     H718347   5.192   5.684   1.720 -1.5040 -2.4295  0.4022
   71MOL     H818348   5.372   5.662   1.538  1.5373  1.9856  0.2144
   71MOL     H918349   5.466   5.829   1.388  1.5225  3.6463 -4.1930
   71MOL    H1018350   5.333   5.897   1.310 -2.0915  1.0517  1.3267
   71MOL    H1118351   5.420   5.998   1.439 -2.1344  0.8735  1.8395
   71MOL    H1218352   5.144   5.501   1.479 -1.1460  1.1970  0.7972
   71MOL    H1318353   5.270   5.456   1.601  0.2778 -0.8508  0.5806
   71MOL    H1418354   5.083   5.696   1.594 -0.5368 -0.4051  0.3819
   71MOL    C1518355   5.070   5.420   1.669 -1.0781 -0.1601  0.2270
   71MOL    N1618356   5.078   5.277   1.637 -0.2926  0.3589 -0.2818
   71MOL    C1718357   5.094   5.209   1.518 -0.4287 -0.5119 -0.3118
   71MOL    O1818358   5.105   5.263   1.411 -0.2571 -0.2015 -0.1868
   71MOL    C1918359   5.081   5.059   1.523  0.4295 -0.0127  0.0559
   71MOL    C2018360   4.924   5.477   1.667  0.5407 -0.4146 -0.3551
   71MOL    H2118361   5.107   5.418   1.771 -2.1481 -1.0089  0.5991
   71MOL    H2218362   5.070   5.213   1.714  0.5329  0.6887  0.0831
   71MOL    H2318363   4.974   5.044   1.509  0.1262  2.3398 -0.3684
   71MOL    H2418364   5.152   5.019   1.451  0.4737 -1.1492  0.7310
   71MOL    H2518365   5.119   5.025   1.619  1.6774  0.0181 -0.4186
   71MOL    H2618366   4.936   5.576   1.711 -0.2060 -1.3991  2.1350
   71MOL    H2718367   4.887   5.479   1.564 -0.9164  2.9274  0.1824
   71MOL    C2818368   4.814   5.406   1.754 -0.5725  0.4047 -0.2646
   71MOL    N2918369   4.753   5.286   1.695 -0.0422  0.0136  0.0016
   71MOL    C3018370   4.780   5.163   1.741  0.1937  0.2638  0.1586
   71MOL    O3118371   4.880   5.136   1.811  0.3261  0.1590  0.1420
   71MOL    C3218372   4.669   5.062   1.712 -0.5228 -0.5723 -0.4642
   71MOL    C3318373   4.708   5.514   1.784 -0.6413  0.9525 -0.3710
   71MOL    H3418374   4.864   5.375   1.846 -0.6499  0.5888 -0.1607
   71MOL    H3518375   4.670   5.303   1.640  1.4665 -1.2637 -2.7843
   71MOL    H3618376   4.671   4.996   1.798 -0.7975  0.8851  0.6715
   71MOL    H3718377   4.569   5.107   1.707 -0.8248 -0.9532  1.7083
   71MOL    H3818378   4.683   5.006   1.620 -1.5945  0.1103 -1.0609
   71MOL    H3918379   4.677   5.565   1.693 -0.9239  1.0745 -0.2073
   71MOL    H4018380   4.615   5.464   1.813 -0.5029  2.6450  3.2894
   71MOL    C4118381   4.751   5.613   1.895  0.7674  0.5328 -0.5209
   71MOL    N4218382   4.796   5.552   2.015 -0.7520 -0.4978 -0.1938
   71MOL    C4318383   4.916   5.516   2.056 -0.3439 -0.1523  0.3696
   71MOL    O4418384   5.018   5.513   1.989  0.2788  0.5333 -0.0505
   71MOL    C4518385   4.934   5.472   2.197 -0.3136  0.2213 -0.0964
   71MOL    C4618386   4.625   5.699   1.935 -0.0359  0.2253 -0.4825
   71MOL    H4718387   4.829   5.674   1.848  0.0319  0.7057 -1.5272
   71MOL    H4818388   4.721   5.526   2.078  0.5024 -2.7978  0.4333
   71MOL    H4918389   5.039   5.442   2.204 -0.5156 -0.6072 -0.5643
   71MOL    H5018390   4.907   5.551   2.268 -0.3813  0.1863 -0.0839
   71MOL    H5118391   4.866   5.389   2.216 -2.5450  1.5277 -2.1417
   71MOL    H5218392   4.544   5.628   1.948  1.8463 -2.6080 -3.3146
   71MOL    H5318393   4.639   5.737   2.036  1.6173 -1.0002 -0.2327
   71MOL    C5418394   4.585   5.810   1.828  0.6718 -0.3328 -0.6281
   71MOL    N5518395   4.693   5.906   1.806  0.0130 -0.2670  0.6158
   71MOL    C5618396   4.738   5.998   1.895  0.6469  0.7420  0.0824
   71MOL    O5718397   4.683   6.032   1.997 -0.3283  0.4120 -0.2519
   71MOL    C5818398   4.871   6.059   1.869  0.0328  0.2173 -0.4241
   71MOL    C5918399   4.448   5.874   1.854  0.2832  0.0389  0.0042
   71MOL    H6018400   4.582   5.761   1.730  3.9512 -0.1399 -0.8907
   71MOL    H6118401   4.759   5.884   1.733 -1.9809 -0.5485 -1.1470
   71MOL    H6218402   4.857   6.164   1.893 -0.1917 -0.0783  0.7725
   71MOL    H6318403   4.950   6.024   1.935 -0.7738 -1.0539 -0.1097
   71MOL    H6418404   4.904   6.048   1.766 -1.2825  1.2727 -0.9704
   71MOL    H6518405   4.366   5.804   1.871  2.4651 -2.1478  1.8570
   71MOL    H6618406   4.453   5.922   1.952 -0.3005 -0.7244  0.4048
   71MOL    C6718407   4.406   5.988   1.757  0.4960  0.4928  0.3465
   71MOL    N6818408   4.473   6.117   1.782 -0.2099  0.2559  0.7035
   71MOL    C6918409   4.475   6.212   1.690  0.2760  0.4668  0.1384
   71MOL    O7018410   4.428   6.196   1.579 -0.2693 -0.6592  0.0974
   71MOL    C7118411   4.572   6.327   1.710  0.0660 -0.7047  0.1310
   71MOL    C7218412   4.253   6.011   1.776 -0.4561 -0.4023 -0.7878
   71MOL    H7318413   4.434   5.959   1.656 -0.2686  0.3340  0.1767
   71MOL    H7418414   4.523   6.125   1.869 -0.8363 -2.3625  1.3759
   71MOL    H7518415   4.618   6.377   1.625 -0.4440 -0.4847 -0.0173
   71MOL    H7618416   4.519   6.398   1.773 -0.1041 -1.2755  0.6398
   71MOL    H7718417   4.656   6.281   1.763  0.2718  0.4365  0.8228
   71MOL    H7818418   4.221   5.992   1.879  0.4138 -0.1376 -0.4609
   71MOL    H7918419   4.232   6.117   1.764  0.0050 -0.0537  1.3044
   71MOL    C8018420   4.171   5.941   1.669  0.0666  0.2986 -0.2382
   71MOL    N8118421   4.214   5.981   1.534 -0.6932 -0.3233  0.0031
   71MOL    C8218422   4.213   5.909   1.424 -0.3469  0.2721 -0.6091
   71MOL    O8318423   4.158   5.796   1.417  0.0350  0.2564  0.1426
   71MOL    C8418424   4.291   5.966   1.304 -0.4681  0.2239  1.1307
   71MOL    C8518425   4.025   5.984   1.683 -0.4450  0.4604 -0.4751
   71MOL    H8618426   4.183   5.834   1.684 -0.2578  0.1709 -0.8637
   71MOL    H8718427   4.282   6.056   1.531  0.0782 -0.9506  1.0578
   71MOL    H8818428   4.249   6.057   1.261  0.7316 -0.0534 -0.6899
   71MOL    H8918429   4.397   5.980   1.328 -0.8202  0.0218  2.8409
   71MOL    H9018430   4.292   5.899   1.219 -0.2194  1.3058  0.2639
   71MOL    H9118431   4.002   5.991   1.790  1.2644 -0.6234 -0.0115
   71MOL    H9218432   4.023   6.085   1.643 -0.0835  0.9437  0.7129
   71MOL    C9318433   3.917   5.890   1.625  0.4440  0.4241  0.5267
   71MOL    N9418434   3.792   5.970   1.646  0.4451  0.2906  0.0461
   71MOL    C9518435   3.706   5.993   1.550  0.0913 -0.3006 -0.3130
   71MOL    O9618436   3.700   5.925   1.448  0.6064  0.3273 -1.0028
   71MOL    C9718437   3.596   6.089   1.575 -0.2895  0.0952 -0.1564
   71MOL    C9818438   3.899   5.752   1.695 -0.0105 -0.2620  0.4975
   71MOL    H9918439   3.924   5.869   1.518 -0.8651 -0.2589  0.5586
   71MOL   H10018440   3.779   6.009   1.738  1.3035  0.6582  0.0127
   71MOL   H10118441   3.612   6.134   1.673 -0.2395 -0.6533  0.1824
   71MOL   H10218442   3.589   6.159   1.491  0.1976  0.1607 -0.1406
   71MOL   H10318443   3.506   6.027   1.576 -0.6751  0.6099 -1.0942
   71MOL   H10418444   3.806   5.706   1.663 -2.0785  3.1368  1.3245
   71MOL   H10518445   3.975   5.684   1.656 -2.0421 -0.9048 -2.4880
   71MOL   C10618446   3.883   5.760   1.853 -0.3225 -0.1435 -0.5582
   71MOL   N10718447   4.007   5.711   1.921 -0.3284 -0.1133  0.1561
   71MOL   C10818448   4.077   5.784   2.009  0.3203  0.1009 -0.2665
   71MOL   O10918449   4.051   5.897   2.032  0.4381  0.2325 -0.7140
   71MOL   C11018450   4.190   5.716   2.087 -0.5253 -0.1320 -0.6982
   71MOL   C11118451   3.760   5.673   1.899  0.3013 -0.2652 -0.4128
   71MOL   H11218452   3.854   5.858   1.889  0.2992  0.6991 -2.2674
   71MOL   H11318453   4.026   5.613   1.904  0.2341  0.4488 -2.7022
   71MOL   H11418454   4.155   5.702   2.189  1.3008  0.4553  0.0230
   71MOL   H11518455   4.212   5.622   2.036 -1.2433  0.1220 -1.4831
   71MOL   H11618456   4.283   5.773   2.087  0.0535 -1.0293 -2.4885
   71MOL   H11718457   3.777   5.576   1.854 -0.7017 -0.5684 -0.1479
   71MOL   H11818458   3.771   5.661   2.006  0.9367  1.3094 -0.2771
   71MOL   C11918459   3.618   5.735   1.861 -0.1704 -0.4586 -0.2464
   71MOL   N12018460   3.571   5.819   1.971 -0.3528 -0.0380  0.0865
   71MOL   C12118461   3.541   5.949   1.976 -0.2003  0.2262  0.0197
   71MOL   O12218462   3.546   6.017   1.872 -0.0182 -0.3897  0.1510
   71MOL   C12318463   3.503   6.001   2.114 -0.2463 -0.2414  0.1036
   71MOL   C12418464   3.511   5.624   1.845  0.1748  0.5891 -0.5045
   71MOL   H12518465   3.621   5.790   1.767  0.2661 -1.9225 -1.1036
   71MOL   H12618466   3.583   5.776   2.061  1.0759 -0.0862 -0.1145
   71MOL   H12718467   3.493   6.110   2.113 -2.0379 -0.3674  1.6548
   71MOL   H12818468   3.407   5.954   2.138 -0.8891  0.3164 -1.2844
   71MOL   H12918469   3.573   5.963   2.188 -1.4433 -0.1414  1.3022
   71MOL   H13018470   3.510   5.565   1.936 -1.4339  2.5996  0.8146
   71MOL   H13118471   3.414   5.673   1.850  0.6174  1.4715 -0.5535
   71MOL   C13218472   3.510   5.559   1.705 -0.3546  0.3151 -0.2533
   71MOL   N13318473   3.636   5.485   1.674  0.1570  0.6724  0.3639
   71MOL   C13418474   3.673   5.365   1.726 -0.4996  0.0432 -0.6809
   71MOL   O13518475   3.612   5.301   1.815  0.0695  0.1035  0.6030
   71MOL   C13618476   3.782   5.297   1.640  0.7634 -0.0431  0.2677
   71MOL   C13718477   3.489   5.664   1.593 -0.7478 -0.3822  0.1884
   71MOL   H13818478   3.427   5.489   1.705 -0.1667  0.0059  3.8682
   71MOL   H13918479   3.692   5.540   1.610  1.6514  1.3215  2.1815
   71MOL   H14018480   3.883   5.326   1.666  0.8394  0.1391 -0.2240
   71MOL   H14118481   3.776   5.190   1.664  1.1918 -0.0842  0.1960
   71MOL   H14218482   3.757   5.305   1.534 -0.1273  0.9530  0.5515
   71MOL   H14318483   3.415   5.733   1.633 -0.2969 -0.5368  1.2945
   71MOL   H14418484   3.578   5.723   1.572 -2.2469  2.1999  0.9097
   71MOL   C14518485   3.441   5.618   1.452  0.3070  0.1125 -0.0358
   71MOL   N14618486   3.478   5.727   1.361 -0.2566  0.7201  0.0349
   71MOL   C14718487   3.527   5.712   1.239 -0.3376 -0.4020 -0.8316
   71MOL   O14818488   3.542   5.602   1.180 -0.1075 -0.1998 -0.0784
   71MOL   C14918489   3.560   5.837   1.162 -0.5744 -0.6643 -0.4790
   71MOL   C15018490   3.288   5.608   1.448  0.6431  0.0889  0.5992
   71MOL   H15118491   3.499   5.531   1.422 -0.9469 -1.5284  2.0778
   71MOL   H15218492   3.442   5.818   1.384 -1.1382  0.5507 -0.6302
   71MOL   H15318493   3.568   5.809   1.056 -2.1035 -0.8551 -0.5498
   71MOL   H15418494   3.485   5.916   1.158 -1.3595 -1.4688 -2.3453
   71MOL   H15518495   3.655   5.885   1.187  0.8261 -3.3688 -0.4378
   71MOL   H15618496   3.241   5.696   1.492  1.1540  1.6447 -1.8146
   71MOL   H15718497   3.256   5.616   1.344  1.8764  3.3599  0.3901
   71MOL   C15818498   3.223   5.489   1.520  0.5109 -0.3801  0.1518
   71MOL   N15918499   3.281   5.371   1.464 -0.4992  0.0461 -0.5104
   71MOL   C16018500   3.330   5.271   1.543  0.0972 -0.7509 -0.0843
   71MOL   O16118501   3.321   5.266   1.667  0.4411  0.0575 -0.0071
   71MOL   C16218502   3.421   5.167   1.477  0.2830  0.1546 -0.1831
   71MOL   C16318503   3.066   5.486   1.494  0.1746  0.1985  0.2172
   71MOL   H16418504   3.232   5.499   1.628 -2.3281 -0.7333  0.4616
   71MOL   H16518505   3.290   5.356   1.365 -0.1386  0.8537 -0.5970
   71MOL   H16618506   3.523   5.167   1.515 -0.2558 -0.7884  1.3230
   71MOL   H16718507   3.367   5.076   1.504 -0.3164  0.6326  0.2431
   71MOL   H16818508   3.425   5.183   1.370  1.8375  0.5202 -0.0875
   71MOL   H16918509   3.041   5.480   1.388  0.0850  1.9520  0.1212
   71MOL   H17018510   3.021   5.399   1.542 -0.5195 -2.1420 -4.4592
   71MOL   C17118511   2.986   5.605   1.549  0.4719  0.0224 -0.4171
   71MOL   N17218512   3.022   5.626   1.692  0.4486 -0.7772  0.5195
   71MOL   C17318513   3.080   5.736   1.749  0.4010  0.4801  0.2580
   71MOL   O17418514   3.091   5.838   1.681  0.2825 -0.3475  0.0295
   71MOL   C17518515   3.124   5.725   1.895  0.5122 -0.4032  0.2801
   71MOL   C17618516   2.830   5.592   1.532 -0.0478 -0.5907 -0.8512
   71MOL   H17718517   3.014   5.686   1.483  1.5446  0.0067  0.0006
   71MOL   H17818518   3.013   5.543   1.750  0.3611 -0.4906  0.9201
   71MOL   H17918519   3.043   5.759   1.960  1.7848  1.9869  0.6652
   71MOL   H18018520   3.170   5.631   1.926  1.0121 -0.9242 -1.9536
   71MOL   H18118521   3.207   5.793   1.909  0.8400 -1.4584  4.0782
   71MOL   H18218522   2.818   5.586   1.424 -2.2856  0.8630 -0.7008
   71MOL   H18318523   2.804   5.499   1.583 -0.8244  1.3521  2.4689
   71MOL   C18418524   2.747   5.717   1.582 -0.2997  0.8198  0.7913
   71MOL   N18518525   2.821   5.844   1.562 -0.5598 -0.8421  0.2606
   71MOL   C18618526   2.778   5.961   1.519 -0.0091 -0.2898  0.3213
   71MOL   O18718527   2.667   5.970   1.476 -0.1609 -0.5415 -0.1636
   71MOL   C18818528   2.860   6.085   1.542 -0.5914 -0.3482  0.8053
   71MOL   C18918529   2.694   5.709   1.731 -0.3100 -0.1775 -1.1798
   71MOL   H19018530   2.654   5.723   1.524 -1.0505 -0.2136  1.8680
   71MOL   H19118531   2.919   5.847   1.585 -0.1699  1.4614 -1.4199
   71MOL   H19218532   2.920   6.115   1.456  0.3139 -2.0302  0.8335
   71MOL   H19318533   2.800   6.171   1.570 -0.0911 -0.1025  1.1341
   71MOL   H19418534   2.924   6.057   1.625 -2.5133 -2.7244  1.5512
   71MOL   H19518535   2.633   5.619   1.742 -0.7271  0.3365  0.8673
   71MOL   H19618536   2.774   5.692   1.803 -2.1999 -0.8708  0.8062
   71MOL   C19718537   2.597   5.817   1.776 -0.1645 -0.4744  0.5989
   71MOL   N19818538   2.583   5.809   1.923 -0.4421 -0.1220 -0.4674
   71MOL   C19918539   2.627   5.893   2.011 -0.5377 -0.4780  0.5345
   71MOL   O20018540   2.709   5.983   1.984  0.1430  0.5830  0.1520
   71MOL   C20118541   2.598   5.856   2.156  0.2688  0.7594  0.1854
   71MOL   C20218542   2.466   5.810   1.701 -0.2004  0.2180  0.4277
   71MOL   H20318543   2.631   5.918   1.755  0.4923 -0.8596 -0.2447
   71MOL   H20418544   2.531   5.734   1.967 -1.0435  1.8138  2.2766
   71MOL   H20518545   2.492   5.880   2.171 -0.1647 -0.0460 -1.4434
   71MOL   H20618546   2.623   5.752   2.178 -1.2928  0.1539 -0.8135
   71MOL   H20718547   2.656   5.912   2.229  2.4195  0.8477 -1.5445
   71MOL   H20818548   2.488   5.818   1.595  2.5816 -0.8690  0.8782
   71MOL   H20918549   2.432   5.707   1.697  3.7765 -1.2749  2.3081
   71MOL   C21018550   2.351   5.914   1.744  0.0296  0.2318 -0.1042
   71MOL   N21118551   2.408   6.047   1.743 -0.2989 -0.2315  0.1522
   71MOL   C21218552   2.391   6.148   1.654  0.3134 -0.3628  0.7356
   71MOL   O21318553   2.294   6.144   1.577 -0.2155  0.1576  0.1728
   71MOL   C21418554   2.502   6.252   1.657 -0.1724  0.3456  0.3771
   71MOL   C21518555   2.273   5.899   1.880 -0.0308 -0.3874  0.1908
   71MOL   H21618556   2.279   5.909   1.662 -1.4398 -0.0853  1.1975
   71MOL   H21718557   2.473   6.065   1.818  1.1064 -0.6989 -0.9406
   71MOL   H21818558   2.564   6.253   1.567 -1.5833 -1.3879 -0.6402
   71MOL   H21918559   2.460   6.352   1.658 -0.9671  0.0235 -0.1572
   71MOL   H22018560   2.573   6.232   1.738  0.0852 -1.7088 -0.3235
   71MOL   H22118561   2.352   5.904   1.955 -0.2982  0.3536  0.4347
   71MOL   H22218562   2.205   5.983   1.899 -0.6921 -0.5690 -1.3073
   71MOL   C22318563   2.199   5.766   1.897  0.0742  0.2935 -0.0156
   71MOL   N22418564   2.123   5.720   1.779 -0.6601  0.5402  0.6434
   71MOL   C22518565   2.023   5.774   1.710  0.2837 -0.2693  0.7438
   71MOL   O22618566   1.965   5.872   1.749  0.3256 -0.6531  0.0449
   71MOL   C22718567   2.003   5.719   1.568  0.4055 -0.1042  0.4785
   71MOL   C22818568   2.108   5.763   2.020  1.2835  0.2587  0.2910
   71MOL   H22918569   2.278   5.695   1.921  0.0665  0.8160  1.5835
   71MOL   H23018570   2.159   5.633   1.743 -1.7210  0.4130 -0.1666
   71MOL   H23118571   1.978   5.614   1.582 -3.1301  0.4493 -1.1847
   71MOL   H23218572   1.924   5.775   1.518 -1.1888 -1.9905  0.8235
   71MOL   H23318573   2.104   5.735   1.529  1.0491 -1.2422  1.6682
   71MOL   H23418574   2.166   5.814   2.097  1.2228 -1.3183  1.4106
   71MOL   H23518575   2.021   5.829   2.023  2.2175  1.4965  0.1102
   71MOL   C23618576   2.063   5.623   2.061 -0.5768  0.2329 -0.3417
   71MOL   N23718577   1.961   5.634   2.163 -0.0266 -0.1845  0.6679
   71MOL   C23818578   1.834   5.621   2.130 -0.3859 -0.1386 -0.3633
   71MOL   O23918579   1.786   5.582   2.020  0.1883 -0.4402 -0.0126
   71MOL   C24018580   1.736   5.668   2.238  0.2547 -0.0177  0.2993
   71MOL   C24118581   2.172   5.515   2.098 -0.0556  0.1208  0.1733
   71MOL   H24218582   2.030   5.572   1.970 -0.1445  0.9316 -0.8945
   71MOL   H24318583   1.982   5.665   2.256 -0.9102  0.3272  0.7022
   71MOL   H24418584   1.647   5.699   2.184 -0.5185 -0.9817  0.9902
   71MOL   H24518585   1.719   5.585   2.307  2.4072 -1.1566 -0.4884
   71MOL   H24618586   1.754   5.761   2.293 -3.0414  0.0509  1.3644
   71MOL   H24718587   2.113   5.424   2.109  1.2917 -0.6712  0.9557
   71MOL   H24818588   2.227   5.500   2.006 -1.7288 -2.2759 -0.4822
   71MOL   C24918589   2.273   5.537   2.212 -0.1943 -0.2612  0.8531
   71MOL   N25018590   2.384   5.444   2.196  0.1447 -0.6382 -0.5395
   71MOL   C25118591   2.495   5.469   2.120  0.7161 -1.1317 -0.3468
   71MOL   O25218592   2.505   5.575   2.062 -0.4811 -0.2092  0.1810
   71MOL   C25318593   2.607   5.361   2.118 -0.9121 -0.3577  0.7205
   71MOL   C25418594   2.225   5.517   2.353  0.1768  0.2164  0.3380
   71MOL   H25518595   2.308   5.641   2.214  0.8032 -0.6045  1.8655
   71MOL   H25618596   2.380   5.361   2.255  0.3527 -0.1131  0.2235
   71MOL   H25718597   2.665   5.388   2.029 -0.0234  0.0319  1.4058
   71MOL   H25818598   2.666   5.363   2.210 -2.2563 -0.1704  1.5963
   71MOL   H25918599   2.556   5.266   2.109 -0.6872 -0.3624 -0.6527
   71MOL   H26018600   2.118   5.536   2.356  0.2421  0.4040  1.9670
   71MOL   H26118601   2.238   5.412   2.379 -0.6805 -0.1121 -0.5214
   71MOL   H26218602   2.278   5.585   2.421 -0.0657  1.0120 -0.2633
   72MOL     C118603   0.364   1.240   2.437  0.3956 -0.2382 -0.1887
   72MOL     N218604   0.447   1.178   2.540  0.6060  0.1028 -0.4153
   72MOL     C318605   0.437   1.054   2.589  0.1405 -0.6567  0.3574
   72MOL     O418606   0.355   0.969   2.553  0.2608 -0.5006 -0.3390
   72MOL     C518607   0.527   1.016   2.707  0.5611 -0.0042 -0.2383
   72MOL     C618608   0.415   1.378   2.387  0.4593 -0.0027 -0.1111
   72MOL     H718609   0.357   1.176   2.350 -1.1077  1.4842 -1.3751
   72MOL     H818610   0.526   1.225   2.581 -0.1806  0.3863  0.8009
   72MOL     H918611   0.505   1.075   2.797 -1.0151 -0.2237 -0.4711
   72MOL    H1018612   0.509   0.912   2.734  2.5807  0.1535  1.8735
   72MOL    H1118613   0.630   1.041   2.684  0.0254  1.0548 -1.5375
   72MOL    H1218614   0.426   1.449   2.468 -0.0064  1.1148 -1.0110
   72MOL    H1318615   0.512   1.366   2.339 -0.7270  0.2895 -2.7043
   72MOL    H1418616   0.267   1.259   2.482  0.8331  1.7965 -0.0335
   72MOL    C1518617   0.331   1.451   2.277  0.3241  0.6406 -0.1949
   72MOL    N1618618   0.301   1.353   2.171  0.1518  0.3764 -0.2121
   72MOL    C1718619   0.176   1.322   2.136  0.1947 -0.1267 -0.8832
   72MOL    O1818620   0.077   1.366   2.190  0.0085  0.4722  0.0189
   72MOL    C1918621   0.160   1.231   2.017  0.1167  0.3614  0.2739
   72MOL    C2018622   0.411   1.569   2.218 -0.3609  0.3223  0.1965
   72MOL    H2118623   0.238   1.489   2.318 -0.1198  0.2323 -0.8190
   72MOL    H2218624   0.377   1.323   2.111 -0.6761  0.0725 -1.1269
   72MOL    H2318625   0.106   1.278   1.935 -2.2995  0.5001  1.8897
   72MOL    H2418626   0.243   1.166   1.990 -0.3993  0.0170 -0.4997
   72MOL    H2518627   0.082   1.166   2.056  0.4459  0.9213  1.9191
   72MOL    H2618628   0.510   1.563   2.262 -0.4551 -3.6192  0.0930
   72MOL    H2718629   0.441   1.542   2.116  1.7796 -0.6851  1.0688
   72MOL    C2818630   0.358   1.713   2.215  0.2872 -0.6258  0.5599
   72MOL    N2918631   0.349   1.761   2.345  0.6671  0.4702 -0.2695
   72MOL    C3018632   0.455   1.797   2.426  0.2227  0.1772  0.1163
   72MOL    O3118633   0.572   1.773   2.390  0.2148 -0.2506 -0.1157
   72MOL    C3218634   0.423   1.855   2.563  0.3851  0.7220  0.8959
   72MOL    C3318635   0.216   1.725   2.150  0.8489 -0.0291 -0.1840
   72MOL    H3418636   0.429   1.779   2.164 -1.0529 -0.3464 -0.9674
   72MOL    H3518637   0.260   1.791   2.383  1.9403  1.2017  2.2080
   72MOL    H3618638   0.363   1.946   2.561  0.9231  1.0581 -1.6357
   72MOL    H3718639   0.387   1.786   2.640  2.0370  2.0002  2.8609
   72MOL    H3818640   0.522   1.879   2.600  1.2878 -1.4940  0.0081
   72MOL    H3918641   0.144   1.662   2.203 -1.3124  0.9699 -1.8413
   72MOL    H4018642   0.175   1.825   2.162  1.8720  0.7105 -2.6815
   72MOL    C4118643   0.211   1.696   1.994 -0.4719 -0.4756 -0.8492
   72MOL    N4218644   0.302   1.787   1.921 -0.0697 -0.4451  0.3523
   72MOL    C4318645   0.426   1.760   1.874  0.4828  0.4467 -0.5407
   72MOL    O4418646   0.479   1.657   1.901  0.6220  0.0038  0.3897
   72MOL    C4518647   0.499   1.877   1.812  0.7290  0.1777 -0.1740
   72MOL    C4618648   0.073   1.671   1.924 -0.3481 -0.0969 -0.5226
   72MOL    H4718649   0.250   1.594   1.991  1.8065  0.2959  0.6654
   72MOL    H4818650   0.262   1.873   1.886  1.1555  0.4569  1.1011
   72MOL    H4918651   0.450   1.920   1.726 -0.3498  0.9924  0.8305
   72MOL    H5018652   0.519   1.959   1.881 -0.3443  1.0517 -0.9001
   72MOL    H5118653   0.598   1.848   1.777  1.2350 -0.1246  1.4599
   72MOL    H5218654   0.002   1.644   2.003  0.3270 -2.4036 -0.6781
   72MOL    H5318655   0.036   1.763   1.879 -1.9520 -1.0909 -1.2789
   72MOL    C5418656   0.074   1.566   1.806 -0.5588  0.1931 -0.4344
   72MOL    N5518657   0.088   1.628   1.679  0.1781  0.2751 -0.0677
   72MOL    C5618658   0.174   1.614   1.577  0.0622  0.1716  0.2145
   72MOL    O5718659   0.175   1.699   1.487 -0.2192 -0.2641  0.4373
   72MOL    C5818660   0.272   1.499   1.574 -0.4710 -0.2524 -0.3406
   72MOL    C5918661   7.799   1.459   1.815 -0.5340  0.7163 -0.1429
   72MOL    H6018662   0.159   1.501   1.826  0.2141  1.7837  1.5621
   72MOL    H6118663   0.016   1.699   1.673 -0.8190 -0.5732  1.3450
   72MOL    H6218664   0.310   1.486   1.473 -0.9148 -1.7382 -0.3255
   72MOL    H6318665   0.358   1.512   1.640 -0.6984 -0.7327  0.0514
   72MOL    H6418666   0.220   1.406   1.596 -3.0945  0.9346 -1.3775
   72MOL    H6518667   7.838   1.367   1.773 -1.1737  0.0676  0.6704
   72MOL    H6618668   7.777   1.433   1.919  2.4649 -0.8964  0.1397
   72MOL    C6718669   7.672   1.491   1.731 -0.7375 -0.4911  0.0793
   72MOL    N6818670   7.593   1.592   1.793  0.5629  0.7918 -0.1213
   72MOL    C6918671   7.576   1.716   1.752  1.3952 -0.0207 -0.5615
   72MOL    O7018672   7.636   1.768   1.657 -0.4944 -0.0635  0.5390
   72MOL    C7118673   7.463   1.784   1.832 -1.0537  0.3180  0.6767
   72MOL    C7218674   7.581   1.366   1.694 -0.7583 -0.0318 -0.2593
   72MOL    H7318675   7.701   1.519   1.629 -1.6596 -0.9406 -0.3084
   72MOL    H7418676   7.517   1.556   1.849  1.6674 -1.4235  0.0269
   72MOL    H7518677   7.444   1.878   1.779  1.0970  1.5168  1.9179
   72MOL    H7618678   7.369   1.738   1.860 -0.5929  0.4388  2.4991
   72MOL    H7718679   7.496   1.821   1.930 -0.2780  0.1335  0.4886
   72MOL    H7818680   7.490   1.388   1.637 -0.0388 -0.0078 -1.4117
   72MOL    H7918681   7.639   1.306   1.623 -0.1599  0.4323 -0.1653
   72MOL    C8018682   7.554   1.272   1.815 -0.0049  0.0814 -0.5208
   72MOL    N8118683   7.555   1.131   1.775  0.0909  0.5456 -0.0148
   72MOL    C8218684   7.464   1.060   1.706 -0.0198  0.8073 -0.0034
   72MOL    O8318685   7.384   1.120   1.635  0.2003  0.1752 -0.2123
   72MOL    C8418686   7.479   0.913   1.702  0.4814  0.1362  0.5526
   72MOL    C8518687   7.432   1.316   1.893  0.0366 -0.1458 -0.2609
   72MOL    H8618688   7.635   1.268   1.888 -1.3783 -0.7388  0.9697
   72MOL    H8718689   7.637   1.080   1.802 -0.2963  0.6621  1.4065
   72MOL    H8818690   7.395   0.856   1.664 -0.2556  1.8341 -0.4555
   72MOL    H8918691   7.566   0.895   1.638 -0.0350  0.6868 -0.3255
   72MOL    H9018692   7.502   0.868   1.798 -0.2508 -0.8660  0.2577
   72MOL    H9118693   7.427   1.425   1.901  0.8767  0.0099 -1.7288
   72MOL    H9218694   7.336   1.275   1.862 -1.0565  1.5414  0.7687
   72MOL    C9318695   7.432   1.287   2.048 -0.1890 -0.3458  0.1511
   72MOL    N9418696   7.542   1.367   2.113  0.2815 -0.5961 -0.2736
   72MOL    C9518697   7.520   1.488   2.170 -0.7437  0.0793  0.6213
   72MOL    O9618698   7.407   1.543   2.174 -0.1721 -0.5824 -0.4089
   72MOL    C9718699   7.638   1.561   2.225 -0.1346  0.0550  0.0411
   72MOL    C9818700   7.448   1.131   2.080  0.3822  1.0315  0.2167
   72MOL    H9918701   7.331   1.315   2.080  0.2927  0.1570  1.2613
   72MOL   H10018702   7.635   1.327   2.123  0.7026  0.6948  1.1877
   72MOL   H10118703   7.617   1.650   2.285  1.5399  2.1587 -2.3818
   72MOL   H10218704   7.681   1.489   2.295 -0.0395  1.2060  1.1781
   72MOL   H10318705   7.714   1.579   2.149 -1.9100 -2.1312 -2.3396
   72MOL   H10418706   7.369   1.083   2.022  0.7048 -0.2164  0.8152
   72MOL   H10518707   7.544   1.100   2.040  0.5842  0.3368  1.2323
   72MOL   C10618708   7.439   1.087   2.236 -0.2910 -0.9930  0.6715
   72MOL   N10718709   7.481   0.953   2.253 -0.4007 -0.7809  0.3892
   72MOL   C10818710   7.449   0.844   2.182 -0.2552  0.3274 -0.4902
   72MOL   O10918711   7.361   0.844   2.094 -0.6934  0.0711 -0.4557
   72MOL   C11018712   7.515   0.709   2.205  0.0345  0.3126 -1.0184
   72MOL   C11118713   7.305   1.116   2.296  0.3987 -0.3914  0.6484
   72MOL   H11218714   7.514   1.157   2.274 -0.5496 -0.4774  0.2455
   72MOL   H11318715   7.558   0.944   2.318 -0.2352  0.0730  0.3130
   72MOL   H11418716   7.552   0.675   2.302 -2.3119 -1.0354 -0.5407
   72MOL   H11518717   7.451   0.640   2.150  1.0240 -0.6173 -1.0213
   72MOL   H11618718   7.602   0.708   2.141  0.9898  0.4017  0.2565
   72MOL   H11718719   7.274   1.214   2.259  1.0524  0.2093  1.6894
   72MOL   H11818720   7.232   1.049   2.249  1.3287 -1.0235  0.1020
   72MOL   C11918721   7.292   1.111   2.452  0.2200 -1.0753  1.0014
   72MOL   N12018722   7.416   1.169   2.512  0.2311 -0.9056 -0.0068
   72MOL   C12118723   7.437   1.289   2.574 -0.0522 -0.0433  0.1476
   72MOL   O12218724   7.346   1.372   2.589  0.3612  0.0685 -0.1444
   72MOL   C12318725   7.577   1.314   2.638  0.5177 -0.4370 -0.0100
   72MOL   C12418726   7.262   0.975   2.512 -0.6046  0.6134  1.0652
   72MOL   H12518727   7.211   1.183   2.465  2.3024  1.3173  1.2100
   72MOL   H12618728   7.497   1.109   2.510  1.0513  0.1763  0.0688
   72MOL   H12718729   7.566   1.310   2.746  3.2102  2.4607  0.4255
   72MOL   H12818730   7.649   1.235   2.614  2.0084  0.5063  1.2870
   72MOL   H12918731   7.629   1.406   2.611 -0.9588  0.5398  0.4204
   72MOL   H13018732   7.175   0.940   2.457 -0.3164 -0.2804  1.1661
   72MOL   H13118733   7.346   0.907   2.498 -0.9998  0.4077 -0.3569
   72MOL   C13218734   7.230   0.992   2.659  0.0298 -0.0540  0.4381
   72MOL   N13318735   7.343   0.961   2.752  0.0705 -0.3562 -0.5079
   72MOL   C13418736   7.400   0.847   2.785  0.2664 -0.3756 -0.0007
   72MOL   O13518737   7.365   0.749   2.730  0.0221  0.1611 -0.1922
   72MOL   C13618738   7.491   0.832   2.910 -0.9248  0.6670 -0.0609
   72MOL   C13718739   7.094   0.940   2.707  0.1104 -0.4230 -0.2871
   72MOL   H13818740   7.221   1.099   2.677 -0.3363  0.1073 -0.6420
   72MOL   H13918741   7.383   1.039   2.803 -0.1307 -0.1447 -0.6769
   72MOL   H14018742   7.471   0.750   2.978  0.4986 -1.3602 -2.0366
   72MOL   H14118743   7.593   0.833   2.872 -1.7857  1.7967 -2.5296
   72MOL   H14218744   7.496   0.924   2.968  0.0204  1.5936 -1.5584
   72MOL   H14318745   7.025   0.962   2.626  1.4208  0.4021 -1.2069
   72MOL   H14418746   7.098   0.832   2.702 -1.2092 -0.5243  0.8015
   72MOL   C14518747   7.034   0.983   2.848  0.6882  0.1317 -0.8866
   72MOL   N14618748   6.920   0.904   2.876 -0.3365  0.0663  0.6511
   72MOL   C14718749   6.867   0.868   2.993 -0.1485 -0.2906 -0.3740
   72MOL   O14818750   6.915   0.899   3.097 -0.0792 -0.0422  0.3287
   72MOL   C14918751   6.752   0.774   2.992  0.4977  0.5992 -0.8811
   72MOL   C15018752   6.978   1.124   2.864  0.0177 -0.0766  0.6294
   72MOL   H15118753   7.094   0.951   2.933  1.3745 -0.3397 -1.5495
   72MOL   H15218754   6.870   0.862   2.799  1.1936  0.5342 -0.6257
   72MOL   H15318755   6.694   0.784   2.900  0.0168 -0.9233 -0.7614
   72MOL   H15418756   6.799   0.676   3.002 -1.7501 -0.4260 -0.0760
   72MOL   H15518757   6.684   0.785   3.076  1.1587 -1.0464 -0.1222
   72MOL   H15618758   6.907   1.132   2.781 -0.7966 -4.4212  0.7962
   72MOL   H15718759   6.919   1.125   2.955 -0.0020  1.3100  0.6103
   72MOL   C15818760   7.071   1.248   2.854 -0.0945 -0.1085 -0.0413
   72MOL   N15918761   7.156   1.256   2.971 -0.1435  0.1445 -0.0631
   72MOL   C16018762   7.290   1.237   2.966  0.2095 -0.2645  0.5183
   72MOL   O16118763   7.352   1.207   2.867  0.0294 -0.1558 -0.1297
   72MOL   C16218764   7.368   1.231   3.096 -0.1191  0.1389 -0.0971
   72MOL   C16318765   6.981   1.374   2.856  0.3926 -0.4062  0.1759
   72MOL   H16418766   7.129   1.245   2.762 -0.0755  4.4447 -0.2520
   72MOL   H16518767   7.110   1.286   3.055  2.4707  3.7964  0.2155
   72MOL   H16618768   7.472   1.260   3.087 -0.3061  1.8047  2.5545
   72MOL   H16718769   7.322   1.301   3.166 -0.0533 -1.6289  1.7617
   72MOL   H16818770   7.369   1.127   3.129 -0.9671  0.0789 -0.2372
   72MOL   H16918771   6.901   1.359   2.783  1.9028 -0.9339 -1.4284
   72MOL   H17018772   6.925   1.380   2.949 -3.4995 -0.3194 -2.0189
   72MOL   C17118773   7.040   1.508   2.816  0.3486  0.3245  0.1887
   72MOL   N17218774   7.092   1.489   2.676  0.4525 -0.4591 -0.0478
   72MOL   C17318775   7.053   1.559   2.569 -0.1687 -0.5327  0.6565
   72MOL   O17418776   6.969   1.648   2.577  0.4347  0.0401  0.9708
   72MOL   C17518777   7.119   1.533   2.433 -0.3648  0.2568  0.4073
   72MOL   C17618778   7.148   1.577   2.906 -1.0979  0.7965  0.2823
   72MOL   H17718779   6.951   1.572   2.814  0.0156 -0.1329  0.3962
   72MOL   H17818780   7.158   1.414   2.660 -0.4562 -0.7381 -2.7991
   72MOL   H17918781   7.218   1.576   2.423  0.0032 -0.8290 -0.7377
   72MOL   H18018782   7.124   1.427   2.410 -1.9775  0.0790  0.8010
   72MOL   H18118783   7.053   1.575   2.356  1.1306  0.0192 -1.0183
   72MOL   H18218784   7.114   1.560   3.008 -2.8894  1.9762 -0.1144
   72MOL   H18318785   7.241   1.519   2.905 -2.6205 -1.7333  0.5709
   72MOL   C18418786   7.161   1.720   2.866  0.3245 -1.0700  0.3915
   72MOL   N18518787   7.300   1.755   2.858 -0.9212 -0.5280  0.0349
   72MOL   C18618788   7.359   1.831   2.770 -0.1574 -0.2289  0.4307
   72MOL   O18718789   7.302   1.889   2.681  0.0612 -0.4019 -0.0875
   72MOL   C18818790   7.508   1.858   2.799 -0.1554 -0.3134  0.3405
   72MOL   C18918791   7.081   1.811   2.970 -0.2758  0.2060 -0.2698
   72MOL   H19018792   7.110   1.741   2.772  0.4607  1.9938  0.9645
   72MOL   H19118793   7.353   1.715   2.934  1.2680  0.6003 -0.8549
   72MOL   H19218794   7.577   1.779   2.768 -0.8215 -0.0957 -1.8390
   72MOL   H19318795   7.537   1.940   2.732  0.7886  0.4067  1.5987
   72MOL   H19418796   7.516   1.893   2.902 -3.0646  2.0759 -0.1867
   72MOL   H19518797   6.978   1.775   2.972 -0.2105  0.0156 -0.3250
   72MOL   H19618798   7.130   1.802   3.067  1.0437 -0.0378 -0.9530
   72MOL   C19718799   7.069   1.961   2.921 -0.3386 -0.1164 -0.6420
   72MOL   N19818800   7.034   2.052   3.038 -0.7996 -0.3277 -0.2279
   72MOL   C19918801   7.119   2.122   3.113 -0.2540  0.6280  0.0447
   72MOL   O20018802   7.078   2.185   3.210 -0.0590  0.3810 -0.0691
   72MOL   C20118803   7.264   2.117   3.074  0.0522 -0.0715 -0.0849
   72MOL   C20218804   6.970   1.982   2.805  0.1265 -0.5839  0.6191
   72MOL   H20318805   7.159   1.997   2.870 -1.1326  1.8697 -0.6990
   72MOL   H20418806   6.935   2.065   3.053 -0.3106  1.9261  1.2447
   72MOL   H20518807   7.271   2.199   3.003 -0.8528  0.4719  0.4382
   72MOL   H20618808   7.326   2.153   3.156  0.3138  1.3114 -0.8799
   72MOL   H20718809   7.303   2.023   3.036  0.3380  0.0740 -0.1494
   72MOL   H20818810   7.001   1.925   2.717 -1.6869 -0.2793 -0.2396
   72MOL   H20918811   6.872   1.940   2.830  0.5102 -0.8037  1.7670
   72MOL   C21018812   6.946   2.130   2.779 -0.7474  1.0380  0.4900
   72MOL   N21118813   6.806   2.168   2.807  0.1040 -0.3922  0.3103
   72MOL   C21218814   6.777   2.287   2.863 -0.1728  0.0382 -0.2875
   72MOL   O21318815   6.855   2.354   2.929 -0.0265 -0.2904  0.3793
   72MOL   C21418816   6.646   2.349   2.823 -0.3643  0.0713 -0.2704
   72MOL   C21518817   6.975   2.180   2.633 -0.0829 -0.4818 -0.0008
   72MOL   H21618818   7.004   2.199   2.841  1.5759  1.1258 -1.7028
   72MOL   H21718819   6.732   2.108   2.773 -0.1459  0.7946 -1.3076
   72MOL   H21818820   6.653   2.417   2.739 -1.4897  0.2866 -0.1979
   72MOL   H21918821   6.572   2.274   2.796  0.3886 -1.0117  0.6236
   72MOL   H22018822   6.607   2.398   2.912  0.0124 -0.7584  0.3667
   72MOL   H22118823   6.913   2.123   2.564  0.0848 -0.3796 -0.2361
   72MOL   H22218824   6.932   2.279   2.629 -0.7271 -0.7378  0.5404
   72MOL   C22318825   7.119   2.190   2.577 -0.4812 -0.9168  0.4606
   72MOL   N22418826   7.156   2.057   2.530  0.3331  0.7338  0.2347
   72MOL   C22518827   7.136   2.016   2.402  0.1474 -0.1288 -0.1070
   72MOL   O22618828   7.093   2.093   2.312 -0.2469  0.0631 -0.4752
   72MOL   C22718829   7.166   1.868   2.365  0.3595  1.1381 -0.0824
   72MOL   C22818830   7.224   2.237   2.674 -0.2507 -0.1641  0.3796
   72MOL   H22918831   7.121   2.261   2.494  0.4824 -0.4332  0.8948
   72MOL   H23018832   7.195   1.986   2.590 -0.0741  0.0653 -0.2824
   72MOL   H23118833   7.234   1.815   2.432  0.2081  1.1227  0.0612
   72MOL   H23218834   7.071   1.814   2.359  0.7043  0.6714 -1.5497
   72MOL   H23318835   7.202   1.866   2.262 -2.6279 -1.4240 -1.1628
   72MOL   H23418836   7.226   2.177   2.765 -1.6458  0.0427  0.5704
   72MOL   H23518837   7.319   2.216   2.626  0.7510  1.1854  1.7577
   72MOL   C23618838   7.217   2.388   2.716  0.1803  0.1030  0.0236
   72MOL   N23718839   7.231   2.474   2.593 -0.5358  0.1614 -0.0584
   72MOL   C23818840   7.139   2.568   2.553  0.2050 -0.5135  0.9070
   72MOL   O23918841   7.043   2.606   2.621 -0.5657 -0.0161 -0.0291
   72MOL   C24018842   7.169   2.633   2.411  0.1703  0.6565 -0.2701
   72MOL   C24118843   7.329   2.430   2.814 -0.1758  0.3529  0.0898
   72MOL   H24218844   7.117   2.398   2.758 -0.1750 -2.5594 -0.0909
   72MOL   H24318845   7.321   2.466   2.548 -0.1758  0.9884  0.5080
   72MOL   H24418846   7.265   2.685   2.406  0.5355  0.0722  0.4413
   72MOL   H24518847   7.165   2.559   2.331 -3.1530 -0.6004  0.9719
   72MOL   H24618848   7.088   2.704   2.394 -2.5925 -2.2645  0.2322
   72MOL   H24718849   7.384   2.342   2.850 -0.8863 -1.1841 -2.4906
   72MOL   H24818850   7.406   2.488   2.764  1.2370 -1.2884  0.3186
   72MOL   C24918851   7.278   2.518   2.937 -0.1126  0.2029  0.3962
   72MOL   N25018852   7.394   2.578   3.009  0.1302  0.2117  0.2331
   72MOL   C25118853   7.405   2.708   3.036 -0.7983 -0.5969 -0.5912
   72MOL   O25218854   7.316   2.786   3.027 -0.4356  0.4358  0.0318
   72MOL   C25318855   7.550   2.750   3.061  0.0172 -0.1380  0.0486
   72MOL   C25418856   7.196   2.450   3.051 -0.3453 -0.3100 -0.2356
   72MOL   H25518857   7.206   2.591   2.900  0.6802  0.1298 -1.3320
   72MOL   H25618858   7.473   2.517   3.029 -1.4415 -2.4772 -1.4026
   72MOL   H25718859   7.600   2.700   3.144 -0.2569  0.4044  0.5411
   72MOL   H25818860   7.600   2.736   2.965  1.8735 -0.4242  1.0347
   72MOL   H25918861   7.558   2.856   3.084  1.5353 -0.4790  1.1377
   72MOL   H26018862   7.261   2.398   3.121  0.9835  1.6796  0.0356
   72MOL   H26118863   7.139   2.523   3.109 -0.1655  0.3652 -0.9069
   72MOL   H26218864   7.123   2.390   2.996 -1.7909  0.7544  0.4968
   73MOL     C118865   1.465   6.906   1.235  0.9340  0.1356  0.1969
   73MOL     N218866   1.455   7.007   1.130  0.1710  0.3481 -0.4595
   73MOL     C318867   1.442   7.138   1.153  0.1777 -0.5901 -0.1180
   73MOL     O418868   1.417   7.190   1.262 -1.0798  0.1592 -0.6170
   73MOL     C518869   1.450   7.230   1.031  0.3510 -0.4441  0.7282
   73MOL     C618870   1.323   6.846   1.259  0.0646  0.5138 -0.4633
   73MOL     H718871   1.534   6.832   1.194  1.8119 -0.2870  2.3662
   73MOL     H818872   1.462   6.976   1.034 -2.3756  0.5901 -0.7586
   73MOL     H918873   1.554   7.260   1.028  0.2085  0.0055  0.0993
   73MOL    H1018874   1.410   7.181   0.942 -0.3043  0.8308  0.3049
   73MOL    H1118875   1.390   7.321   1.043 -0.5617 -0.8746 -0.4125
   73MOL    H1218876   1.260   6.838   1.171 -0.9032  1.7383  0.0897
   73MOL    H1318877   1.343   6.744   1.291 -0.9533  0.9313  1.6529
   73MOL    H1418878   1.514   6.943   1.325  0.2417 -2.0405  1.4911
   73MOL    C1518879   1.246   6.918   1.373 -0.7718 -0.3365  0.2777
   73MOL    N1618880   1.321   6.897   1.504 -0.3354 -0.5140 -0.1396
   73MOL    C1718881   1.289   6.936   1.630 -0.4656 -0.0693  0.3890
   73MOL    O1818882   1.182   6.992   1.662  0.0783  0.0361 -0.5359
   73MOL    C1918883   1.395   6.914   1.734  0.1665 -0.0609 -0.6132
   73MOL    C2018884   1.096   6.881   1.388  0.5999  0.1268 -0.2149
   73MOL    H2118885   1.256   7.024   1.353  0.6713 -0.6783 -0.8343
   73MOL    H2218886   1.411   6.853   1.495  0.2013  0.3303  1.0097
   73MOL    H2318887   1.367   6.864   1.827  1.3472 -0.5406 -0.5042
   73MOL    H2418888   1.472   6.845   1.699 -0.2512  0.1855 -2.0316
   73MOL    H2518889   1.436   7.008   1.770  1.8592 -0.3174 -1.8047
   73MOL    H2618890   1.069   6.800   1.320  1.1229  0.6614 -1.0751
   73MOL    H2718891   1.060   6.834   1.479  0.3731  3.3835  1.4489
   73MOL    C2818892   1.001   6.991   1.346 -0.3501 -0.1170  0.5613
   73MOL    N2918893   1.032   7.052   1.219  1.2801  0.1684  0.5928
   73MOL    C3018894   0.995   7.009   1.095 -0.1294 -0.5205  0.3867
   73MOL    O3118895   0.915   6.915   1.068 -0.5619 -0.1088  0.2321
   73MOL    C3218896   1.054   7.102   0.994 -0.1191 -0.1681  0.8672
   73MOL    C3318897   0.975   7.101   1.453 -0.0133  0.2385 -1.3912
   73MOL    H3418898   0.906   6.943   1.322  0.1103  0.4383 -2.5404
   73MOL    H3518899   1.086   7.136   1.209  1.6211 -0.3028 -1.9582
   73MOL    H3618900   0.981   7.104   0.913  2.1047  0.4684 -1.1596
   73MOL    H3718901   1.056   7.207   1.022 -1.1769  0.4748 -1.3558
   73MOL    H3818902   1.146   7.076   0.941 -1.5098 -1.2291 -1.1273
   73MOL    H3918903   1.066   7.153   1.482 -1.8626  2.1457  1.2870
   73MOL    H4018904   0.924   7.187   1.411 -0.7091  1.3234  1.5323
   73MOL    C4118905   0.883   7.071   1.576 -0.2994  0.3124  0.6958
   73MOL    N4218906   0.749   7.041   1.521 -0.3105 -0.0079  0.0520
   73MOL    C4318907   0.666   7.106   1.436 -0.0489 -0.5945  0.4482
   73MOL    O4418908   0.681   7.223   1.411 -0.3525  0.1658  0.4229
   73MOL    C4518909   0.545   7.018   1.398  0.0796 -0.0031  0.2415
   73MOL    C4618910   0.881   7.188   1.678 -0.1944 -0.5548 -0.9431
   73MOL    H4718911   0.915   6.978   1.625 -1.0127 -1.1741 -1.5908
   73MOL    H4818912   0.723   6.945   1.538 -0.8705  0.0839 -0.2673
   73MOL    H4918913   0.461   7.052   1.459  0.6558 -0.1104  1.0906
   73MOL    H5018914   0.511   7.050   1.299 -0.3448 -0.0423  0.3750
   73MOL    H5118915   0.561   6.911   1.389  0.4662  0.1303 -0.8166
   73MOL    H5218916   0.952   7.158   1.755  2.1741 -2.7176 -3.8517
   73MOL    H5318917   0.923   7.279   1.632 -0.3675  0.1338  0.2519
   73MOL    C5418918   0.753   7.248   1.742 -0.4281  0.0621  0.7126
   73MOL    N5518919   0.780   7.365   1.826 -0.1258 -0.8713  0.0184
   73MOL    C5618920   0.845   7.368   1.947 -0.1637  0.7194  0.4559
   73MOL    O5718921   0.891   7.269   2.000  0.1172 -0.0581 -0.2182
   73MOL    C5818922   0.849   7.505   2.015 -0.2237  0.1500 -0.4340
   73MOL    C5918923   0.662   7.143   1.812 -0.7852  0.2399  0.5867
   73MOL    H6018924   0.695   7.284   1.658 -1.7424 -0.2737  1.4647
   73MOL    H6118925   0.740   7.452   1.795  2.4340  0.4679  0.3673
   73MOL    H6218926   0.778   7.566   1.959 -0.0121  0.5567 -0.2610
   73MOL    H6318927   0.812   7.493   2.118 -1.6786 -0.0744 -0.9661
   73MOL    H6418928   0.947   7.550   2.004 -0.7446  1.3773 -0.1409
   73MOL    H6518929   0.651   7.061   1.743  1.5283 -1.2406  1.9038
   73MOL    H6618930   0.720   7.099   1.893  0.8339  0.2894 -0.5222
   73MOL    C6718931   0.526   7.194   1.872  0.6176 -0.1306  0.2713
   73MOL    N6818932   0.473   7.098   1.970 -0.2308 -0.1752 -0.3793
   73MOL    C6918933   0.406   7.133   2.084  0.2984 -0.0019  0.3033
   73MOL    O7018934   0.369   7.248   2.105 -0.3432  0.2444 -0.1803
   73MOL    C7118935   0.384   7.022   2.182 -0.2948 -0.6890  0.0888
   73MOL    C7218936   0.410   7.217   1.768 -0.4497  0.1276 -0.8960
   73MOL    H7318937   0.546   7.288   1.924 -2.4608 -0.2011  1.7388
   73MOL    H7418938   0.508   7.004   1.961  3.4752  1.0475  0.2457
   73MOL    H7518939   0.481   6.996   2.226 -0.8922  1.0531  2.5976
   73MOL    H7618940   0.330   7.054   2.271 -0.0256  1.8584 -0.6168
   73MOL    H7718941   0.333   6.948   2.122  0.7366 -1.6020  0.3079
   73MOL    H7818942   0.407   7.132   1.699 -4.7708 -2.5047  2.2447
   73MOL    H7918943   0.311   7.208   1.814  0.8998  0.3378  2.1424
   73MOL    C8018944   0.403   7.339   1.674 -0.8857  0.3220 -0.1067
   73MOL    N8118945   0.377   7.455   1.752  0.2085  0.0581 -0.7019
   73MOL    C8218946   0.467   7.543   1.803  0.0438 -0.5504 -0.1068
   73MOL    O8318947   0.584   7.552   1.768 -0.4073  0.1312  0.2727
   73MOL    C8418948   0.418   7.631   1.915 -0.0252  0.2352  0.1243
   73MOL    C8518949   0.291   7.329   1.571  0.1836  0.3158  0.4640
   73MOL    H8618950   0.500   7.352   1.625 -1.5380  0.7677 -1.2978
   73MOL    H8718951   0.287   7.478   1.792 -0.0137  2.2077 -2.3486
   73MOL    H8818952   0.311   7.646   1.899 -0.0218  0.8273  0.6373
   73MOL    H8918953   0.426   7.585   2.014  0.3711  1.0311  0.4681
   73MOL    H9018954   0.487   7.715   1.927  0.4613 -0.3676  1.8022
   73MOL    H9118955   0.295   7.234   1.517  1.5867  0.9775 -0.6144
   73MOL    H9218956   0.199   7.326   1.630 -0.7119  1.3089 -0.8633
   73MOL    C9318957   0.275   7.439   1.466  0.7704 -0.0645  0.9800
   73MOL    N9418958   0.140   7.491   1.465 -0.0863  0.0850  0.3224
   73MOL    C9518959   0.100   7.615   1.501 -0.0951 -0.2759 -0.3904
   73MOL    O9618960   0.179   7.706   1.512 -0.3844 -0.2609  0.2642
   73MOL    C9718961   7.792   7.633   1.520  0.2987 -0.8775 -0.6828
   73MOL    C9818962   0.333   7.403   1.318 -0.5756  0.2263  0.3100
   73MOL    H9918963   0.337   7.518   1.510  2.3271 -0.5658 -0.2707
   73MOL   H10018964   0.063   7.429   1.449  0.9042 -0.6972 -1.5076
   73MOL   H10118965   7.752   7.532   1.507  0.2373 -0.8735 -0.5212
   73MOL   H10218966   7.765   7.671   1.619 -0.6186  1.0640 -1.6602
   73MOL   H10318967   7.755   7.704   1.446 -0.5890 -0.8492 -0.2152
   73MOL   H10418968   0.339   7.500   1.268  1.1965 -0.5113 -0.9641
   73MOL   H10518969   0.437   7.375   1.306 -1.0468 -1.5463  0.1723
   73MOL   C10618970   0.239   7.317   1.227 -0.9336 -1.2493 -0.3871
   73MOL   N10718971   0.270   7.179   1.236  0.4652  0.1254 -0.0707
   73MOL   C10818972   0.195   7.087   1.311  0.3168 -0.0918  0.5393
   73MOL   O10918973   0.114   7.111   1.399 -0.1837  0.1371 -0.1013
   73MOL   C11018974   0.210   6.942   1.263 -0.3761 -0.2471 -0.2203
   73MOL   C11118975   0.244   7.367   1.074  0.1459 -0.3816  0.0990
   73MOL   H11218976   0.135   7.331   1.258 -0.5185 -1.0078  0.9127
   73MOL   H11318977   0.311   7.150   1.149 -0.2528  0.5066 -0.5428
   73MOL   H11418978   0.114   6.896   1.239 -0.4483 -0.4515  0.4673
   73MOL   H11518979   0.270   6.946   1.172  2.3200  0.7511  1.5392
   73MOL   H11618980   0.254   6.886   1.345  0.3314 -0.1396 -0.5261
   73MOL   H11718981   0.196   7.465   1.073  1.9698  0.5043 -0.6889
   73MOL   H11818982   0.348   7.379   1.044 -0.0583  0.4235 -0.3072
   73MOL   C11918983   0.170   7.277   0.972 -0.1909 -0.1389  0.0530
   73MOL   N12018984   0.262   7.252   0.864  0.1691 -0.3415  0.7271
   73MOL   C12118985   0.357   7.156   0.859 -0.3267  0.1360  0.3755
   73MOL   O12218986   0.379   7.083   0.953  0.0423 -0.2282  0.2771
   73MOL   C12318987   0.436   7.139   0.728 -0.4181 -0.1087 -0.2649
   73MOL   C12418988   0.038   7.327   0.912 -0.0365  0.6322 -0.5764
   73MOL   H12518989   0.152   7.179   1.016 -1.2667 -0.4304 -1.0132
   73MOL   H12618990   0.247   7.315   0.786 -1.5262 -0.1745  1.1624
   73MOL   H12718991   0.529   7.196   0.730 -1.1664  1.2469 -2.3335
   73MOL   H12818992   0.464   7.037   0.705 -1.1315 -0.6284  1.1191
   73MOL   H12918993   0.391   7.192   0.644 -2.5923  0.1315  1.0308
   73MOL   H13018994   0.059   7.417   0.855  3.4564  1.1455  1.4150
   73MOL   H13118995   7.837   7.252   0.845  0.2320  1.2837 -1.4678
   73MOL   C13218996   7.765   7.364   1.012  0.0441  0.0209 -0.0354
   73MOL   N13318997   7.743   7.258   1.101 -0.1147 -0.0370  0.4795
   73MOL   C13418998   7.699   7.282   1.228 -0.6530  1.0817  0.4145
   73MOL   O13518999   7.676   7.394   1.273  0.0231  0.1218 -0.3380
   73MOL   C13619000   7.676   7.157   1.311  0.9665  0.0688 -0.0925
   73MOL   C13719001   7.633   7.398   0.942 -0.2623  0.6450  0.2378
   73MOL   H13819002   7.795   7.456   1.062 -1.6629 -0.3121  1.6339
   73MOL   H13919003   7.757   7.164   1.070  1.0818  1.3101 -3.2354
   73MOL   H14019004   7.699   7.162   1.418 -0.8744 -1.6682  0.4064
   73MOL   H14119005   7.571   7.131   1.300  1.2810 -0.4551 -1.8889
   73MOL   H14219006   7.733   7.075   1.268  0.6690 -0.7015  0.9760
   73MOL   H14319007   7.592   7.315   0.884  1.7855 -0.3712  0.1997
   73MOL   H14419008   7.559   7.428   1.016  0.2283 -0.2032  1.0977
   73MOL   C14519009   7.640   7.519   0.842  0.5084 -0.2671  0.0058
   73MOL   N14619010   7.686   7.637   0.924  0.1121 -0.9294 -0.1983
   73MOL   C14719011   7.729   7.753   0.870 -0.0624 -0.1694 -1.1589
   73MOL   O14819012   7.733   0.018   0.937 -0.2394  0.5575  0.0574
   73MOL   C14919013   7.782   7.743   0.729 -0.3343 -0.4993 -0.3200
   73MOL   C15019014   7.502   7.554   0.777  1.3043  0.1350  0.4455
   73MOL   H15119015   7.711   7.502   0.761 -0.4303 -1.0146 -0.6780
   73MOL   H15219016   7.648   7.657   1.015  0.6509  0.9196 -0.3540
   73MOL   H15319017   7.806   0.005   0.699 -1.8097  1.1835  3.9100
   73MOL   H15419018   0.033   7.683   0.715  0.3314  0.3164  0.3999
   73MOL   H15519019   7.702   7.715   0.660 -0.7613 -0.5648  0.2005
   73MOL   H15619020   7.428   7.556   0.857 -0.8659  0.5531 -1.5289
   73MOL   H15719021   7.506   7.655   0.735  1.7244  0.2223  0.6977
   73MOL   C15819022   7.452   7.454   0.670  0.6347 -0.4238  0.6348
   73MOL   N15919023   7.524   7.480   0.542  0.2228  0.3581  0.3871
   73MOL   C16019024   7.630   7.406   0.498  0.9378  0.1995 -0.0194
   73MOL   O16119025   7.673   7.305   0.551  0.2239  0.0105 -0.2358
   73MOL   C16219026   7.693   7.459   0.374  0.1239  0.0090  0.1486
   73MOL   C16319027   7.305   7.466   0.641  0.2785 -0.0992 -0.4105
   73MOL   H16419028   7.479   7.352   0.700  0.1545 -2.0010 -3.8236
   73MOL   H16519029   7.503   7.560   0.485 -0.3603 -1.6253 -2.2595
   73MOL   H16619030   7.737   7.385   0.307 -0.1233  0.0414 -0.0558
   73MOL   H16719031   7.624   7.522   0.317  0.7108 -2.3020 -3.3473
   73MOL   H16819032   7.779   7.519   0.400  0.1818 -0.8201  1.9354
   73MOL   H16919033   7.281   7.569   0.617 -1.4059 -0.0676  1.2617
   73MOL   H17019034   7.269   7.400   0.562 -1.1989  1.0244 -0.6987
   73MOL   C17119035   7.207   7.424   0.753 -0.1897  0.1781  0.3801
   73MOL   N17219036   7.241   7.304   0.822  0.3988 -0.2081 -0.4866
   73MOL   C17319037   7.275   7.295   0.952  1.3401  0.0197  0.1534
   73MOL   O17419038   7.303   7.389   1.028 -0.0243  0.3442  0.1993
   73MOL   C17519039   7.286   7.158   1.011  0.5407  0.0997 -0.2175
   73MOL   C17619040   7.068   7.419   0.690  0.2578  0.1424 -0.4857
   73MOL   H17719041   7.192   7.508   0.820  1.0447  1.8516 -1.3820
   73MOL   H17819042   7.232   7.215   0.775  1.5142  0.4480 -1.9744
   73MOL   H17919043   7.371   7.144   1.078  1.7158  0.5779 -1.5885
   73MOL   H18019044   7.196   7.128   1.066  1.0983  0.1114  0.7125
   73MOL   H18119045   7.303   7.080   0.937  0.0190  0.6508 -0.9258
   73MOL   H18219046   7.044   7.519   0.652 -0.3182  0.2240  0.0856
   73MOL   H18319047   7.062   7.350   0.606  2.3520  0.3741 -0.8546
   73MOL   C18419048   6.950   7.406   0.791 -0.3786 -0.3243 -0.3209
   73MOL   N18519049   6.941   7.266   0.835 -0.0426 -0.5399 -0.2049
   73MOL   C18619050   6.895   7.222   0.955  0.0292  0.0957 -0.3187
   73MOL   O18719051   6.877   7.294   1.054 -0.4416 -0.6346  0.0164
   73MOL   C18819052   6.865   7.076   0.958  0.2720  1.1930  1.2962
   73MOL   C18919053   6.818   7.455   0.727 -0.0319  0.4426  0.0682
   73MOL   H19019054   6.975   7.463   0.881  0.2434 -1.0882 -0.0011
   73MOL   H19119055   6.975   7.196   0.770 -0.6028 -1.4541  0.4760
   73MOL   H19219056   6.778   7.057   0.896  2.8987 -3.6358 -1.2397
   73MOL   H19319057   6.957   7.025   0.929 -0.6969  0.8095 -1.1437
   73MOL   H19419058   6.837   7.040   1.057 -3.9568 -0.0463 -0.2416
   73MOL   H19519059   6.830   7.550   0.676 -0.5695  1.4392  1.7558
   73MOL   H19619060   6.782   7.389   0.648 -0.8450 -0.7528  1.3932
   73MOL   C19719061   6.698   7.478   0.828 -0.3246  0.1277  0.6794
   73MOL   N19819062   6.578   7.447   0.760 -0.7674  0.2726  0.2006
   73MOL   C19919063   6.528   7.323   0.730 -0.1333 -0.2267  0.3930
   73MOL   O20019064   6.587   7.216   0.753 -0.3146 -0.6395  0.2568
   73MOL   C20119065   6.391   7.316   0.664 -0.5489 -0.0799  0.2880
   73MOL   C20219066   6.700   7.617   0.900  0.6278 -0.6834 -0.4084
   73MOL   H20319067   6.694   7.402   0.906 -3.1799 -0.4390  0.0494
   73MOL   H20419068   6.522   7.524   0.727  1.2359  1.3064 -0.9174
   73MOL   H20519069   6.377   7.234   0.594 -3.0022  1.1754 -0.7426
   73MOL   H20619070   6.318   7.329   0.745 -1.6963  1.6919 -0.9964
   73MOL   H20719071   6.381   7.402   0.599 -0.8218  1.2431  2.0496
   73MOL   H20819072   6.776   7.595   0.975  1.3150  1.3892 -0.4584
   73MOL   H20919073   6.732   7.702   0.839  0.2139 -1.1226 -1.2372
   73MOL   C21019074   6.572   7.669   0.967 -0.1706 -0.7290 -0.2638
   73MOL   N21119075   6.531   7.791   0.895  0.0034 -0.1004 -0.4701
   73MOL   C21219076   6.461   7.786   0.776  0.5938 -0.2042 -1.1043
   73MOL   O21319077   6.408   7.686   0.744  0.0366  1.0491  0.1853
   73MOL   C21419078   6.450   0.070   0.698 -0.0591  0.3097  0.0973
   73MOL   C21519079   6.582   7.701   1.116  0.4505  0.3209 -0.2037
   73MOL   H21619080   6.489   7.600   0.954 -2.3951  1.2185  2.8813
   73MOL   H21719081   6.590   0.031   0.916  0.9178 -0.5447 -1.3547
   73MOL   H21819082   6.405   0.065   0.599  0.2498 -0.1157 -0.0237
   73MOL   H21919083   6.423   0.160   0.753  2.6965  0.6926  0.9020
   73MOL   H22019084   6.554   0.092   0.674  1.1366 -2.2847  2.6172
   73MOL   H22119085   6.679   7.745   1.141 -0.2427  0.0276  3.3414
   73MOL   H22219086   6.504   7.773   1.142  0.4351  1.1396 -2.3783
   73MOL   C22319087   6.553   7.583   1.213 -0.7085 -0.3198 -0.7010
   73MOL   N22419088   6.545   7.633   1.348 -0.2387  0.1242  0.4528
   73MOL   C22519089   6.443   7.692   1.417  0.2558 -0.0284  0.1092
   73MOL   O22619090   6.330   7.712   1.370 -0.6969  0.4318  0.0959
   73MOL   C22719091   6.475   7.723   1.563 -0.2287 -0.1845 -0.3567
   73MOL   C22819092   6.652   7.457   1.207 -0.3883 -0.2320  0.4884
   73MOL   H22919093   6.449   7.553   1.201 -0.3666 -1.7765 -0.0900
   73MOL   H23019094   6.636   7.656   1.385 -0.1503 -0.9750  0.9402
   73MOL   H23119095   6.482   7.633   1.624  1.1972  1.7293  2.3936
   73MOL   H23219096   6.568   7.778   1.580 -1.0107  0.9755  0.2498
   73MOL   H23319097   6.392   7.787   1.593  1.3871  1.3284  0.9835
   73MOL   H23419098   6.662   7.426   1.103 -1.1097 -2.1390  0.9634
   73MOL   H23519099   6.750   7.501   1.225 -1.1612  1.7929 -0.0574
   73MOL   C23619100   6.613   7.338   1.294  0.2151  0.4493  0.2906
   73MOL   N23719101   6.716   7.232   1.291 -0.0704  0.1032  0.8097
   73MOL   C23819102   6.746   7.140   1.386  0.5129 -0.1900 -0.1586
   73MOL   O23919103   6.699   7.133   1.497 -0.3599 -0.0099 -0.8461
   73MOL   C24019104   6.849   7.037   1.335  0.5679 -0.0941 -0.9729
   73MOL   C24119105   6.472   7.279   1.278 -0.5644  0.5093 -0.7530
   73MOL   H24219106   6.616   7.378   1.395 -1.3975 -1.3869  1.1079
   73MOL   H24319107   6.760   7.222   1.201 -0.4954  1.8521  0.3914
   73MOL   H24419108   6.804   6.953   1.283  1.2997 -1.9407  1.2567
   73MOL   H24519109   6.928   7.084   1.276  1.4677 -0.8714 -0.4076
   73MOL   H24619110   6.897   6.995   1.424 -0.5943  0.8272  0.1050
   73MOL   H24719111   6.469   7.179   1.322 -1.3638 -0.5670 -3.2110
   73MOL   H24819112   6.415   7.326   1.359  1.8667  0.0182  1.3400
   73MOL   C24919113   6.422   7.282   1.131 -0.7047 -0.6787 -0.5287
   73MOL   N25019114   6.279   7.272   1.139 -0.2808 -0.4098  0.2406
   73MOL   C25119115   6.193   7.350   1.073 -0.5677  0.7001  0.1114
   73MOL   O25219116   6.223   7.435   0.990 -0.9315  0.8942  0.0204
   73MOL   C25319117   6.052   7.311   1.091 -0.1890 -0.1860 -0.0644
   73MOL   C25419118   6.469   7.160   1.057 -0.0169 -0.0771  0.3535
   73MOL   H25519119   6.451   7.376   1.085  1.3733  0.0345  2.0982
   73MOL   H25619120   6.240   7.209   1.208 -0.7455 -0.6551 -0.2407
   73MOL   H25719121   6.043   7.203   1.078  1.3010 -0.6057  2.1646
   73MOL   H25819122   6.018   7.341   1.190  0.1520  0.3101 -0.0970
   73MOL   H25919123   5.983   7.364   1.025  0.5426 -1.1919 -1.6674
   73MOL   H26019124   6.444   7.070   1.114  1.6561 -1.0354 -0.4092
   73MOL   H26119125   6.418   7.167   0.961 -1.0633  1.0050  0.9639
   73MOL   H26219126   6.576   7.154   1.042 -0.2052  0.9269 -1.5757
   74MOL     C119127   7.252   6.532   0.918 -0.7170  0.6499 -0.0855
   74MOL     N219128   7.262   6.637   1.021 -0.5678 -0.9788  0.0708
   74MOL     C319129   7.229   6.767   1.010  0.1078  0.7607  0.2643
   74MOL     O419130   7.207   6.818   0.903 -0.4066 -0.5053  0.9727
   74MOL     C519131   7.203   6.847   1.138  0.0237 -0.8465 -0.7589
   74MOL     C619132   7.262   6.394   0.994 -0.4200  0.0862 -0.1229
   74MOL     H719133   7.157   6.529   0.865  0.2047  0.5563 -1.7677
   74MOL     H819134   7.266   6.604   1.116  0.6092 -1.7381 -0.2188
   74MOL     H919135   7.180   6.797   1.233  0.3515  0.4030 -0.0192
   74MOL    H1019136   7.297   6.892   1.169  0.4831 -1.2962 -1.4965
   74MOL    H1119137   7.144   6.937   1.123  0.4423 -0.6090 -0.9505
   74MOL    H1219138   7.366   6.389   1.026  0.3616  0.2436 -2.5572
   74MOL    H1319139   7.205   6.395   1.087 -0.9659 -0.7947 -0.4418
   74MOL    H1419140   7.332   6.535   0.845 -0.4558  0.6479  0.1971
   74MOL    C1519141   7.216   6.270   0.913 -0.9632 -0.0706 -0.7092
   74MOL    N1619142   7.074   6.281   0.881  0.8168 -0.6499 -0.2498
   74MOL    C1719143   6.967   6.276   0.960 -0.7400  0.0537  0.0041
   74MOL    O1819144   6.977   6.279   1.078  0.0048 -0.5395  0.4772
   74MOL    C1919145   6.830   6.254   0.895 -0.2858  0.4809 -0.2030
   74MOL    C2019146   7.263   6.141   0.995 -0.1927  0.0419 -0.5481
   74MOL    H2119147   7.273   6.274   0.820 -0.6136  0.0321 -0.4939
   74MOL    H2219148   7.066   6.291   0.781 -1.7496  1.4782  0.1041
   74MOL    H2319149   6.754   6.322   0.934  1.1702  1.2334  1.3753
   74MOL    H2419150   6.852   6.267   0.789  0.4495 -1.4152 -0.3023
   74MOL    H2519151   6.790   6.155   0.916  3.8421 -0.7760  2.2649
   74MOL    H2619152   7.370   6.157   1.004 -0.4796  0.2349  3.3976
   74MOL    H2719153   7.216   6.150   1.093  0.9561 -1.8407  0.1951
   74MOL    C2819154   7.245   6.005   0.918 -0.0947 -0.1605 -0.0910
   74MOL    N2919155   7.284   5.916   1.027 -0.2243  0.2150  0.2597
   74MOL    C3019156   7.207   5.827   1.085  0.1576 -0.2711 -0.4788
   74MOL    O3119157   7.084   5.813   1.072  0.1364  0.1310 -0.2883
   74MOL    C3219158   7.272   5.745   1.183  0.2487  0.5094  0.4992
   74MOL    C3319159   7.338   6.001   0.799 -0.6180 -0.3281  0.4566
   74MOL    H3419160   7.147   5.973   0.883  0.2906 -2.6004  0.9995
   74MOL    H3519161   7.382   5.892   1.031 -0.7969 -1.9917  1.8445
   74MOL    H3619162   7.343   5.669   1.149 -0.2614  0.2200  0.0905
   74MOL    H3719163   7.326   5.805   1.257 -1.5919  2.6068  0.2012
   74MOL    H3819164   7.205   5.685   1.244 -0.8931 -0.7081 -1.9250
   74MOL    H3919165   7.287   6.048   0.715 -0.5627 -0.5126  0.3187
   74MOL    H4019166   7.426   6.063   0.812 -0.6574  0.3328 -2.1046
   74MOL    C4119167   7.392   5.858   0.751 -0.4680  0.2522 -0.1048
   74MOL    N4219168   7.534   5.849   0.737 -0.3696 -0.0372 -0.4478
   74MOL    C4319169   7.619   5.846   0.839 -1.0460  0.7720  0.3398
   74MOL    O4419170   7.586   5.861   0.959  0.0359 -0.4256  0.1918
   74MOL    C4519171   7.763   5.819   0.801 -0.4465  0.7451 -0.1822
   74MOL    C4619172   7.311   5.804   0.633  0.1062  0.0740  0.0785
   74MOL    H4719173   7.383   5.792   0.838  1.5489  0.7997  0.5301
   74MOL    H4819174   7.562   5.830   0.642 -1.0431 -2.1345 -0.2493
   74MOL    H4919175   7.796   5.854   0.703 -1.5643 -1.9379 -1.5649
   74MOL    H5019176   7.829   5.857   0.879 -1.1684  0.0826  0.7681
   74MOL    H5119177   7.771   5.711   0.796  1.5681  0.7975  1.5035
   74MOL    H5219178   7.258   5.885   0.583 -1.5726 -0.9013  0.2084
   74MOL    H5319179   7.379   5.779   0.552  0.1931  0.4932  0.0232
   74MOL    C5419180   7.215   5.677   0.661 -0.1137  0.3718 -0.1442
   74MOL    N5519181   7.291   5.564   0.702 -0.1026  0.5507 -0.1110
   74MOL    C5619182   7.320   5.534   0.830 -0.3572 -0.3652 -0.1174
   74MOL    O5719183   7.260   5.579   0.921  0.2883 -0.7687 -0.2594
   74MOL    C5819184   7.429   5.432   0.860 -0.3033  0.0027 -0.1786
   74MOL    C5919185   7.135   5.640   0.530  0.4341 -0.3184  0.3285
   74MOL    H6019186   7.148   5.701   0.744 -2.1705  0.8412 -1.8892
   74MOL    H6119187   7.346   5.517   0.632 -0.5410  1.6496 -1.1909
   74MOL    H6219188   7.404   5.345   0.920  1.2165 -0.6706 -0.4818
   74MOL    H6319189   7.479   5.413   0.765  2.5161  0.4472  1.1637
   74MOL    H6419190   7.492   5.496   0.921 -0.5074  0.8325 -0.8312
   74MOL    H6519191   7.083   5.722   0.480 -2.7918 -2.1057  0.6482
   74MOL    H6619192   7.202   5.612   0.448  0.1920 -0.5257  0.1993
   74MOL    C6719193   7.036   5.532   0.551  0.0446  0.1911  0.2220
   74MOL    N6819194   7.098   5.404   0.517  0.3580 -0.3248 -0.3768
   74MOL    C6919195   7.097   5.291   0.596  0.4439  0.2273 -0.0191
   74MOL    O7019196   7.063   5.291   0.718  0.2539  0.0016 -0.0899
   74MOL    C7119197   7.148   5.164   0.533 -0.2756  0.4203  0.0533
   74MOL    C7219198   6.899   5.536   0.475 -1.1381  0.7042 -0.2065
   74MOL    H7319199   7.010   5.533   0.657  1.5533  1.8941  0.5849
   74MOL    H7419200   7.127   5.379   0.424 -0.2076 -1.2449 -0.3173
   74MOL    H7519201   7.133   5.085   0.607  0.1506  1.0936  0.8643
   74MOL    H7619202   7.075   5.141   0.455 -0.6195  1.2098  0.1423
   74MOL    H7719203   7.254   5.157   0.511 -0.5239 -1.6514 -0.6113
   74MOL    H7819204   6.929   5.534   0.370 -0.6457 -2.7143 -0.0436
   74MOL    H7919205   6.834   5.452   0.497  1.0703 -0.5145  1.8777
   74MOL    C8019206   6.815   5.660   0.509  0.7006  0.9763  0.7360
   74MOL    N8119207   6.809   5.690   0.648  0.6141  0.0070  0.0090
   74MOL    C8219208   6.882   5.781   0.710  0.4513  0.1692  0.4163
   74MOL    O8319209   6.965   5.854   0.656  0.0784  0.3089 -0.3417
   74MOL    C8419210   6.849   5.810   0.858 -0.0647 -0.3612 -0.2343
   74MOL    C8519211   6.672   5.657   0.448  0.3146 -0.1300  0.4958
   74MOL    H8619212   6.867   5.743   0.462  0.4010  0.9978  0.4503
   74MOL    H8719213   6.743   5.640   0.708 -0.3645  2.2834  0.8810
   74MOL    H8819214   6.875   5.724   0.921 -0.8560  1.0577  2.0614
   74MOL    H8919215   6.897   5.902   0.892 -0.2631 -0.6716  0.9008
   74MOL    H9019216   6.742   5.821   0.871  0.3543  2.9324  0.8724
   74MOL    H9119217   6.688   5.632   0.343  1.1063  1.5227  0.2149
   74MOL    H9219218   6.611   5.573   0.480 -0.6028  0.5874  0.6519
   74MOL    C9319219   6.599   5.787   0.453  0.0238  0.2730  0.3730
   74MOL    N9419220   6.505   5.789   0.564  0.8754 -0.1153  0.2046
   74MOL    C9519221   6.479   5.887   0.650 -0.2351 -0.1167 -0.3597
   74MOL    O9619222   6.532   6.003   0.636  0.2486  0.1399  0.2522
   74MOL    C9719223   6.383   5.851   0.754  0.5119 -0.0101 -0.4028
   74MOL    C9819224   6.511   5.811   0.328  0.2983 -0.2472  0.6509
   74MOL    H9919225   6.680   5.858   0.468  0.5341 -0.6591  2.1173
   74MOL   H10019226   6.445   5.708   0.572  0.6359 -0.0309 -0.6795
   74MOL   H10119227   6.355   5.746   0.763 -2.1120  0.7194  0.4523
   74MOL   H10219228   6.431   5.877   0.848 -0.4009  2.7750 -0.6667
   74MOL   H10319229   6.298   5.918   0.744  0.1663 -0.6853 -2.1448
   74MOL   H10419230   6.576   5.776   0.249  1.3196  1.0511  0.9022
   74MOL   H10519231   6.427   5.741   0.320 -0.3997  0.7243 -0.8400
   74MOL   C10619232   6.456   5.953   0.303 -0.0072 -0.3223  0.2720
   74MOL   N10719233   6.381   5.949   0.184  0.3752 -0.1687 -0.9463
   74MOL   C10819234   6.250   5.928   0.178 -0.7362 -0.3417  1.1493
   74MOL   O10919235   6.192   5.897   0.274  0.0196 -0.2533 -0.2182
   74MOL   C11019236   6.181   5.934   0.045  0.2335  0.7225  0.1339
   74MOL   C11119237   6.558   6.063   0.283 -0.4019 -0.1188  0.0210
   74MOL   H11219238   6.382   5.986   0.376 -1.1699 -1.6511 -0.2886
   74MOL   H11319239   6.444   5.962   0.105  1.4615  0.1130 -0.0466
   74MOL   H11419240   6.218   6.023   7.833 -0.2021  1.2146  0.6694
   74MOL   H11519241   6.212   5.844   7.831 -0.7376  0.4211  0.0738
   74MOL   H11619242   6.075   5.951   0.057 -0.2770 -0.5608 -2.1341
   74MOL   H11719243   6.639   6.055   0.356 -0.5867 -0.0807  0.2302
   74MOL   H11819244   6.601   6.048   0.184 -0.3909 -0.5177  0.0888
   74MOL   C11919245   6.501   6.210   0.285  0.2410  0.5765  0.8280
   74MOL   N12019246   6.603   6.305   0.233  0.2752  0.2876  0.0576
   74MOL   C12119247   6.618   6.350   0.110 -0.2164 -0.6786 -0.5379
   74MOL   O12219248   6.535   6.337   0.018  0.0161  0.2444  0.2273
   74MOL   C12319249   6.732   6.449   0.081 -0.2381  0.1790 -0.3566
   74MOL   C12419250   6.449   6.248   0.421  0.2488 -0.5657  0.2355
   74MOL   H12519251   6.418   6.220   0.215 -1.4759  2.7155  3.0960
   74MOL   H12619252   6.676   6.338   0.294  1.5937 -0.5919 -1.0285
   74MOL   H12719253   6.826   6.404   0.115  0.7501  0.7245 -2.2695
   74MOL   H12819254   6.741   6.491   7.820  0.3010 -2.7660 -1.5911
   74MOL   H12919255   6.714   6.529   0.152 -0.3221  0.0197 -0.1989
   74MOL   H13019256   6.365   6.316   0.406  0.0365 -0.8915 -0.0443
   74MOL   H13119257   6.398   6.170   0.478  1.0374 -1.4962 -0.3211
   74MOL   C13219258   6.550   6.326   0.512 -0.4687 -0.9934 -0.3132
   74MOL   N13319259   6.670   6.241   0.545 -1.0906 -0.0471 -0.1499
   74MOL   C13419260   6.793   6.247   0.501  0.5354  0.1281 -0.8023
   74MOL   O13519261   6.838   6.336   0.431 -0.0617 -0.1589 -0.1383
   74MOL   C13619262   6.876   6.121   0.530 -0.8061  0.0309 -0.2063
   74MOL   C13719263   6.481   6.356   0.652 -0.4752  0.9931  0.3268
   74MOL   H13819264   6.578   6.417   0.459  2.7950 -1.3770  0.6193
   74MOL   H13919265   6.651   6.160   0.602 -0.2798  1.2669  2.0342
   74MOL   H14019266   6.822   6.033   0.495 -2.7123  1.6542 -1.4547
   74MOL   H14119267   6.969   6.115   0.474  0.2133  0.3661  1.4057
   74MOL   H14219268   6.887   6.113   0.638 -1.1068  0.9315 -0.1011
   74MOL   H14319269   6.448   6.264   0.699  0.7264 -0.0568 -0.8285
   74MOL   H14419270   6.552   6.395   0.725  0.6002 -0.1939 -0.0502
   74MOL   C14519271   6.362   6.450   0.634  0.0853 -0.2942  0.4213
   74MOL   N14619272   6.388   6.578   0.557 -0.5620  0.8983  0.1703
   74MOL   C14719273   6.301   6.629   0.463 -0.7458 -0.2955 -0.2351
   74MOL   O14819274   6.189   6.577   0.439 -0.8902  0.0686  0.4094
   74MOL   C14919275   6.334   6.757   0.385  0.6792 -0.0614  0.2106
   74MOL   C15019276   6.294   6.484   0.769 -0.6553  0.2611  0.1244
   74MOL   H15119277   6.280   6.399   0.583  1.5589  0.0953 -2.3825
   74MOL   H15219278   6.477   6.626   0.554 -0.3324  0.4982  0.5375
   74MOL   H15319279   6.255   6.812   0.335 -0.1644 -1.2177  0.2572
   74MOL   H15419280   6.371   6.829   0.458 -1.3588  1.6903 -0.4532
   74MOL   H15519281   6.394   6.728   0.299  1.8444 -1.8625  1.5732
   74MOL   H15619282   6.369   6.521   0.838 -1.4500  0.5984  0.8136
   74MOL   H15719283   6.231   6.571   0.752  0.0237  0.3824 -1.9750
   74MOL   C15819284   6.211   6.370   0.838  0.6305 -0.9591 -0.2443
   74MOL   N15919285   6.092   6.344   0.762  0.8725 -0.0672 -0.2783
   74MOL   C16019286   6.034   6.220   0.735 -0.4360 -0.0775  0.1884
   74MOL   O16119287   6.098   6.115   0.762  0.0281  0.2317  0.2464
   74MOL   C16219288   5.888   6.223   0.689 -0.8475 -0.6002  0.1351
   74MOL   C16319289   6.171   6.414   0.986 -0.0310 -0.5432 -0.9433
   74MOL   H16419290   6.275   6.283   0.829  0.4563 -1.0247 -0.8828
   74MOL   H16519291   6.018   6.409   0.740 -1.2446 -1.8355  1.4988
   74MOL   H16619292   5.875   6.134   0.627 -0.9508  0.2881 -1.1347
   74MOL   H16719293   5.818   6.228   0.773  1.6088 -0.9249  2.2449
   74MOL   H16819294   5.863   6.309   0.626 -1.6846  0.2253  1.5690
   74MOL   H16919295   6.257   6.463   1.031  1.1288 -1.8436 -1.7262
   74MOL   H17019296   6.106   6.501   0.984 -0.6557 -1.0108 -1.4639
   74MOL   C17119297   6.106   6.305   1.068  0.5733  0.2767 -0.0275
   74MOL   N17219298   6.007   6.348   1.167 -0.0866  0.2511 -0.0039
   74MOL   C17319299   6.002   6.449   1.254 -0.4692  0.2882  0.1171
   74MOL   O17419300   6.093   6.529   1.266 -0.0232  0.0835  0.1139
   74MOL   C17519301   5.875   6.465   1.340 -0.4742 -0.3473  0.0117
   74MOL   C17619302   6.209   6.216   1.138 -0.6827 -0.1537 -0.4218
   74MOL   H17719303   6.059   6.238   0.996  2.3350  0.2372 -1.1618
   74MOL   H17819304   5.919   6.299   1.169  0.5809 -0.9478  0.7431
   74MOL   H17919305   5.778   6.441   1.298  0.0999  1.5165 -2.5670
   74MOL   H18019306   5.883   6.403   1.428 -2.0139  1.6299  1.5968
   74MOL   H18119307   5.880   6.571   1.366 -0.0386 -0.7037  1.4146
   74MOL   H18219308   6.293   6.198   1.071 -1.4022  0.1843 -1.4328
   74MOL   H18319309   6.250   6.274   1.221  0.6453 -1.7706  0.0612
   74MOL   C18419310   6.158   6.071   1.182 -1.3197  0.2489  0.0919
   74MOL   N18519311   6.267   6.001   1.248  0.1877 -0.1587  0.3792
   74MOL   C18619312   6.248   5.899   1.336  0.7853 -0.0769 -0.1347
   74MOL   O18719313   6.139   5.862   1.379 -0.4764 -0.2602  0.1689
   74MOL   C18819314   6.364   5.810   1.371 -0.0017  0.6366  0.0800
   74MOL   C18919315   6.118   5.982   1.065 -0.3581 -0.4885  0.0178
   74MOL   H19019316   6.084   6.075   1.262  0.0331 -1.9834  1.4820
   74MOL   H19119317   6.359   6.003   1.206  0.9948 -1.1812  2.0105
   74MOL   H19219318   6.325   5.729   1.432 -0.8964  0.8038 -0.2682
   74MOL   H19319319   6.403   5.764   1.280 -1.8533  0.4186 -0.6122
   74MOL   H19419320   6.443   5.863   1.424  2.2327 -0.7651 -1.7031
   74MOL   H19519321   6.175   6.003   0.974 -0.3119  1.0618  0.3882
   74MOL   H19619322   6.137   5.876   1.078 -0.0258 -0.3777  0.4534
   74MOL   C19719323   5.961   5.986   1.035 -0.2646  0.8293 -0.4375
   74MOL   N19819324   5.887   5.954   1.155  0.5810 -0.2340 -0.8695
   74MOL   C19919325   5.791   6.032   1.204 -0.4197 -0.7150  0.7439
   74MOL   O20019326   5.764   6.139   1.155 -0.1225  0.3667  0.4144
   74MOL   C20119327   5.700   5.974   1.309  1.0473  0.0039  0.3709
   74MOL   C20219328   5.915   5.884   0.932  0.0145  0.5247  0.5008
   74MOL   H20319329   5.936   6.083   0.992  2.9266  2.1833  0.6443
   74MOL   H20419330   5.908   5.866   1.199 -3.0896 -0.2829  0.9309
   74MOL   H20519331   5.744   5.937   1.402  0.4205  1.4999  1.2978
   74MOL   H20619332   5.627   6.053   1.328 -0.9685 -1.4397 -1.2085
   74MOL   H20719333   5.648   5.894   1.256  0.4682  0.6057  0.0249
   74MOL   H20819334   5.955   5.909   0.834  1.1155  0.8683  1.0260
   74MOL   H20919335   5.956   5.785   0.955  0.0454  0.3621 -0.2518
   74MOL   C21019336   5.759   5.862   0.910  0.0586 -0.3595 -0.2683
   74MOL   N21119337   5.736   5.755   0.813  0.0753  1.2002  0.4890
   74MOL   C21219338   5.709   5.631   0.845 -0.4635 -0.2322 -0.6788
   74MOL   O21319339   5.709   5.580   0.957  0.2516 -0.6888  0.1718
   74MOL   C21419340   5.656   5.536   0.728 -0.4494 -0.2129  0.2185
   74MOL   C21519341   5.676   5.992   0.876  0.1201  0.3785 -0.1802
   74MOL   H21619342   5.730   5.826   1.009  0.8313  1.8912  0.8165
   74MOL   H21719343   5.753   5.771   0.714  2.3612  1.7151  0.9243
   74MOL   H21819344   5.723   5.518   0.644 -0.4791 -0.0610  0.1632
   74MOL   H21919345   5.628   5.445   0.782  1.3797 -1.1384 -0.3565
   74MOL   H22019346   5.563   5.575   0.688  1.2251  2.7887 -0.8860
   74MOL   H22119347   5.726   6.084   0.907  1.0223  0.6089 -2.2455
   74MOL   H22219348   5.643   6.011   0.774 -2.5506 -0.9341  0.3922
   74MOL   C22319349   5.538   6.004   0.935  0.1151  0.4568  0.2109
   74MOL   N22419350   5.444   5.913   0.878  0.0231 -0.1042  0.5981
   74MOL   C22519351   5.395   5.801   0.935  0.5997 -0.3505 -0.1677
   74MOL   O22619352   5.385   5.780   1.055 -0.0369  0.4361 -0.1311
   74MOL   C22719353   5.321   5.702   0.840 -0.2161 -0.3584  0.2430
   74MOL   C22819354   5.481   6.143   0.922 -0.2843 -0.2824 -0.0806
   74MOL   H22919355   5.542   5.986   1.042 -0.8053  2.4043  0.5876
   74MOL   H23019356   5.416   5.922   0.781 -0.3313  0.0865  0.7196
   74MOL   H23119357   5.371   5.605   0.845  0.5189  0.0544  0.8816
   74MOL   H23219358   5.217   5.695   0.872  0.5330 -0.3235  2.7628
   74MOL   H23319359   5.328   5.742   0.738 -0.0108 -1.0134 -0.0032
   74MOL   H23419360   5.538   6.203   0.993 -0.2781 -1.0133  0.5293
   74MOL   H23519361   5.512   6.185   0.826 -2.0679 -2.2556 -1.5697
   74MOL   C23619362   5.338   6.175   0.965 -0.0024 -0.4866  0.4051
   74MOL   N23719363   5.329   6.322   0.975  0.2670  0.0448 -0.3887
   74MOL   C23819364   5.308   6.407   0.879  0.4758  0.6132  0.5356
   74MOL   O23919365   5.253   6.368   0.777 -0.4655 -0.3851  0.2512
   74MOL   C24019366   5.368   6.545   0.902 -0.2585  0.0225 -0.2995
   74MOL   C24119367   5.293   6.124   1.104 -0.4146  0.2872  0.1032
   74MOL   H24219368   5.276   6.132   0.887  1.5259 -3.7311  0.8483
   74MOL   H24319369   5.362   6.358   1.064 -0.8633 -0.8740  0.4217
   74MOL   H24419370   5.465   6.542   0.952  0.7293  1.8555 -2.0345
   74MOL   H24519371   5.394   6.586   0.804  2.1939  1.2655  0.8304
   74MOL   H24619372   5.294   6.606   0.954 -0.3318  0.9721 -1.5027
   74MOL   H24719373   5.317   6.020   1.127 -1.0739  0.0815 -0.0997
   74MOL   H24819374   5.341   6.192   1.174  1.5722 -0.3267 -0.6255
   74MOL   C24919375   5.146   6.138   1.145 -0.8521 -1.0020 -0.1512
   74MOL   N25019376   5.145   6.158   1.291 -0.2696  0.1370 -0.5358
   74MOL   C25119377   5.178   6.264   1.358 -0.1749 -0.7956 -0.3625
   74MOL   O25219378   5.214   6.365   1.306  0.5044  0.3578  0.0670
   74MOL   C25319379   5.157   6.267   1.511 -0.4755 -0.1536  0.6500
   74MOL   C25419380   5.049   6.033   1.089 -0.1252  0.0260  0.1773
   74MOL   H25519381   5.115   6.236   1.109  1.2910 -0.3991 -0.4276
   74MOL   H25619382   5.135   6.070   1.341  0.4520  1.2578  1.6626
   74MOL   H25719383   5.064   6.219   1.540 -0.1823 -1.1233  0.0043
   74MOL   H25819384   5.228   6.199   1.558 -2.1179 -4.5744 -2.9407
   74MOL   H25919385   5.155   6.370   1.547 -1.9707  0.3629 -0.8126
   74MOL   H26019386   5.016   6.053   0.987  0.5405 -1.4756 -0.3504
   74MOL   H26119387   5.106   5.940   1.099 -0.3215 -0.0708  0.4121
   74MOL   H26219388   4.957   6.029   1.148  0.3407 -2.6553  0.8013
   75MOL     C119389   2.873   5.584   2.323  0.1998 -0.8149  0.6518
   75MOL     N219390   2.972   5.636   2.416  0.6572 -0.0158 -0.2022
   75MOL     C319391   2.994   5.562   2.530 -0.2794  0.0534  0.1029
   75MOL     O419392   2.934   5.460   2.559 -0.7543  0.5407 -0.2302
   75MOL     C519393   3.106   5.616   2.611 -0.3561 -0.9544  0.4383
   75MOL     C619394   2.933   5.534   2.192  0.1674  0.1095 -0.4622
   75MOL     H719395   2.797   5.517   2.361 -0.3749 -0.5968 -0.0843
   75MOL     H819396   3.036   5.711   2.395  2.2530 -1.3426 -0.1825
   75MOL     H919397   3.196   5.556   2.630  0.8493  0.8400  0.5370
   75MOL    H1019398   3.147   5.705   2.564  1.1139 -0.3889  2.7143
   75MOL    H1119399   3.059   5.647   2.704  0.9973 -0.9874  1.1577
   75MOL    H1219400   2.847   5.530   2.125  0.3293 -0.9725 -0.6187
   75MOL    H1319401   3.004   5.604   2.149  1.1735 -1.4969 -1.4486
   75MOL    H1419402   2.818   5.676   2.302 -0.4766 -1.5062 -0.6982
   75MOL    C1519403   3.008   5.397   2.209  0.1960  0.5842 -0.2942
   75MOL    N1619404   3.071   5.359   2.081  0.4335 -0.6193 -0.1902
   75MOL    C1719405   3.023   5.366   1.955  0.1426  0.4173  0.2901
   75MOL    O1819406   2.909   5.394   1.927  0.4803 -0.3870  0.1914
   75MOL    C1919407   3.108   5.328   1.836 -1.0047  0.1104  0.1214
   75MOL    C2019408   2.923   5.278   2.270 -0.6601  0.6538  0.5068
   75MOL    H2119409   3.087   5.414   2.282  0.2231  2.4148 -0.7129
   75MOL    H2219410   3.169   5.338   2.092  0.4123  0.9107  3.5602
   75MOL    H2319411   3.098   5.220   1.833 -1.2263  0.1419 -0.2522
   75MOL    H2419412   3.066   5.364   1.742  0.3909  1.3705 -0.0372
   75MOL    H2519413   3.206   5.373   1.853 -1.9073  2.3708 -0.4454
   75MOL    H2619414   2.867   5.303   2.360 -2.2360 -2.9131  0.6062
   75MOL    H2719415   2.850   5.252   2.193  0.0240 -1.9805  0.7045
   75MOL    C2819416   3.003   5.153   2.322 -0.1568  0.0747 -0.1205
   75MOL    N2919417   3.120   5.183   2.404  0.4952 -0.6294  0.1988
   75MOL    C3019418   3.245   5.213   2.364  0.6925  0.0597 -0.1458
   75MOL    O3119419   3.277   5.212   2.246  0.5103 -0.1770 -0.4162
   75MOL    C3219420   3.351   5.246   2.469  0.8505 -0.4706 -0.2922
   75MOL    C3319421   3.013   5.036   2.224  0.3389 -0.3880 -0.3427
   75MOL    H3419422   2.942   5.101   2.396 -0.2366  1.0898  0.5305
   75MOL    H3519423   3.094   5.207   2.499  0.4413 -0.7287  0.2095
   75MOL    H3619424   3.350   5.353   2.485 -0.1637 -0.8498  2.3933
   75MOL    H3719425   3.327   5.206   2.568 -0.2093 -0.5050 -0.5636
   75MOL    H3819426   3.449   5.209   2.438  1.7821 -1.5321  3.6267
   75MOL    H3919427   2.911   5.003   2.208  1.1886 -3.2017 -0.1654
   75MOL    H4019428   3.050   5.068   2.126 -0.1109  0.5445 -0.2153
   75MOL    C4119429   3.090   4.913   2.267  0.0576  0.2684 -0.4100
   75MOL    N4219430   3.082   4.817   2.160 -0.1950 -0.4833  0.2481
   75MOL    C4319431   3.180   4.747   2.098  0.2469  0.0895 -0.4836
   75MOL    O4419432   3.290   4.733   2.151 -0.1197  0.4114 -0.1019
   75MOL    C4519433   3.149   4.709   1.958 -0.6415  0.5440  0.2069
   75MOL    C4619434   3.047   4.854   2.408  0.0072  0.0670 -0.7073
   75MOL    H4719435   3.194   4.943   2.272  0.4517 -1.3361  1.3725
   75MOL    H4819436   2.987   4.804   2.129 -0.9822 -0.1875  2.4409
   75MOL    H4919437   3.124   4.797   1.899 -2.4106 -0.5123 -0.6738
   75MOL    H5019438   3.240   4.665   1.919 -1.4984 -1.1166  0.0563
   75MOL    H5119439   3.064   4.641   1.945 -0.5779  0.3359  0.8735
   75MOL    H5219440   3.089   4.917   2.486  0.1362 -1.0863  0.1698
   75MOL    H5319441   2.942   4.861   2.435  0.9438  1.0649  2.8789
   75MOL    C5419442   3.090   4.713   2.445 -0.2508  0.0889  0.0597
   75MOL    N5519443   3.237   4.693   2.429  0.6378  0.1504 -0.3516
   75MOL    C5619444   3.326   4.664   2.525  0.0399 -0.6753  0.3101
   75MOL    O5719445   3.293   4.645   2.647  0.1621  0.6421  0.1064
   75MOL    C5819446   3.470   4.650   2.485 -0.0984 -1.3579 -0.2065
   75MOL    C5919447   3.007   4.592   2.382 -0.6078 -0.4992  0.6956
   75MOL    H6019448   3.075   4.711   2.553  0.0094 -0.7275  0.0806
   75MOL    H6119449   3.268   4.682   2.333 -0.6919 -2.2425 -0.5675
   75MOL    H6219450   3.535   4.734   2.510 -2.0367  0.3176 -0.6520
   75MOL    H6319451   3.516   4.563   2.532  1.1989 -0.7388 -0.3159
   75MOL    H6419452   3.480   4.638   2.378  3.0180  0.0604 -0.1370
   75MOL    H6519453   3.025   4.579   2.276  0.0286 -1.6955  0.9434
   75MOL    H6619454   3.038   4.500   2.431 -0.7871 -1.4090 -0.8920
   75MOL    C6719455   2.865   4.602   2.415  0.4431 -0.0612  0.6103
   75MOL    N6819456   2.835   4.617   2.560 -0.4815  0.3189  0.0633
   75MOL    C6919457   2.753   4.706   2.616  0.0557 -1.1506 -0.6072
   75MOL    O7019458   2.707   4.807   2.557  0.1673  0.2798  0.3589
   75MOL    C7119459   2.713   4.691   2.765  0.3267 -0.0982 -0.2125
   75MOL    C7219460   2.789   4.483   2.359  0.4302 -0.2581  0.4414
   75MOL    H7319461   2.820   4.686   2.363 -1.8558 -0.3628  2.0734
   75MOL    H7419462   2.867   4.544   2.623 -0.9031  0.5820  0.5832
   75MOL    H7519463   2.659   4.778   2.803 -0.2576 -0.8308  0.6397
   75MOL    H7619464   2.639   4.612   2.772  1.2047 -1.0436 -1.4624
   75MOL    H7719465   2.799   4.674   2.830 -0.7981 -2.3595  0.7391
   75MOL    H7819466   2.849   4.396   2.384  2.0181  0.9415  0.9299
   75MOL    H7919467   2.690   4.484   2.406  1.1901 -1.6926  2.1054
   75MOL    C8019468   2.769   4.480   2.204  0.0557  0.5799 -0.2075
   75MOL    N8119469   2.674   4.586   2.161 -0.4155 -0.0457  0.7619
   75MOL    C8219470   2.691   4.694   2.083  0.2808 -0.1478  0.0798
   75MOL    O8319471   2.806   4.720   2.038  0.5615  0.1253  0.2748
   75MOL    C8419472   2.567   4.781   2.048 -0.4896  0.0058  0.0233
   75MOL    C8519473   2.718   4.345   2.148  0.0538  0.3962 -0.0305
   75MOL    H8619474   2.865   4.500   2.158 -0.2239  1.2666 -0.4992
   75MOL    H8719475   2.586   4.581   2.210 -0.2827  1.0361  1.1130
   75MOL    H8819476   2.597   4.872   1.996  0.1970  0.8119  1.7736
   75MOL    H8919477   2.494   4.731   1.985  1.3062  0.7593 -2.7428
   75MOL    H9019478   2.520   4.808   2.143  0.5179 -1.0934  0.8533
   75MOL    H9119479   2.632   4.318   2.209  0.5080  0.3320  0.5805
   75MOL    H9219480   2.674   4.367   2.051  0.8975  2.2708  0.0022
   75MOL    C9319481   2.816   4.226   2.126  0.7148  0.3093  0.6006
   75MOL    N9419482   2.925   4.252   2.033 -0.6850 -0.4456  0.5812
   75MOL    C9519483   3.044   4.297   2.070  0.1672 -0.4305  0.1250
   75MOL    O9619484   3.061   4.320   2.189  0.2393 -0.3817  0.2720
   75MOL    C9719485   3.148   4.337   1.965 -0.1790 -0.6346  0.7315
   75MOL    C9819486   2.737   4.096   2.076 -0.0416 -0.3355 -0.6903
   75MOL    H9919487   2.862   4.203   2.222 -0.3430 -0.9356  0.8156
   75MOL   H10019488   2.906   4.250   1.934  0.5395  0.5934  0.2968
   75MOL   H10119489   3.244   4.358   2.012 -0.7338 -0.0769  1.6379
   75MOL   H10219490   3.177   4.258   1.896 -1.5796  1.2542 -2.0952
   75MOL   H10319491   3.110   4.425   1.914 -1.0620 -2.2259 -1.4241
   75MOL   H10419492   2.692   4.118   1.979  1.0892 -0.5829 -1.2701
   75MOL   H10519493   2.812   4.020   2.060  1.6895  1.3707 -0.8067
   75MOL   C10619494   2.636   4.023   2.166 -0.1372  0.2073 -0.7346
   75MOL   N10719495   2.697   3.922   2.256  0.2084  0.3164  0.0903
   75MOL   C10819496   2.717   3.949   2.384 -0.3435  0.3214 -0.1332
   75MOL   O10919497   2.711   4.059   2.436  0.5005  0.0606  0.7899
   75MOL   C11019498   2.739   3.828   2.475  0.1670  0.6032  0.7391
   75MOL   C11119499   2.530   3.947   2.077  0.3920 -0.3837 -0.0209
   75MOL   H11219500   2.569   4.095   2.213  0.6591 -0.1728  1.0497
   75MOL   H11319501   2.715   3.831   2.216 -0.1060  1.0952 -1.9044
   75MOL   H11419502   2.710   3.735   2.426  2.2932 -1.0525  2.5527
   75MOL   H11519503   2.847   3.822   2.491  0.1944 -0.6746  0.1705
   75MOL   H11619504   2.693   3.823   2.573 -2.0034 -2.4466 -0.3592
   75MOL   H11719505   2.480   4.028   2.023 -2.4022 -0.8685  1.7431
   75MOL   H11819506   2.562   3.875   2.002  0.4371 -0.3537 -0.0309
   75MOL   C11919507   2.428   3.861   2.154  0.2696  0.6439  0.0158
   75MOL   N12019508   2.355   3.783   2.053  0.4358 -0.1427  0.2825
   75MOL   C12119509   2.374   3.651   2.027 -0.3449  0.1391 -0.1494
   75MOL   O12219510   2.460   3.587   2.080 -0.3055 -0.1647 -0.2594
   75MOL   C12319511   2.275   3.586   1.934 -0.1121  0.3425  0.7368
   75MOL   C12419512   2.331   3.937   2.245 -0.2562  0.3948 -1.0594
   75MOL   H12519513   2.485   3.790   2.214 -1.7201 -3.3247 -2.6087
   75MOL   H12619514   2.271   3.824   2.014  1.2377  1.1717 -0.0617
   75MOL   H12719515   2.327   3.604   1.839 -1.7495 -1.7330 -0.5979
   75MOL   H12819516   2.273   3.478   1.951  1.9899  0.5753  2.6031
   75MOL   H12919517   2.175   3.628   1.935 -0.6318 -0.7115 -1.9218
   75MOL   H13019518   2.376   4.010   2.312 -2.8932  2.4905 -1.4590
   75MOL   H13119519   2.269   3.996   2.177 -0.1323  0.3051 -1.2502
   75MOL   C13219520   2.241   3.838   2.322 -0.3467 -0.0120  0.6640
   75MOL   N13319521   2.103   3.862   2.267 -0.0724 -0.7363 -0.0508
   75MOL   C13419522   2.034   3.758   2.213  0.4123 -0.2716  0.3469
   75MOL   O13519523   2.084   3.641   2.201  0.1998 -0.4042 -0.1713
   75MOL   C13619524   1.892   3.778   2.175  0.7636  0.2343  0.7479
   75MOL   C13719525   2.241   3.855   2.474 -0.5506  0.2822  0.2220
   75MOL   H13819526   2.278   3.738   2.298 -0.6359  0.3184 -1.2753
   75MOL   H13919527   2.054   3.946   2.297 -1.0934 -1.7120  1.1013
   75MOL   H14019528   1.888   3.799   2.068 -0.4662  0.9460  0.9179
   75MOL   H14119529   1.831   3.690   2.196  1.8821 -1.0778 -1.2832
   75MOL   H14219530   1.849   3.866   2.223 -1.6788  0.7447 -2.2152
   75MOL   H14319531   2.212   3.759   2.516  1.4522 -0.7488 -0.6862
   75MOL   H14419532   2.344   3.853   2.512  0.2880  0.2283 -1.9551
   75MOL   C14519533   2.163   3.978   2.539  0.2785  0.1170 -0.4215
   75MOL   N14619534   2.223   4.039   2.658 -0.1071 -0.4877  0.5759
   75MOL   C14719535   2.330   4.116   2.659 -0.3676 -0.6871 -0.5218
   75MOL   O14819536   2.397   4.150   2.562 -0.4042  0.1907  0.3996
   75MOL   C14919537   2.374   4.175   2.791 -0.3484 -0.3152  0.0491
   75MOL   C15019538   2.021   3.942   2.566 -0.1083  0.2426 -0.5487
   75MOL   H15119539   2.179   4.049   2.458 -0.5654 -0.7175 -1.3283
   75MOL   H15219540   2.167   4.043   2.743 -0.4112  0.1611  0.3459
   75MOL   H15319541   2.472   4.131   2.811  0.7579  2.3460  0.6640
   75MOL   H15419542   2.378   4.281   2.769 -1.7576  0.0179  1.3036
   75MOL   H15519543   2.314   4.162   2.881 -0.7403  1.1366  0.0134
   75MOL   H15619544   1.990   3.877   2.484 -1.6125 -0.3502  0.4667
   75MOL   H15719545   2.020   3.887   2.659  2.2205  0.7001 -0.2343
   75MOL   C15819546   1.916   4.052   2.558  0.1640  0.0520  0.7452
   75MOL   N15919547   1.941   4.177   2.479  0.8861 -0.4917  0.4619
   75MOL   C16019548   1.959   4.184   2.341  0.0105  0.2302 -0.3926
   75MOL   O16119549   1.937   4.093   2.265 -0.2527  0.2616  0.1373
   75MOL   C16219550   2.010   4.312   2.291 -0.2058  0.0563  0.3020
   75MOL   C16319551   1.863   4.086   2.702  0.0001  0.8055 -0.4555
   75MOL   H16419552   1.838   4.006   2.496  0.8584 -0.1010 -0.0275
   75MOL   H16519553   1.954   4.265   2.529  2.6750 -1.3635  1.6105
   75MOL   H16619554   1.931   4.388   2.289 -0.3390 -0.0739  0.7433
   75MOL   H16719555   2.095   4.342   2.351  2.2184 -4.9004 -0.4386
   75MOL   H16819556   2.043   4.295   2.188 -4.3342 -1.1030 -0.9467
   75MOL   H16919557   1.949   4.119   2.761 -0.6877  1.6491  0.0901
   75MOL   H17019558   1.805   4.176   2.683 -1.0365  0.7375  2.1485
   75MOL   C17119559   1.776   3.983   2.783 -0.0479 -0.1785  0.4441
   75MOL   N17219560   1.657   3.954   2.710  0.5349  0.0121 -0.1016
   75MOL   C17319561   1.631   3.840   2.646 -0.3841  0.0681 -0.5221
   75MOL   O17419562   1.697   3.734   2.661  0.7118  0.0291  0.1478
   75MOL   C17519563   1.527   3.850   2.529 -0.0163  0.0281  0.4021
   75MOL   C17619564   1.737   4.026   2.929  0.0740 -0.5223 -0.3366
   75MOL   H17719565   1.840   3.896   2.797 -0.6096 -0.9760 -1.7431
   75MOL   H17819566   1.596   4.029   2.679  1.6076 -0.0544 -2.4543
   75MOL   H17919567   1.512   3.754   2.478 -2.8431  2.0763 -2.8365
   75MOL   H18019568   1.431   3.881   2.569  0.6535  0.3793  1.7776
   75MOL   H18119569   1.560   3.924   2.457 -0.4898 -1.8809 -1.8271
   75MOL   H18219570   1.674   4.115   2.938  2.4797  1.1817  0.1600
   75MOL   H18319571   1.687   3.944   2.980  1.8375 -0.5391  1.4261
   75MOL   C18419572   1.858   4.053   3.018  0.9524 -0.5534 -0.0104
   75MOL   N18519573   1.936   3.927   3.043 -0.3789 -0.1398 -0.0277
   75MOL   C18619574   2.057   3.912   2.984  0.0210  0.1273  0.7906
   75MOL   O18719575   2.110   4.001   2.912  0.4347 -0.5367 -0.4118
   75MOL   C18819576   2.137   3.786   3.011  0.4823 -0.4847  0.6858
   75MOL   C18919577   1.809   4.100   3.154  0.2255  0.8274 -0.4640
   75MOL   H19019578   1.908   4.144   2.986  0.4744 -0.1733  0.3095
   75MOL   H19119579   1.906   3.856   3.109 -1.2012  0.3268  0.1107
   75MOL   H19219580   2.160   3.779   3.118 -1.3621 -2.7342  0.9874
   75MOL   H19319581   2.075   3.698   2.991 -0.8352  0.9850 -1.8405
   75MOL   H19419582   2.231   3.775   2.956  1.6773 -1.1888  2.8017
   75MOL   H19519583   1.762   4.198   3.142  0.8722  1.0612 -1.1439
   75MOL   H19619584   1.727   4.037   3.187 -0.3849  1.7848 -0.1186
   75MOL   C19719585   1.915   4.120   3.268 -0.6096  0.4300 -0.4480
   75MOL   N19819586   2.001   4.242   3.247  0.0768 -0.1010  0.3178
   75MOL   C19919587   2.129   4.251   3.222 -0.0780 -0.1138 -0.3933
   75MOL   O20019588   2.211   4.160   3.232 -0.1670 -0.6754  0.2767
   75MOL   C20119589   2.173   4.391   3.192 -0.2533 -0.0945  0.0945
   75MOL   C20219590   1.989   3.992   3.329  0.2776  0.3977 -0.1503
   75MOL   H20319591   1.852   4.164   3.345  0.0629 -1.3228  1.1577
   75MOL   H20419592   1.942   4.324   3.238  1.4301  0.6704 -2.1885
   75MOL   H20519593   2.204   4.450   3.278  2.2645 -0.3142 -0.6239
   75MOL   H20619594   2.264   4.389   3.132  0.9166  0.0760  1.8176
   75MOL   H20719595   2.112   4.461   3.136  0.8801  0.2590 -0.7315
   75MOL   H20819596   2.066   3.951   3.265 -1.2308 -1.2507 -0.9598
   75MOL   H20919597   2.053   4.028   3.409  0.2785 -0.7429  0.3849
   75MOL   C21019598   1.907   3.878   3.387  0.6791  0.7129  0.0578
   75MOL   N21119599   1.841   3.921   3.512 -0.1368  0.0247  0.1001
   75MOL   C21219600   1.720   3.974   3.527 -0.2194  0.2692  0.3435
   75MOL   O21319601   1.650   3.998   3.434  0.2686 -0.2400 -0.2170
   75MOL   C21419602   1.675   4.006   3.668  0.6327  0.2568  0.6310
   75MOL   C21519603   1.991   3.747   3.406  0.7090  0.1249 -0.2071
   75MOL   H21619604   1.832   3.840   3.318  0.2250  3.6766 -1.1366
   75MOL   H21719605   1.898   3.911   3.595  1.2931 -1.4863 -1.0421
   75MOL   H21819606   1.686   4.114   3.685  1.2475  0.3310 -0.2354
   75MOL   H21919607   1.568   3.989   3.678  1.0404 -2.1567  1.0043
   75MOL   H22019608   1.732   3.948   3.741 -0.2143  0.0226  1.1104
   75MOL   H22119609   2.021   3.705   3.310 -1.6498  0.5173 -1.1506
   75MOL   H22219610   2.087   3.777   3.449 -0.1245  0.2228  1.6338
   75MOL   C22319611   1.916   3.638   3.482  0.3996 -0.5417 -0.0689
   75MOL   N22419612   1.972   3.640   3.627 -0.8233  0.1268 -0.6701
   75MOL   C22519613   1.896   3.649   3.742  0.1337 -0.5182 -0.0030
   75MOL   O22619614   1.771   3.661   3.739 -0.1183  0.2940  0.4896
   75MOL   C22719615   1.968   3.657   3.871 -0.2933 -0.7511 -0.6450
   75MOL   C22819616   1.940   3.499   3.405  0.3892 -0.3552 -0.1855
   75MOL   H22919617   1.812   3.668   3.476  0.6992  0.2064 -1.7654
   75MOL   H23019618   2.071   3.630   3.640 -0.9924  0.3518  0.8301
   75MOL   H23119619   1.917   3.592   3.943  0.4795 -1.5445 -0.8127
   75MOL   H23219620   2.066   3.615   3.849  0.4394  1.4681 -1.7828
   75MOL   H23319621   1.977   3.759   3.908  1.5626 -1.7041  1.6127
   75MOL   H23419622   2.048   3.488   3.405  0.5719  1.2627  1.0257
   75MOL   H23519623   1.915   3.429   3.485  0.5439  0.6530  0.7611
   75MOL   C23619624   1.870   3.479   3.264  0.2371  0.1882  0.2959
   75MOL   N23719625   1.744   3.548   3.259  0.4198  0.0989 -0.3297
   75MOL   C23819626   1.695   3.636   3.168 -0.2365 -0.3627  0.5237
   75MOL   O23919627   1.753   3.666   3.063 -0.2663 -0.4270  0.1858
   75MOL   C24019628   1.556   3.698   3.192 -0.6768  0.7234  0.1997
   75MOL   C24119629   1.847   3.329   3.249  0.1608 -0.4954 -0.6289
   75MOL   H24219630   1.931   3.530   3.189 -0.3683 -0.6321 -0.7671
   75MOL   H24319631   1.690   3.522   3.340  2.4778 -0.3186  0.9213
   75MOL   H24419632   1.507   3.657   3.280  0.5799 -2.4288 -0.5263
   75MOL   H24519633   1.560   3.806   3.207  2.0213  1.2144 -3.4356
   75MOL   H24619634   1.486   3.696   3.109  2.4403 -1.0026 -2.5170
   75MOL   H24719635   1.783   3.291   3.329  0.7744  0.7019  0.4460
   75MOL   H24819636   1.784   3.307   3.163 -0.5994 -0.8959  0.0146
   75MOL   C24919637   1.971   3.241   3.241  0.0215 -0.2096  0.2656
   75MOL   N25019638   2.008   3.225   3.096  0.0079 -0.2831 -0.1129
   75MOL   C25119639   2.128   3.191   3.045 -0.1653 -0.3267  0.7721
   75MOL   O25219640   2.232   3.192   3.113  0.5396 -0.1104 -0.1380
   75MOL   C25319641   2.131   3.150   2.897  0.0776 -0.1056 -0.4010
   75MOL   C25419642   1.962   3.100   3.306 -0.6535 -0.7390  0.0139
   75MOL   H25519643   2.056   3.294   3.286  1.2082 -0.7141 -1.3346
   75MOL   H25619644   1.933   3.236   3.029  1.4917  1.4299 -1.5634
   75MOL   H25719645   2.143   3.234   2.829 -0.3430  0.7906  0.6223
   75MOL   H25819646   2.216   3.082   2.886 -0.0793 -0.5872  1.2684
   75MOL   H25919647   2.046   3.086   2.875  0.8322 -0.8093 -1.3580
   75MOL   H26019648   1.926   3.111   3.408 -3.3710  0.6956 -1.0677
   75MOL   H26119649   1.900   3.031   3.249 -0.3387 -1.1028  0.1064
   75MOL   H26219650   2.063   3.058   3.305 -0.2227  0.2833 -1.0375
   76MOL     C119651   5.404   1.788   2.681 -0.0544 -0.2396 -0.2000
   76MOL     N219652   5.342   1.658   2.714  0.6871 -0.3433 -0.4686
   76MOL     C319653   5.209   1.650   2.738  0.3768 -0.5435 -0.6969
   76MOL     O419654   5.140   1.749   2.730  0.1516 -0.1577 -0.0524
   76MOL     C519655   5.146   1.518   2.778  0.4544 -0.6582  0.9706
   76MOL     C619656   5.501   1.781   2.565 -0.8342 -0.6137 -0.1579
   76MOL     H719657   5.336   1.872   2.668  0.5898  0.2310 -0.5475
   76MOL     H819658   5.414   1.588   2.725 -1.3853 -2.3121  0.9640
   76MOL     H919659   5.086   1.537   2.866  0.7519 -0.9031  1.2275
   76MOL    H1019660   5.072   1.480   2.708  1.2753 -0.5132  0.0130
   76MOL    H1119661   5.216   1.435   2.792 -0.9230 -2.1316 -0.7317
   76MOL    H1219662   5.586   1.716   2.582 -1.3755 -1.2829 -0.0197
   76MOL    H1319663   5.450   1.738   2.479  2.0082 -0.6815 -1.8833
   76MOL    H1419664   5.463   1.814   2.769  1.3733  0.7483 -1.4290
   76MOL    C1519665   5.566   1.921   2.513 -0.4138  0.0009 -0.3631
   76MOL    N1619666   5.639   1.991   2.621  0.3826 -0.0301 -0.2863
   76MOL    C1719667   5.754   1.949   2.685 -0.0945 -0.0203  0.4030
   76MOL    O1819668   5.828   1.855   2.647 -0.2388 -0.1314  0.5062
   76MOL    C1919669   5.798   2.045   2.799  0.1547  0.4689 -0.0730
   76MOL    C2019670   5.463   2.021   2.454 -0.0397 -0.5861  0.2095
   76MOL    H2119671   5.643   1.899   2.439 -1.4061 -1.7871 -0.9139
   76MOL    H2219672   5.593   2.067   2.670  0.7816  0.2304 -0.3184
   76MOL    H2319673   5.713   2.087   2.853  1.6674  0.5249  2.3672
   76MOL    H2419674   5.852   1.993   2.878  0.0418  0.7624  0.2005
   76MOL    H2519675   5.863   2.125   2.763  1.9902 -0.9944 -0.0840
   76MOL    H2619676   5.389   2.042   2.531 -1.8466  0.9611 -1.8870
   76MOL    H2719677   5.502   2.121   2.438 -2.3734  0.2843 -0.2576
   76MOL    C2819678   5.393   1.982   2.323 -0.3087 -0.8225  0.6617
   76MOL    N2919679   5.484   1.958   2.208 -0.6308  0.0827 -0.0097
   76MOL    C3019680   5.493   1.840   2.139  0.2648 -0.2011  0.2184
   76MOL    O3119681   5.426   1.740   2.170 -0.4479 -0.2441 -0.3684
   76MOL    C3219682   5.596   1.836   2.023  0.3670  0.2678  0.1492
   76MOL    C3319683   5.296   2.089   2.287  0.3070  0.0133 -0.2086
   76MOL    H3419684   5.337   1.891   2.342  0.8321 -1.8206 -0.6368
   76MOL    H3519685   5.540   2.034   2.171 -1.9221 -0.3434 -2.9658
   76MOL    H3619686   5.595   1.739   1.975 -0.8100  0.5745 -0.4594
   76MOL    H3719687   5.569   1.918   1.956 -1.2909 -0.7958 -0.5071
   76MOL    H3819688   5.695   1.848   2.067  1.2930 -1.5660 -1.3884
   76MOL    H3919689   5.226   2.100   2.370 -0.7978  2.3452 -1.4304
   76MOL    H4019690   5.348   2.182   2.266 -0.1997  0.2801 -0.2858
   76MOL    C4119691   5.217   2.069   2.150  0.1603  0.0586 -0.7188
   76MOL    N4219692   5.154   2.194   2.103  0.2679 -0.7174 -0.3766
   76MOL    C4319693   5.057   2.269   2.161  0.3527  0.0364 -0.3110
   76MOL    O4419694   4.998   2.244   2.270 -0.4476  0.2142 -0.5703
   76MOL    C4519695   5.016   2.398   2.095  0.0317 -0.6575  0.4467
   76MOL    C4619696   5.113   1.956   2.164 -0.2670  0.8148 -0.2166
   76MOL    H4719697   5.279   2.025   2.072 -0.8292 -0.0282 -1.4690
   76MOL    H4819698   5.188   2.233   2.016 -2.0711  0.3210 -0.8593
   76MOL    H4919699   4.978   2.370   1.997  0.6522  0.6581 -0.1852
   76MOL    H5019700   4.935   2.440   2.155  0.8310 -0.4374  1.3826
   76MOL    H5119701   5.093   2.474   2.081  0.0024 -0.7454 -0.2043
   76MOL    H5219702   5.162   1.865   2.200  0.7917  0.7750 -1.6862
   76MOL    H5319703   5.029   1.989   2.226  0.2054 -0.3359  1.0634
   76MOL    C5419704   5.042   1.905   2.032 -0.3652 -0.4388 -0.0730
   76MOL    N5519705   5.144   1.851   1.945 -0.0655  0.6248 -0.7302
   76MOL    C5619706   5.164   1.717   1.936 -0.2573  0.4630 -0.0473
   76MOL    O5719707   5.079   1.630   1.961 -0.7782  0.3740  0.0326
   76MOL    C5819708   5.290   1.676   1.857 -0.3292  0.3989 -0.8464
   76MOL    C5919709   4.962   2.018   1.957 -0.2658 -0.4055 -0.2180
   76MOL    H6019710   4.971   1.828   2.061 -0.9003  0.0484 -0.0675
   76MOL    H6119711   5.228   1.905   1.928  1.4691 -0.8094  1.9803
   76MOL    H6219712   5.339   1.585   1.891 -0.0316  0.5820 -0.7835
   76MOL    H6319713   5.259   1.659   1.754  0.3779 -0.6351 -0.8954
   76MOL    H6419714   5.353   1.765   1.857 -1.4613  1.2161 -0.8751
   76MOL    H6519715   4.892   2.065   2.027  1.2029  0.3955  0.7301
   76MOL    H6619716   5.020   2.091   1.902  0.0072 -0.6834 -0.2993
   76MOL    C6719717   4.863   1.961   1.851  0.6898  0.5762 -0.3162
   76MOL    N6819718   4.818   2.066   1.765 -0.5581 -0.3861  0.1345
   76MOL    C6919719   4.884   2.117   1.660 -0.4940 -0.3460 -0.6318
   76MOL    O7019720   4.987   2.064   1.614  0.1258  0.0178  0.0925
   76MOL    C7119721   4.808   2.224   1.581 -0.7769  0.0709 -0.3547
   76MOL    C7219722   4.741   1.890   1.917  0.5042  0.1314  0.2611
   76MOL    H7319723   4.915   1.880   1.799 -1.1023 -0.5311 -0.4024
   76MOL    H7419724   4.725   2.096   1.790  0.3387  3.6200 -1.0537
   76MOL    H7519725   4.722   2.179   1.533 -2.0830  0.3696  1.6605
   76MOL    H7619726   4.777   2.296   1.658  2.1684  1.2665 -0.1963
   76MOL    H7719727   4.878   2.268   1.510  1.5374 -0.8526  1.3004
   76MOL    H7819728   4.773   1.834   2.005  0.8589  0.0229  0.0638
   76MOL    H7919729   4.673   1.958   1.969  1.1406 -0.2001  1.5632
   76MOL    C8019730   4.648   1.814   1.820 -0.0936 -0.8420  0.1194
   76MOL    N8119731   4.520   1.885   1.803  0.4989  0.7269  0.0714
   76MOL    C8219732   4.469   1.966   1.702 -0.0691 -0.0740 -0.0866
   76MOL    O8319733   4.543   2.004   1.612  0.0831  0.4556 -0.0909
   76MOL    C8419734   4.320   2.010   1.707 -0.0694 -0.2130 -0.2386
   76MOL    C8519735   4.648   1.665   1.854 -0.3674  0.3265 -0.3046
   76MOL    H8619736   4.695   1.815   1.722 -0.7558 -0.3496 -0.2029
   76MOL    H8719737   4.456   1.870   1.880  1.2684  0.5953  0.6963
   76MOL    H8819738   4.290   2.082   1.632  0.9579  1.7574  1.1833
   76MOL    H8919739   4.256   1.922   1.709  0.6889 -0.8051 -1.6429
   76MOL    H9019740   4.285   2.044   1.805  2.2958 -0.1584  0.6261
   76MOL    H9119741   4.744   1.632   1.813 -0.5580 -0.8272  0.1650
   76MOL    H9219742   4.666   1.647   1.960 -1.6226  0.9544  0.0267
   76MOL    C9319743   4.533   1.579   1.802  0.2932  0.1630  0.1289
   76MOL    N9419744   4.436   1.548   1.914 -0.4060 -0.5665 -0.7338
   76MOL    C9519745   4.337   1.624   1.950  0.9013 -0.1641  0.3577
   76MOL    O9619746   4.293   1.718   1.885 -0.3719  1.2998 -0.7165
   76MOL    C9719747   4.274   1.599   2.089 -0.2526 -0.5869  0.4490
   76MOL    C9819748   4.582   1.443   1.735 -0.4732 -0.2543 -0.2378
   76MOL    H9919749   4.476   1.639   1.732  0.7378 -1.5800 -1.7519
   76MOL   H10019750   4.458   1.479   1.984 -2.4623 -0.1023  0.4126
   76MOL   H10119751   4.190   1.530   2.078 -1.8999  1.4737 -0.2793
   76MOL   H10219752   4.355   1.576   2.158  1.5632  2.2211 -0.6970
   76MOL   H10319753   4.236   1.694   2.127  1.3048  0.5408 -0.7767
   76MOL   H10419754   4.660   1.464   1.662  0.3981  1.0793  1.0280
   76MOL   H10519755   4.630   1.384   1.813 -0.0636 -0.3217 -0.5357
   76MOL   C10619756   4.469   1.366   1.659 -0.5766 -0.1328  0.7392
   76MOL   N10719757   4.356   1.453   1.609  0.5498  0.1826 -0.5722
   76MOL   C10819758   4.341   1.508   1.489  0.5952 -0.1950 -0.4888
   76MOL   O10919759   4.424   1.489   1.401 -0.0183  0.3357  0.1058
   76MOL   C11019760   4.215   1.593   1.460 -0.3566 -0.1392 -0.1821
   76MOL   C11119761   4.406   1.255   1.749 -0.1691  0.3829  0.4665
   76MOL   H11219762   4.507   1.314   1.572 -1.5303  0.7570 -0.2213
   76MOL   H11319763   4.284   1.476   1.675  0.1016  1.9637 -1.6347
   76MOL   H11419764   4.157   1.580   1.551 -1.0289  0.2601 -0.5484
   76MOL   H11519765   4.243   1.693   1.426 -2.5827  1.0488  1.3540
   76MOL   H11619766   4.161   1.543   1.380 -0.5929  0.6927 -0.5469
   76MOL   H11719767   4.386   1.295   1.848  2.5947  0.0594  1.1895
   76MOL   H11819768   4.308   1.231   1.708  0.0652  1.1370 -0.5613
   76MOL   C11919769   4.503   1.133   1.769 -0.3048 -0.5953  0.6465
   76MOL   N12019770   4.519   1.067   1.636 -0.0094 -0.1058 -0.0905
   76MOL   C12119771   4.629   0.999   1.594 -0.6057 -0.0613 -0.5634
   76MOL   O12219772   4.738   1.004   1.656  0.6038  0.4895 -0.4561
   76MOL   C12319773   4.621   0.908   1.473 -0.3528  0.2084 -0.9241
   76MOL   C12419774   4.445   1.039   1.871  0.0518 -0.6429  0.5670
   76MOL   H12519775   4.602   1.170   1.796  0.2422 -0.3749 -1.5539
   76MOL   H12619776   4.445   1.027   1.580  2.0270 -3.2378 -0.6765
   76MOL   H12719777   4.613   0.956   1.375  1.2404 -1.4641 -1.9287
   76MOL   H12819778   4.713   0.851   1.457  0.3658  1.2412 -0.5454
   76MOL   H12919779   4.530   0.849   1.483 -0.2924  0.2073 -0.4071
   76MOL   H13019780   4.339   1.034   1.844 -0.3701 -0.7630  2.1887
   76MOL   H13119781   4.482   0.938   1.856  0.2286 -0.1785 -2.4439
   76MOL   C13219782   4.452   1.080   2.014  1.0105  0.0306 -0.6517
   76MOL   N13319783   4.580   1.135   2.063  0.0577 -0.4558  0.1442
   76MOL   C13419784   4.619   1.267   2.077 -0.4196  0.2010 -0.0325
   76MOL   O13519785   4.541   1.361   2.076  0.7336  0.1761 -0.7844
   76MOL   C13619786   4.768   1.293   2.090 -0.1445  0.2190  0.2133
   76MOL   C13719787   4.401   0.962   2.106  0.0830 -0.8107  0.3268
   76MOL   H13819788   4.380   1.161   2.025  1.1405  0.1435 -0.6393
   76MOL   H13919789   4.657   1.070   2.070  2.1330  2.0972  2.0919
   76MOL   H14019790   4.827   1.226   2.029 -1.1364 -1.3385  0.9241
   76MOL   H14119791   4.804   1.394   2.073 -0.8406  0.2707 -0.9640
   76MOL   H14219792   4.803   1.270   2.191  1.7099 -1.8678 -0.8495
   76MOL   H14319793   4.316   0.917   2.056  0.2437 -0.2800 -0.4302
   76MOL   H14419794   4.465   0.874   2.110 -0.2228 -1.2099 -2.6772
   76MOL   C14519795   4.373   1.005   2.258 -0.0984 -0.2773 -0.3196
   76MOL   N14619796   4.479   0.958   2.346  0.4345 -0.1358  0.1998
   76MOL   C14719797   4.495   0.971   2.477 -0.2888  0.1054  0.6311
   76MOL   O14819798   4.433   1.057   2.542  0.8897 -0.5182 -0.2832
   76MOL   C14919799   4.600   0.883   2.543  0.1513  0.5766 -0.2880
   76MOL   C15019800   4.235   0.958   2.312  0.9155  0.1301  0.2194
   76MOL   H15119801   4.385   1.113   2.257 -0.4339 -0.2416 -2.2115
   76MOL   H15219802   4.526   0.874   2.315  1.5776 -0.1471  1.8613
   76MOL   H15319803   4.576   0.778   2.563 -1.1972  1.1448  1.1632
   76MOL   H15419804   4.668   0.866   2.459 -0.0272  0.8736 -0.4948
   76MOL   H15519805   4.645   0.922   2.634  0.8089 -2.5496  0.7962
   76MOL   H15619806   4.233   0.851   2.330 -2.2497  0.5039  2.4851
   76MOL   H15719807   4.218   1.000   2.412  2.5996 -0.5618  0.8302
   76MOL   C15819808   4.110   0.988   2.223  0.3171  0.0805 -0.1020
   76MOL   N15919809   4.107   1.126   2.171 -0.0616  0.0161 -0.1500
   76MOL   C16019810   4.049   1.177   2.064 -0.0290 -0.1659  0.4059
   76MOL   O16119811   4.064   1.299   2.046 -0.4310  0.1844  0.2025
   76MOL   C16219812   3.950   1.099   1.974  0.2064  0.3724 -0.4697
   76MOL   C16319813   3.980   0.948   2.290  0.4512  0.7499  0.2123
   76MOL   H16419814   4.126   0.921   2.138 -2.1228 -1.0047  0.2507
   76MOL   H16519815   4.136   1.204   2.227 -0.8439 -0.8169  1.4493
   76MOL   H16619816   3.852   1.121   2.017 -0.0641 -2.1192  0.3100
   76MOL   H16719817   3.953   1.132   1.871 -0.2590  4.5629  0.7392
   76MOL   H16819818   3.960   0.992   1.990  1.1011 -0.1489 -4.1710
   76MOL   H16919819   3.975   1.004   2.383 -0.8384  0.8646  0.0881
   76MOL   H17019820   3.889   0.981   2.240 -0.1019 -1.6816 -0.4740
   76MOL   C17119821   3.960   0.803   2.337  0.0809  0.3291  0.6698
   76MOL   N17219822   3.985   0.716   2.224  0.2312  0.0903  0.3023
   76MOL   C17319823   4.095   0.640   2.206 -0.4779  0.8693 -0.1639
   76MOL   O17419824   4.175   0.625   2.292 -0.2216  0.6355  0.1997
   76MOL   C17519825   4.115   0.563   2.073 -0.0474  0.5090 -0.2980
   76MOL   C17619826   3.818   0.774   2.399  0.1185 -0.3404  0.6198
   76MOL   H17719827   4.039   0.793   2.412  1.2310 -1.9785 -0.7599
   76MOL   H17819828   3.932   0.735   2.139 -2.2607 -2.8390  1.0899
   76MOL   H17919829   4.117   0.455   2.088  0.6198  0.2899 -1.8054
   76MOL   H18019830   4.041   0.586   1.996 -1.0411  1.0716  0.8094
   76MOL   H18119831   4.211   0.587   2.028 -0.2886 -0.6854 -1.5014
   76MOL   H18219832   3.809   0.853   2.473  2.0932  1.5757 -1.0959
   76MOL   H18319833   3.736   0.784   2.327  0.5745 -0.1451  0.1258
   76MOL   C18419834   3.792   0.636   2.462 -0.0004 -0.4769  0.6675
   76MOL   N18519835   3.905   0.592   2.542  0.1075 -0.7927  0.0976
   76MOL   C18619836   3.892   0.561   2.671 -0.6295 -0.4266 -0.1193
   76MOL   O18719837   3.787   0.543   2.731  1.5766  0.2274 -0.0420
   76MOL   C18819838   4.022   0.556   2.747 -0.8257  0.2262  0.5046
   76MOL   C18919839   3.763   0.523   2.369  0.4407 -0.0530  0.4743
   76MOL   H19019840   3.695   0.645   2.510 -0.9190  1.4765 -1.4309
   76MOL   H19119841   4.000   0.609   2.512 -0.0743  2.4590  1.2295
   76MOL   H19219842   4.086   0.644   2.741 -0.4014 -0.0155  1.4452
   76MOL   H19319843   4.002   0.530   2.851  3.1275 -0.0074  1.2765
   76MOL   H19419844   4.083   0.475   2.708  0.7122  1.9550 -0.7390
   76MOL   H19519845   3.830   0.527   2.283 -1.1533  0.0705 -0.7899
   76MOL   H19619846   3.792   0.428   2.412 -2.2431 -1.1701 -0.0700
   76MOL   C19719847   3.615   0.505   2.323 -0.1085 -0.1474 -0.4576
   76MOL   N19819848   3.548   0.435   2.430  0.4664 -0.4532 -0.4400
   76MOL   C19919849   3.426   0.455   2.491 -0.1996  0.8166  0.7296
   76MOL   O20019850   3.356   0.548   2.459  0.0974 -0.2757  0.4258
   76MOL   C20119851   3.375   0.345   2.583 -0.5427  0.2797 -0.3420
   76MOL   C20219852   3.609   0.427   2.191  0.1727  0.2848  0.0167
   76MOL   H20319853   3.566   0.597   2.292  1.8068  1.0186 -0.1307
   76MOL   H20419854   3.598   0.352   2.459 -0.6147 -1.2511 -0.8593
   76MOL   H20519855   3.280   0.368   2.630 -0.8982 -2.9632  0.6678
   76MOL   H20619856   3.359   0.254   2.525  5.4484 -1.0953 -0.1578
   76MOL   H20719857   3.443   0.317   2.663 -2.2842 -0.7265  0.8261
   76MOL   H20819858   3.652   0.328   2.200 -1.0649 -0.1955  0.8967
   76MOL   H20919859   3.503   0.413   2.169  0.1413  1.0449 -0.3552
   76MOL   C21019860   3.658   0.491   2.063 -0.7503 -0.0243  0.0482
   76MOL   N21119861   3.596   0.622   2.044  0.3295 -0.6612 -0.0678
   76MOL   C21219862   3.666   0.734   2.007  0.8881 -0.0519  0.6119
   76MOL   O21319863   3.789   0.749   2.010  0.1501  0.2007  0.0396
   76MOL   C21419864   3.594   0.858   1.963 -0.0960 -0.5004  0.1935
   76MOL   C21519865   3.626   0.409   1.933  0.4155  0.7468 -0.1407
   76MOL   H21619866   3.766   0.499   2.058 -0.7835 -0.0183 -0.7777
   76MOL   H21719867   3.497   0.631   2.030  0.2607 -0.4057  0.5501
   76MOL   H21819868   3.650   0.896   1.878  1.5251  2.0792  2.3429
   76MOL   H21919869   3.492   0.834   1.933 -0.5965  1.6885  0.0792
   76MOL   H22019870   3.596   0.938   2.037  0.4227  1.4767 -1.8803
   76MOL   H22119871   3.520   0.411   1.907  0.8715  2.2299 -2.0571
   76MOL   H22219872   3.675   0.459   1.849  0.3929 -0.4161 -0.8576
   76MOL   C22319873   3.689   0.264   1.933  0.7670  0.3325 -0.4655
   76MOL   N22419874   3.826   0.262   1.887  0.7005 -0.1518  0.0203
   76MOL   C22519875   3.931   0.270   1.971  0.0547  0.2972  0.4494
   76MOL   O22619876   3.920   0.311   2.089 -0.1944  0.2255  0.3557
   76MOL   C22719877   4.063   0.220   1.910  0.0540 -0.3447 -0.3553
   76MOL   C22819878   3.602   0.162   1.846 -0.4787 -0.5717 -0.8195
   76MOL   H22919879   3.683   0.220   2.033  1.5195 -1.5744 -1.2435
   76MOL   H23019880   3.836   0.256   1.787  1.3550 -0.2716  0.0899
   76MOL   H23119881   4.069   0.114   1.931 -1.7752 -0.6514 -1.3310
   76MOL   H23219882   4.079   0.237   1.804 -1.3258 -1.8497 -0.8218
   76MOL   H23319883   4.147   0.254   1.972  0.9616 -0.9748 -1.2274
   76MOL   H23419884   3.604   0.199   1.743  1.0420 -3.2683 -1.7994
   76MOL   H23519885   3.659   0.070   1.835  0.4911 -0.1387  0.4289
   76MOL   C23619886   3.461   0.115   1.889 -0.6710  0.3578 -0.2317
   76MOL   N23719887   3.463   0.100   2.037  1.1558 -0.1272 -0.0880
   76MOL   C23819888   3.369   0.149   2.119 -0.0942 -0.2408 -0.0883
   76MOL   O23919889   3.276   0.228   2.089 -0.6766  0.1906 -0.0409
   76MOL   C24019890   3.380   0.120   2.270  0.3686 -0.7078 -1.1586
   76MOL   C24119891   3.416   7.818   1.830 -0.1315 -0.1422  1.2500
   76MOL   H24219892   3.385   0.189   1.864 -0.3977  1.0164  0.8771
   76MOL   H24319893   3.544   0.053   2.073  0.6636 -0.4649  0.5777
   76MOL   H24419894   3.474   0.077   2.306 -0.1741  1.1882  2.7996
   76MOL   H24519895   3.354   0.203   2.336 -1.0609 -0.9499 -1.4063
   76MOL   H24619896   3.309   0.040   2.292  0.1733 -0.2501 -0.0926
   76MOL   H24719897   3.463   7.728   1.869 -3.6899 -2.8556 -0.3266
   76MOL   H24819898   3.310   7.805   1.853 -0.8318 -0.3756 -1.8661
   76MOL   C24919899   3.429   7.801   1.670  0.2776 -0.2416  0.4807
   76MOL   N25019900   3.301   7.814   1.599 -0.4472  0.0735 -0.3469
   76MOL   C25119901   3.249   0.093   1.559  0.1243 -0.6757 -0.0872
   76MOL   O25219902   3.313   0.192   1.584  0.4929 -0.1385 -0.4332
   76MOL   C25319903   3.112   0.092   1.482 -0.7131 -0.2617 -0.3698
   76MOL   C25419904   3.478   7.655   1.637 -0.2269  0.1118 -0.6960
   76MOL   H25519905   3.489   0.035   1.616  0.5418 -2.1718 -1.9947
   76MOL   H25619906   3.256   7.734   1.557 -0.1721 -1.0056  1.3962
   76MOL   H25719907   3.082   0.195   1.465  0.0354 -0.5471 -3.8150
   76MOL   H25819908   3.131   0.052   1.382 -0.7158 -0.2704 -0.3670
   76MOL   H25919909   3.033   0.034   1.531  1.2150 -3.1743 -0.5621
   76MOL   H26019910   3.408   7.579   1.673 -0.6731  1.3648  1.1103
   76MOL   H26119911   3.481   7.647   1.528 -0.6199  0.6038 -0.7447
   76MOL   H26219912   3.579   7.644   1.677 -0.8567 -0.0735  0.8908
   77MOL     C119913   6.360   0.065   5.449  0.3415  0.3419 -0.3178
   77MOL     N219914   6.436   0.096   5.334 -0.4471  0.5506 -0.0841
   77MOL     C319915   6.572   0.092   5.329  0.3186  0.4096 -0.3167
   77MOL     O419916   6.644   0.069   5.429  0.0894 -0.0674  0.4796
   77MOL     C519917   6.637   0.128   5.197  0.1853 -0.1736  0.7340
   77MOL     C619918   6.216   0.074   5.419 -0.0253  0.0419 -0.1856
   77MOL     H719919   6.383   7.807   5.490 -1.6368  0.5174  1.2996
   77MOL     H819920   6.392   0.129   5.249  0.2647  0.0323 -0.6657
   77MOL     H919921   6.718   0.200   5.207 -0.3328  0.0682  3.5964
   77MOL    H1019922   6.681   0.037   5.157  0.1494 -0.0104  0.3165
   77MOL    H1119923   6.556   0.172   5.138 -0.4092 -1.9125  0.2279
   77MOL    H1219924   6.166   0.052   5.513 -1.9228 -2.1883 -1.6299
   77MOL    H1319925   6.188   0.177   5.399 -1.9985 -0.6409 -1.0507
   77MOL    H1419926   6.399   0.131   5.527 -0.4591  0.1409  0.2569
   77MOL    C1519927   6.142   7.814   5.331 -0.2906  0.5157  0.2356
   77MOL    N1619928   6.005   0.009   5.299  0.0362 -1.2338 -0.0170
   77MOL    C1719929   5.971   0.092   5.196 -0.7289  0.0183  0.8967
   77MOL    O1819930   6.060   0.135   5.123  0.5578  0.1650  0.0533
   77MOL    C1919931   5.825   0.120   5.161 -0.0962 -0.0546  0.0766
   77MOL    C2019932   6.155   7.673   5.391 -0.3604  0.3533  0.0338
   77MOL    H2119933   6.201   7.806   5.240 -0.1975 -0.1160  0.3483
   77MOL    H2219934   5.933   7.809   5.357  1.4706 -0.1388  2.5834
   77MOL    H2319935   5.813   0.228   5.145 -1.0081 -0.1254  0.2541
   77MOL    H2419936   5.804   0.072   5.065  2.0810  1.2305 -1.0908
   77MOL    H2519937   5.756   0.081   5.236 -1.1636  0.9942 -0.3402
   77MOL    H2619938   6.251   7.648   5.436 -0.7283 -1.4035 -0.1173
   77MOL    H2719939   6.093   7.684   5.480 -1.7834  0.1346 -0.9223
   77MOL    C2819940   6.116   7.549   5.310 -0.3133  0.2002 -0.1863
   77MOL    N2919941   5.974   7.550   5.262  0.2274  1.0660  0.1653
   77MOL    C3019942   5.928   7.519   5.137  0.1791 -0.1107 -0.0930
   77MOL    O3119943   5.998   7.477   5.040  0.2324 -0.1624  0.0357
   77MOL    C3219944   5.775   7.535   5.109 -0.1642 -0.3709 -0.2696
   77MOL    C3319945   6.163   7.414   5.364  0.2383  0.3204 -0.2878
   77MOL    H3419946   6.175   7.572   5.221 -1.2937  0.0284 -0.8944
   77MOL    H3519947   5.900   7.549   5.330 -0.0386  0.7772 -0.1200
   77MOL    H3619948   5.767   7.546   5.001  0.5178 -1.0326 -0.3883
   77MOL    H3719949   5.709   7.457   5.147  2.6962 -1.4703  2.6199
   77MOL    H3819950   5.742   7.627   5.158 -0.0693 -0.7289  0.4644
   77MOL    H3919951   6.176   7.355   5.274  2.3204  0.7779 -0.3095
   77MOL    H4019952   6.264   7.418   5.405 -0.2764  1.9855  0.8574
   77MOL    C4119953   6.070   7.348   5.469 -0.4219 -0.7350 -0.9074
   77MOL    N4219954   6.055   7.436   5.587 -0.0186 -0.2077 -0.0808
   77MOL    C4319955   5.927   7.464   5.635 -0.0214  0.7854 -0.3156
   77MOL    O4419956   5.821   7.409   5.592 -0.2648  0.1984 -0.3806
   77MOL    C4519957   5.919   7.555   5.757 -0.4645 -0.6494  0.2459
   77MOL    C4619958   6.115   7.208   5.516 -0.2783 -0.6342 -0.9493
   77MOL    H4719959   5.972   7.341   5.422 -0.7559 -1.5916 -0.1130
   77MOL    H4819960   6.138   7.479   5.626  1.2364  0.2584 -3.1617
   77MOL    H4919961   5.987   7.639   5.743  0.7347 -1.6097  0.1665
   77MOL    H5019962   5.823   7.604   5.768  0.0136 -0.0993  2.2431
   77MOL    H5119963   5.941   7.508   5.853 -1.2833  1.8472  1.6878
   77MOL    H5219964   6.218   7.194   5.549 -0.1480  0.9867 -0.6227
   77MOL    H5319965   6.052   7.187   5.603 -0.2941  0.9849 -0.5542
   77MOL    C5419966   6.089   7.093   5.419  0.7974 -0.6658  0.2309
   77MOL    N5519967   5.954   7.092   5.366  0.2397 -0.2889  0.5606
   77MOL    C5619968   5.916   7.117   5.240  0.0966  0.4644  0.4760
   77MOL    O5719969   5.994   7.122   5.148  0.4231 -0.4012 -0.1311
   77MOL    C5819970   5.766   7.114   5.217 -0.4377 -0.2138  0.3364
   77MOL    C5919971   6.128   6.956   5.463  0.2195  0.2894  0.0785
   77MOL    H6019972   6.155   7.115   5.335 -1.5713  3.1626 -0.7727
   77MOL    H6119973   5.886   7.073   5.439  1.8437  0.8755  2.4297
   77MOL    H6219974   5.731   7.020   5.259 -0.0604  0.2730  1.8100
   77MOL    H6319975   5.712   7.183   5.283  0.8423 -0.4263  1.6444
   77MOL    H6419976   5.752   7.121   5.110  0.5277 -1.1048  0.1436
   77MOL    H6519977   6.146   6.957   5.571 -1.7790  1.1930  0.4289
   77MOL    H6619978   6.053   6.878   5.452  1.4751 -0.6966 -1.7221
   77MOL    C6719979   6.247   6.887   5.395  0.4978 -0.3098  0.2086
   77MOL    N6819980   6.378   6.952   5.417 -0.7794 -0.3239  0.2271
   77MOL    C6919981   6.437   7.057   5.351  0.5622  0.2044 -0.0334
   77MOL    O7019982   6.392   7.105   5.245 -0.5231  0.8160 -0.4364
   77MOL    C7119983   6.555   7.117   5.423  0.1523 -0.5003  0.5159
   77MOL    C7219984   6.242   6.841   5.250  0.3226  0.1966  0.2305
   77MOL    H7319985   6.249   6.797   5.456  1.4521 -0.6629 -0.3227
   77MOL    H7419986   6.426   6.925   5.503 -0.1290 -1.8050 -0.5788
   77MOL    H7519987   6.529   7.188   5.502 -1.9595  2.6226 -2.8026
   77MOL    H7619988   6.619   7.038   5.461  1.8171  0.7590  0.3871
   77MOL    H7719989   6.621   7.172   5.356  1.0660 -0.9930  0.9984
   77MOL    H7819990   6.244   6.933   5.191 -0.9315  1.5040  2.1780
   77MOL    H7919991   6.337   6.800   5.215  1.2105  0.9876  1.6870
   77MOL    C8019992   6.112   6.748   5.213  0.8302 -0.2267  0.3554
   77MOL    N8119993   6.110   6.630   5.301  0.1341 -0.2336 -0.1582
   77MOL    C8219994   6.027   6.590   5.394  0.3002 -0.0473  0.4738
   77MOL    O8319995   5.940   6.666   5.445  0.2144  0.2191 -1.0583
   77MOL    C8419996   6.057   6.462   5.474  0.1177  0.2498 -0.0324
   77MOL    C8519997   6.120   6.721   5.064  0.6833  0.1643  0.3682
   77MOL    H8619998   6.019   6.803   5.229 -0.1706 -2.4449  2.4513
   77MOL    H8719999   6.191   6.571   5.290 -0.2345 -0.8531  0.4321
   77MOL    H8820000   5.964   6.404   5.476  0.5199 -0.4729 -1.3042
   77MOL    H8920001   6.121   6.401   5.410  1.3875  3.1771 -1.6143
   77MOL    H9020002   6.114   6.466   5.566  1.3924 -0.0131 -0.8006
   77MOL    H9120003   6.204   6.768   5.013  0.8316 -2.7221 -2.2517
   77MOL    H9220004   6.111   6.613   5.049  1.8923  0.3150 -1.5954
   77MOL    C9320005   6.005   6.788   4.989 -0.0533  0.4726 -0.7048
   77MOL    N9420006   5.892   6.696   4.973  0.6683 -0.5569 -0.1233
   77MOL    C9520007   5.763   6.714   5.004  0.2247  0.0595 -0.8167
   77MOL    O9620008   5.721   6.818   5.058 -0.1280 -0.0061  0.3433
   77MOL    C9720009   5.671   6.592   4.976  0.4002  0.3765  0.0416
   77MOL    C9820010   6.040   6.842   4.845  0.2578 -0.2477 -0.6049
   77MOL    H9920011   5.969   6.878   5.039 -0.6193  0.2913 -0.7800
   77MOL   H10020012   5.909   6.609   4.925 -2.6816 -0.7937 -1.0034
   77MOL   H10120013   5.582   6.602   5.038  0.3056  1.1326 -0.2074
   77MOL   H10220014   5.644   6.581   4.871  0.2725 -0.7375  0.1853
   77MOL   H10320015   5.716   6.498   5.006 -1.4316 -0.0116  1.6705
   77MOL   H10420016   6.129   6.902   4.827 -0.1352  0.4960 -0.0612
   77MOL   H10520017   6.079   6.756   4.790  0.1077 -0.8733  0.2526
   77MOL   C10620018   5.933   6.901   4.763 -0.0033 -0.5411  0.5727
   77MOL   N10720019   5.981   6.934   4.636 -0.3128  0.0634 -0.5783
   77MOL   C10820020   5.905   6.926   4.524 -0.7305  0.1223  0.5186
   77MOL   O10920021   5.809   6.850   4.515 -0.0497  0.1272  0.2076
   77MOL   C11020022   5.957   7.009   4.409 -0.3289  0.3972 -0.2896
   77MOL   C11120023   5.852   7.016   4.821  0.2303  0.1376 -0.5057
   77MOL   H11220024   5.859   6.823   4.751 -0.9617  0.0602  2.3708
   77MOL   H11320025   6.074   6.974   4.635 -0.7046  1.1182  1.6369
   77MOL   H11420026   5.876   7.074   4.375  0.4362  1.1997 -0.5905
   77MOL   H11520027   6.035   7.073   4.449 -0.0581 -1.6540  2.5510
   77MOL   H11620028   6.004   6.954   4.328  1.2722  1.0091  0.2104
   77MOL   H11720029   5.746   7.005   4.797  0.3015  0.1439 -0.8284
   77MOL   H11820030   5.842   6.990   4.926 -0.4694  0.7643 -0.4134
   77MOL   C11920031   5.896   7.164   4.792  0.0515 -0.2356 -0.5477
   77MOL   N12020032   6.026   7.198   4.856 -0.2506 -0.3101 -0.0090
   77MOL   C12120033   6.151   7.201   4.806 -0.6342  0.2262 -0.3158
   77MOL   O12220034   6.177   7.158   4.703  0.1854  0.6064 -0.2421
   77MOL   C12320035   6.260   7.265   4.891  0.2724  0.1850  0.0618
   77MOL   C12420036   5.788   7.275   4.835 -0.5269  0.2051  0.0136
   77MOL   H12520037   5.920   7.171   4.685  0.5563  1.3491 -0.3398
   77MOL   H12620038   6.034   7.242   4.946  0.8235 -0.2563 -0.1223
   77MOL   H12720039   6.289   7.190   4.965  0.7358  0.4983  0.2045
   77MOL   H12820040   6.342   7.280   4.821 -0.3745  0.0431 -0.7366
   77MOL   H12920041   6.236   7.364   4.929  1.3928  0.5841 -0.2511
   77MOL   H13020042   5.769   7.264   4.942  1.0300  0.4048  0.3282
   77MOL   H13120043   5.829   7.376   4.825  0.3564 -0.3749 -2.7020
   77MOL   C13220044   5.653   7.272   4.766  0.0388 -0.7153 -0.1665
   77MOL   N13320045   5.659   7.254   4.621  0.5300  0.2085  0.0523
   77MOL   C13420046   5.562   7.196   4.547 -0.4672  0.0055  0.2269
   77MOL   O13520047   5.457   7.149   4.592  1.1437 -0.0309 -0.2400
   77MOL   C13620048   5.590   7.175   4.402  0.4978  0.2169  0.1934
   77MOL   C13720049   5.541   7.360   4.819 -0.5667  0.4145 -0.0240
   77MOL   H13820050   5.620   7.172   4.795  1.5891 -1.5056 -1.0999
   77MOL   H13920051   5.742   7.284   4.572  0.3165 -0.4949 -0.7311
   77MOL   H14020052   5.550   7.254   4.339  0.2391  0.4555  0.6512
   77MOL   H14120053   5.698   7.158   4.404  0.3766 -0.5517  0.5234
   77MOL   H14220054   5.552   7.077   4.373  3.0024 -1.5995  2.6881
   77MOL   H14320055   5.441   7.323   4.797 -2.1176  3.6081  1.2866
   77MOL   H14420056   5.564   7.362   4.925  1.1292 -0.0309 -0.3608
   77MOL   C14520057   5.532   7.506   4.773  0.8552  0.2481  0.3068
   77MOL   N14620058   5.466   7.587   4.877 -0.0276  0.1534 -0.1775
   77MOL   C14720059   5.480   7.719   4.899 -0.1211  0.6585  0.7575
   77MOL   O14820060   5.559   7.785   4.831 -0.0617 -0.4135  0.0468
   77MOL   C14920061   5.409   7.780   5.016  0.3681  0.3445 -0.1179
   77MOL   C15020062   5.462   7.521   4.635 -0.1207  0.5053  0.0081
   77MOL   H15120063   5.630   7.552   4.758  1.1337  0.2358  2.0449
   77MOL   H15220064   5.388   7.547   4.928  1.7558 -3.0978  0.1328
   77MOL   H15320065   5.399   7.726   5.110  0.4119 -3.4672 -2.2281
   77MOL   H15420066   5.465   0.030   5.046  1.8585 -0.8754  0.8292
   77MOL   H15520067   5.311   7.814   4.985 -0.0495 -0.3351  0.4435
   77MOL   H15620068   5.479   7.627   4.615  1.2711  1.0271  3.5599
   77MOL   H15720069   5.527   7.490   4.553 -0.5337  0.2752 -0.2313
   77MOL   C15820070   5.306   7.500   4.618 -0.6458  0.0546 -0.5608
   77MOL   N15920071   5.276   7.386   4.530 -0.7742  0.0300 -0.5867
   77MOL   C16020072   5.286   7.371   4.401  0.7418 -0.7947 -0.2086
   77MOL   O16120073   5.321   7.465   4.336 -0.0166  0.2881 -0.0901
   77MOL   C16220074   5.244   7.245   4.331  0.1477 -0.4102 -0.2846
   77MOL   C16320075   5.220   7.629   4.588  0.1048 -0.4725 -0.5719
   77MOL   H16420076   5.276   7.464   4.716 -0.3430 -0.8059 -0.7778
   77MOL   H16520077   5.232   7.308   4.577 -2.3736  1.4910  0.4168
   77MOL   H16620078   5.242   7.162   4.401 -2.8001  0.6790  0.9638
   77MOL   H16720079   5.156   7.252   4.267 -1.7377  0.7546  2.3486
   77MOL   H16820080   5.334   7.217   4.276  0.2454  3.5771 -2.3208
   77MOL   H16920081   5.236   7.686   4.679  0.0426  0.1884 -0.9774
   77MOL   H17020082   5.273   7.684   4.511  1.8181  0.7184  1.4285
   77MOL   C17120083   5.072   7.613   4.554  0.2203  0.3520 -0.3182
   77MOL   N17220084   5.068   7.593   4.412  0.2353  0.9226  0.0707
   77MOL   C17320085   4.977   7.527   4.335 -0.0077  0.2599 -0.2734
   77MOL   O17420086   4.864   7.489   4.371  0.2550 -0.4691  0.6344
   77MOL   C17520087   5.023   7.503   4.197  0.1705 -0.3821  0.7461
   77MOL   C17620088   4.980   7.735   4.592 -0.1223 -0.2985 -0.4809
   77MOL   H17720089   5.042   7.523   4.607 -0.5309  1.4993  1.2240
   77MOL   H17820090   5.160   7.606   4.371  0.4610  0.6146  0.4809
   77MOL   H17920091   5.129   7.523   4.181  0.4077  0.1991  2.8193
   77MOL   H18020092   4.998   7.400   4.175 -0.4572 -0.5571  2.1905
   77MOL   H18120093   4.969   7.565   4.125  0.8023  0.1583  0.7340
   77MOL   H18220094   5.012   7.815   4.525 -0.9954  0.5453  0.0860
   77MOL   H18320095   4.876   7.724   4.560  0.0366  0.8749 -1.4442
   77MOL   C18420096   4.977   7.774   4.740 -0.8082  0.1643  0.1838
   77MOL   N18520097   4.940   7.658   4.820  0.1392 -0.0380 -0.4857
   77MOL   C18620098   5.022   7.584   4.903 -0.1094 -0.0039  0.4431
   77MOL   O18720099   5.138   7.618   4.922 -0.1914 -0.1715  0.8726
   77MOL   C18820100   4.946   7.481   4.994 -0.4021 -0.5828 -1.0263
   77MOL   C18920101   4.876   0.045   4.764 -0.6448 -0.5777  0.4903
   77MOL   H19020102   5.077   7.815   4.758  0.0619 -0.8978 -2.0737
   77MOL   H19120103   4.841   7.642   4.810  0.0534  0.7497 -0.8680
   77MOL   H19220104   4.862   7.532   5.041 -0.8194 -1.0887 -1.2353
   77MOL   H19320105   4.895   7.409   4.930 -1.4522  0.1461 -1.0213
   77MOL   H19420106   5.010   7.428   5.064 -1.2553 -0.3592 -0.0709
   77MOL   H19520107   4.872   0.113   4.680  1.4583  0.5346  1.2621
   77MOL   H19620108   4.773   0.007   4.765 -1.8976  2.6740 -0.3603
   77MOL   C19720109   4.878   0.111   4.907 -0.2167  0.2557 -0.2546
   77MOL   N19820110   4.769   0.207   4.913  0.1591  0.3050 -0.1521
   77MOL   C19920111   4.682   0.226   5.012  0.3782 -0.1601 -0.1777
   77MOL   O20020112   4.681   0.164   5.119  0.3333 -0.5421 -0.5043
   77MOL   C20120113   4.588   0.341   4.991 -0.6507 -0.0156 -0.4611
   77MOL   C20220114   5.005   0.190   4.938 -0.1713  0.4820 -0.9623
   77MOL   H20320115   4.874   0.037   4.987 -3.6899 -0.4308 -0.9624
   77MOL   H20420116   4.762   0.275   4.839 -1.7805 -0.5266 -0.7754
   77MOL   H20520117   4.649   0.432   4.994  0.1736 -0.3560 -4.0909
   77MOL   H20620118   4.551   0.350   4.889 -1.9764  3.0355  0.2293
   77MOL   H20720119   4.513   0.345   5.070  0.2796  0.0637  0.4292
   77MOL   H20820120   5.092   0.131   4.907 -0.3152 -0.5874  0.6175
   77MOL   H20920121   5.018   0.283   4.882 -0.7336  1.7509  0.9782
   77MOL   C21020122   5.029   0.223   5.095  0.1622  0.4870 -0.1087
   77MOL   N21120123   5.147   0.300   5.106 -0.0800  0.0435  0.3658
   77MOL   C21220124   5.151   0.432   5.099  0.1139 -0.0425 -0.4039
   77MOL   O21320125   5.057   0.503   5.117  0.0673 -0.5583  0.3961
   77MOL   C21420126   5.279   0.505   5.066 -0.7259 -0.7063 -0.8489
   77MOL   C21520127   5.044   0.092   5.177 -0.2306  0.3507 -0.2373
   77MOL   H21620128   4.943   0.275   5.136 -0.0249  1.3538 -1.5829
   77MOL   H21720129   5.229   0.245   5.084  0.5672  0.5993  1.3947
   77MOL   H21820130   5.350   0.431   5.029  0.6768  0.2097 -0.0626
   77MOL   H21920131   5.255   0.586   4.997 -0.4633 -0.6525 -0.8774
   77MOL   H22020132   5.329   0.545   5.155 -0.8822 -1.2083 -0.5335
   77MOL   H22120133   4.956   0.029   5.168 -0.0577  0.2189 -1.0260
   77MOL   H22220134   5.128   0.033   5.139 -0.4409 -1.6624  2.2529
   77MOL   C22320135   5.075   0.118   5.326  0.9051  0.2737 -0.2259
   77MOL   N22420136   5.115   7.831   5.397 -0.2487  0.0084 -0.0892
   77MOL   C22520137   5.226   7.806   5.469 -0.6285  0.0738  0.6797
   77MOL   O22620138   5.336   0.004   5.445  0.2370  0.3079  0.5301
   77MOL   C22720139   5.207   7.702   5.580  0.2974 -0.3403  0.3548
   77MOL   C22820140   4.974   0.189   5.417 -0.3489 -0.0542 -0.6633
   77MOL   H22920141   5.167   0.177   5.331  0.8055  0.6070 -2.0291
   77MOL   H23020142   5.034   7.777   5.421 -2.0665  2.5061 -0.3506
   77MOL   H23120143   5.270   7.738   5.661 -0.0025 -1.1310  0.9320
   77MOL   H23220144   5.108   7.689   5.622  0.7347  2.7734  2.5701
   77MOL   H23320145   5.237   7.603   5.546 -0.6056 -0.1086 -1.1820
   77MOL   H23420146   5.039   0.213   5.500 -0.7856 -0.3956 -0.2235
   77MOL   H23520147   4.940   0.277   5.362 -1.0816 -1.5700 -2.7326
   77MOL   C23620148   4.854   0.104   5.467 -0.0570 -0.1509  0.3519
   77MOL   N23720149   4.788   0.016   5.370 -0.4497 -0.3580 -0.3995
   77MOL   C23820150   4.779   7.721   5.383  0.3271 -0.3278 -0.2919
   77MOL   O23920151   4.827   7.668   5.481 -0.0740 -0.1581  0.3967
   77MOL   C24020152   4.717   7.643   5.268  0.1648  0.9838  0.6034
   77MOL   C24120153   4.751   0.184   5.545 -0.4545  0.5242  0.7413
   77MOL   H24220154   4.890   0.041   5.548 -0.1791  0.2903  0.7522
   77MOL   H24320155   4.764   0.070   5.288 -0.2643 -1.6336 -1.2995
   77MOL   H24420156   4.610   7.645   5.288  0.1874  2.3723  0.6493
   77MOL   H24520157   4.754   7.673   5.170  0.2833 -2.0686 -0.3213
   77MOL   H24620158   4.740   7.538   5.285 -2.6080  0.2932  0.2660
   77MOL   H24720159   4.715   0.256   5.472  1.4659 -1.6136 -2.3934
   77MOL   H24820160   4.673   0.114   5.576  1.2634 -0.4141  3.1351
   77MOL   C24920161   4.803   0.247   5.679  0.6742  0.2362  0.6108
   77MOL   N25020162   4.860   0.143   5.769 -0.6019  0.5235 -0.5483
   77MOL   C25120163   4.936   0.152   5.875 -0.8111  0.2419  0.2163
   77MOL   O25220164   4.973   0.253   5.927  0.1312 -0.6728 -0.3539
   77MOL   C25320165   5.004   0.017   5.913 -0.2876 -0.4443  0.2388
   77MOL   C25420166   4.705   0.328   5.760 -0.5425  0.7065  0.3885
   77MOL   H25520167   4.891   0.309   5.663  2.8583 -2.8615  0.1015
   77MOL   H25620168   4.841   0.046   5.745 -1.2092  0.0545  1.6673
   77MOL   H25720169   4.971   7.777   5.847 -1.0378 -0.0553  0.1343
   77MOL   H25820170   5.112   0.025   5.923 -0.5457  2.0079  1.5783
   77MOL   H25920171   4.976   7.835   6.016  2.1750  0.1968  1.0811
   77MOL   H26020172   4.730   0.334   5.866  3.5151  2.2913 -0.5432
   77MOL   H26120173   4.688   0.424   5.711 -1.5780 -0.3493 -1.3410
   77MOL   H26220174   4.602   0.295   5.767 -0.1646 -0.7412 -0.6696
   78MOL     C120175   6.672   4.201   6.930  0.3266 -0.4469  0.2339
   78MOL     N220176   6.527   4.245   6.930 -0.8327 -0.0568 -0.1117
   78MOL     C320177   6.484   4.348   6.860 -0.2171  0.5363 -0.4184
   78MOL     O420178   6.535   4.395   6.758 -0.1668 -0.5461  0.4324
   78MOL     C520179   6.346   4.393   6.907  0.3436  0.2704 -0.7366
   78MOL     C620180   6.706   4.147   7.066 -0.0706  0.2029 -0.2632
   78MOL     H720181   6.690   4.133   6.846 -0.7404  1.2703 -1.4022
   78MOL     H820182   6.469   4.206   7.003  0.8284 -1.5370  0.4390
   78MOL     H920183   6.342   4.430   7.009 -1.1555 -3.1780  0.5413
   78MOL    H1020184   6.306   4.464   6.835 -2.1988  1.1756  1.5168
   78MOL    H1120185   6.274   4.312   6.911 -0.2934  0.8952  1.2103
   78MOL    H1220186   6.812   4.166   7.080 -0.5674  1.9281  1.3674
   78MOL    H1320187   6.661   4.200   7.150 -1.3445 -0.6019 -0.4218
   78MOL    H1420188   6.726   4.294   6.912  2.5974 -1.4484  1.5711
   78MOL    C1520189   6.677   3.994   7.091  0.1667 -0.2742  0.3294
   78MOL    N1620190   6.541   3.949   7.070  0.1114  0.3910  0.4386
   78MOL    C1720191   6.433   4.008   7.124 -0.0224  0.1066 -0.9766
   78MOL    O1820192   6.438   4.120   7.178 -0.0915 -1.0987  0.0379
   78MOL    C1920193   6.300   3.937   7.110 -0.0680  0.0278  0.7074
   78MOL    C2020194   6.739   3.955   7.226  0.6685 -0.6832  0.3139
   78MOL    H2120195   6.739   3.944   7.016  1.9045  1.0878  0.8177
   78MOL    H2220196   6.528   3.862   7.020 -1.2652 -0.5254  2.3237
   78MOL    H2320197   6.315   3.851   7.043  0.2533  1.1204 -0.6550
   78MOL    H2420198   6.252   3.909   7.203 -0.7469  1.0716  0.6743
   78MOL    H2520199   6.225   3.989   7.050 -0.0209 -0.2144  0.4331
   78MOL    H2620200   6.823   4.022   7.247  1.1598 -1.1903 -0.0267
   78MOL    H2720201   6.678   3.991   7.309  0.5732  0.6455 -0.3169
   78MOL    C2820202   6.788   3.809   7.242  0.1758  0.0422 -0.6068
   78MOL    N2920203   6.681   3.722   7.212  0.4420 -0.8059  0.2199
   78MOL    C3020204   6.701   3.595   7.179  0.6168  0.3772  0.8447
   78MOL    O3120205   6.804   3.546   7.148 -0.5552  0.0206 -0.1151
   78MOL    C3220206   6.587   3.510   7.217 -0.1107  0.3599  0.0272
   78MOL    C3320207   6.843   3.768   7.382 -0.1671  0.2633  0.1056
   78MOL    H3420208   6.875   3.809   7.177  0.8013 -3.8209  0.1476
   78MOL    H3520209   6.593   3.749   7.253  1.1008  2.8757 -0.6279
   78MOL    H3620210   6.516   3.533   7.297 -1.1852  0.8422 -1.0522
   78MOL    H3720211   6.519   3.497   7.133  0.6851  1.3548 -0.7853
   78MOL    H3820212   6.622   3.409   7.239 -0.8140  0.4331  1.5428
   78MOL    H3920213   6.798   3.830   7.460 -2.2526 -1.9740  0.7531
   78MOL    H4020214   6.803   3.668   7.397  0.7551 -0.1123  0.0830
   78MOL    C4120215   6.999   3.777   7.403  0.8709  1.2028 -0.2950
   78MOL    N4220216   7.066   3.702   7.298 -0.0028 -0.3157 -0.9979
   78MOL    C4320217   7.173   3.744   7.231 -0.0649  0.4333  0.2204
   78MOL    O4420218   7.210   3.862   7.240 -0.7273  0.3511 -0.6992
   78MOL    C4520219   7.246   3.641   7.147  0.5196  0.3687  0.0752
   78MOL    C4620220   7.039   3.733   7.552  0.1650 -0.4637  0.0333
   78MOL    H4720221   7.017   3.882   7.384  1.3549  0.9382 -1.3459
   78MOL    H4820222   7.028   3.610   7.277  0.0099 -0.7888  0.9758
   78MOL    H4920223   7.254   3.543   7.193  1.6827  0.2966 -0.2829
   78MOL    H5020224   7.198   3.631   7.050 -0.6599 -0.5694  0.7320
   78MOL    H5120225   7.349   3.677   7.144  0.0466  2.0170  2.1836
   78MOL    H5220226   6.982   3.797   7.618 -1.2924 -0.1045 -1.5367
   78MOL    H5320227   7.010   3.633   7.584  2.0244 -1.2298 -0.5587
   78MOL    C5420228   7.184   3.771   7.584 -0.3938  0.5561 -0.1244
   78MOL    N5520229   7.247   3.652   7.645 -0.6801  0.1687 -0.2702
   78MOL    C5620230   7.347   3.577   7.593  0.1012 -0.4326 -0.4564
   78MOL    O5720231   7.394   3.603   7.484 -0.1617 -0.4930  0.4430
   78MOL    C5820232   7.410   3.471   7.680 -0.1900  0.2878 -0.3160
   78MOL    C5920233   7.199   3.901   7.678  0.4904  0.4697  0.0983
   78MOL    H6020234   7.243   3.795   7.496  1.5006  0.3855  1.0554
   78MOL    H6120235   7.212   3.621   7.735  1.2402  1.1980  0.8776
   78MOL    H6220236   7.494   3.527   7.721 -0.8426 -0.0419  1.4985
   78MOL    H6320237   7.346   3.436   7.760 -1.2039  2.3768 -0.1664
   78MOL    H6420238   7.439   3.386   7.618 -1.1207 -0.0249 -0.3225
   78MOL    H6520239   7.152   3.982   7.622  0.2459  0.0320 -0.3345
   78MOL    H6620240   7.136   3.886   7.765 -0.2128  0.3344 -0.4263
   78MOL    C6720241   7.342   3.935   7.727  0.8467 -0.3941  1.0868
   78MOL    N6820242   7.346   3.929   0.030  0.0808 -0.4058 -0.9322
   78MOL    C6920243   7.282   4.007   0.118  0.0851  0.5372  0.0790
   78MOL    O7020244   7.226   4.113   0.092  0.3309 -0.7039 -0.8638
   78MOL    C7120245   7.284   3.950   0.263  0.2954  0.1740  0.0492
   78MOL    C7220246   7.391   4.067   7.673  0.0085 -0.1057  0.2371
   78MOL    H7320247   7.408   3.852   7.701  0.1990 -0.3904 -0.6591
   78MOL    H7420248   7.407   3.858   0.067  2.2321  3.3193  3.1549
   78MOL    H7520249   7.250   3.846   0.267 -0.1404  0.2577 -1.2160
   78MOL    H7620250   7.386   3.955   0.302  0.3901  0.4596 -0.2349
   78MOL    H7720251   7.221   4.012   0.327  0.1227  0.1267 -0.0756
   78MOL    H7820252   7.311   4.130   7.710  1.0803  0.6190  1.3886
   78MOL    H7920253   7.475   4.115   7.724 -1.1802 -1.2101  3.3040
   78MOL    C8020254   7.410   4.082   7.520  0.4968 -0.1300 -0.6391
   78MOL    N8120255   7.283   4.078   7.448  0.2498  0.7629  0.2605
   78MOL    C8220256   7.197   4.182   7.437  0.4822  0.3648  0.2181
   78MOL    O8320257   7.209   4.285   7.500 -0.0513  0.6006  0.4196
   78MOL    C8420258   7.076   4.169   7.341 -0.2802 -0.3921 -0.1446
   78MOL    C8520259   7.502   3.967   7.465 -0.0506 -0.0627 -0.2665
   78MOL    H8620260   7.459   4.178   7.502 -1.0678  0.2356 -3.1113
   78MOL    H8720261   7.270   3.997   7.389  3.0530 -1.5873  2.6830
   78MOL    H8820262   6.981   4.165   7.395 -0.2999  0.6329 -0.0861
   78MOL    H8920263   7.058   4.273   7.315  1.5733  0.0799  0.4354
   78MOL    H9020264   7.104   4.113   7.252  0.3330  2.3108 -1.7016
   78MOL    H9120265   7.588   3.960   7.531 -0.4238 -0.9806  0.1440
   78MOL    H9220266   7.456   3.868   7.475 -2.0545  0.5440 -2.9053
   78MOL    C9320267   7.563   3.962   7.324 -0.3297  0.7649  0.0363
   78MOL    N9420268   7.465   4.000   7.224 -0.2361 -0.3750 -0.9274
   78MOL    C9520269   7.491   4.078   7.113  0.1189  0.9457  0.4210
   78MOL    O9620270   7.603   4.133   7.091  0.4477  0.0822 -0.1772
   78MOL    C9720271   7.382   4.089   7.011  0.2298  0.2665 -0.4771
   78MOL    C9820272   7.589   3.815   7.271 -0.2014  0.7837 -0.5614
   78MOL    H9920273   7.649   4.027   7.313 -0.2985  0.9156  1.1250
   78MOL   H10020274   7.385   3.939   7.215 -0.4694 -0.5313  1.9502
   78MOL   H10120275   7.326   4.182   7.018  1.9320  1.2868 -0.0617
   78MOL   H10220276   7.431   4.105   6.915  0.6423  2.4697  0.0822
   78MOL   H10320277   7.311   4.007   7.005 -0.8680  1.0402  1.3899
   78MOL   H10420278   7.492   3.768   7.290 -0.2827  1.3759  0.5849
   78MOL   H10520279   7.603   3.820   7.164 -3.1182  3.3998 -0.8943
   78MOL   C10620280   7.703   3.727   7.337 -0.7433  0.4199 -0.5785
   78MOL   N10720281   7.811   3.808   7.385  0.3758  0.4083 -0.3615
   78MOL   C10820282   0.008   3.811   7.518  0.0888  0.5734 -0.7944
   78MOL   O10920283   7.776   3.769   7.612 -0.1861  0.4937 -0.0646
   78MOL   C11020284   0.147   3.860   7.555 -0.2307 -0.0692 -0.2794
   78MOL   C11120285   7.754   3.619   7.237 -0.3930  0.5034  0.1825
   78MOL   H11220286   7.652   3.679   7.421 -1.6361  0.1171 -1.2800
   78MOL   H11320287   0.036   3.838   7.314  1.3659  2.9514  1.5119
   78MOL   H11420288   0.215   3.825   7.477  0.8129 -2.0628  1.4883
   78MOL   H11520289   0.146   3.969   7.565  0.8418  0.0967 -1.6779
   78MOL   H11620290   0.172   3.809   7.648  1.5716 -0.6685 -1.0707
   78MOL   H11720291   7.800   3.533   7.286  0.4098  0.8814  0.0950
   78MOL   H11820292   7.669   3.573   7.187 -0.4787 -0.2207  0.9977
   78MOL   C11920293   0.028   3.652   7.135  0.3045 -0.6092  0.9034
   78MOL   N12020294   0.000   3.773   7.054 -0.2405 -0.4418  0.2128
   78MOL   C12120295   0.050   3.896   7.082 -0.8362 -0.3216 -0.0071
   78MOL   O12220296   0.110   3.913   7.188 -0.2067  0.0499  0.6194
   78MOL   C12320297   0.034   4.006   6.978 -0.7890  0.1950 -0.0728
   78MOL   C12420298   0.091   3.544   7.042  0.3661 -0.1035  0.7057
   78MOL   H12520299   0.117   3.680   7.191  1.6354  0.8530 -1.8128
   78MOL   H12620300   7.806   3.753   6.961  1.2422  1.0767 -0.6963
   78MOL   H12720301   7.817   4.091   7.016  1.7003  1.5576  0.6963
   78MOL   H12820302   0.137   4.033   6.953 -0.3034  0.1388  1.8253
   78MOL   H12920303   7.826   3.949   6.898 -0.7316 -1.2949  0.9349
   78MOL   H13020304   0.147   3.608   6.975 -2.0923  0.2874 -1.0561
   78MOL   H13120305   0.161   3.487   7.103  0.1428 -0.3682  0.7211
   78MOL   C13220306   0.002   3.439   6.981 -0.3452 -0.2671 -0.3356
   78MOL   N13320307   0.077   3.364   6.885  0.0830  0.3994  0.0153
   78MOL   C13420308   0.142   3.400   6.773  0.0084 -0.0464  0.6157
   78MOL   O13520309   0.149   3.520   6.734 -0.7580 -0.6613 -0.3502
   78MOL   C13620310   0.214   3.295   6.694  0.2230 -0.1896  1.1709
   78MOL   C13720311   7.717   3.505   6.918 -0.3116 -0.3381 -0.2924
   78MOL   H13820312   7.812   3.373   7.063  0.0204 -0.4595 -0.3592
   78MOL   H13920313   0.097   3.266   6.901 -0.5022  0.4976  1.3270
   78MOL   H14020314   0.167   3.271   6.598  0.9325  1.5467  0.3674
   78MOL   H14120315   0.318   3.328   6.686 -0.4460  1.9875  1.0933
   78MOL   H14220316   0.226   3.198   6.741  1.0109 -0.3362  0.6870
   78MOL   H14320317   7.677   3.597   6.961 -1.5067 -0.2637 -1.5205
   78MOL   H14420318   7.759   3.529   6.820  1.8029  1.8300  1.0793
   78MOL   C14520319   7.600   3.409   6.885  0.3747 -0.0347  0.6160
   78MOL   N14620320   7.514   3.462   6.775 -0.0425  1.0661  0.2110
   78MOL   C14720321   7.422   3.551   6.778  0.6318 -0.0660 -0.0730
   78MOL   O14820322   7.402   3.628   6.872 -0.0215 -0.0425  0.1332
   78MOL   C14920323   7.341   3.567   6.653  0.4652 -0.5748 -0.4125
   78MOL   C15020324   7.532   3.354   7.014 -0.0758 -0.6565 -0.4922
   78MOL   H15120325   7.641   3.319   6.839  0.4706  0.2631  0.1055
   78MOL   H15220326   7.529   3.405   6.692  0.2131 -0.9485  1.5863
   78MOL   H15320327   7.243   3.521   6.664 -0.8296  2.9549  3.5819
   78MOL   H15420328   7.315   3.672   6.647  1.1540 -0.3619  0.2777
   78MOL   H15520329   7.389   3.542   6.558  0.5265 -0.3186 -0.4484
   78MOL   H15620330   7.606   3.326   7.090 -0.6584  2.5813  1.3424
   78MOL   H15720331   7.481   3.437   7.062 -0.3242 -0.2585 -1.4412
   78MOL   C15820332   7.432   3.230   7.009  0.5141 -0.0307 -0.1754
   78MOL   N15920333   7.362   3.219   7.134 -0.3081  0.0138 -0.2299
   78MOL   C16020334   7.405   3.224   7.262 -0.4672  0.1571  0.7988
   78MOL   O16120335   7.524   3.248   7.294 -0.1294 -0.4057 -0.8624
   78MOL   C16220336   7.296   3.222   7.370  0.0368  0.2923 -0.5532
   78MOL   C16320337   7.492   3.099   6.969 -0.1716  0.1994  0.5415
   78MOL   H16420338   7.357   3.255   6.934  0.9453  0.8203 -0.3309
   78MOL   H16520339   7.261   3.211   7.137 -0.4056  0.8661 -1.0561
   78MOL   H16620340   7.272   3.117   7.387  0.5767  0.3538  0.6365
   78MOL   H16720341   7.344   3.239   7.466 -0.4214  0.6317 -0.3798
   78MOL   H16820342   7.206   3.284   7.367  1.1230  2.0498  1.8424
   78MOL   H16920343   7.581   3.125   6.912 -1.2619  0.3932 -1.1038
   78MOL   H17020344   7.541   3.068   7.061  0.5406 -1.9934 -0.5176
   78MOL   C17120345   7.415   2.988   6.896 -0.2392  0.0361  0.0442
   78MOL   N17220346   7.280   2.962   6.953 -0.0834  0.7036  0.2285
   78MOL   C17320347   7.238   2.921   7.075 -0.6220 -0.5196 -0.2673
   78MOL   O17420348   7.320   2.897   7.164  0.1958 -0.2546 -0.2465
   78MOL   C17520349   7.088   2.916   7.099  0.0646 -0.5414  0.1351
   78MOL   C17620350   7.475   2.847   6.888 -0.3827 -0.1228 -0.3266
   78MOL   H17720351   7.386   3.028   6.799 -1.8274  1.6548  1.1515
   78MOL   H17820352   7.218   2.961   6.873 -0.4300 -0.1089  0.4994
   78MOL   H17920353   7.059   2.830   7.039  2.2348 -2.0099  1.1452
   78MOL   H18020354   7.067   2.906   7.205 -0.7959 -1.4928 -0.1184
   78MOL   H18120355   7.041   3.005   7.057  1.7279  1.9583  3.2971
   78MOL   H18220356   7.510   2.836   6.990 -1.4672  1.0697  0.1948
   78MOL   H18320357   7.403   2.765   6.889 -0.0007 -0.4575  1.2300
   78MOL   C18420358   7.584   2.821   6.783 -0.0915 -0.3814  1.0070
   78MOL   N18520359   7.679   2.932   6.778  0.0689 -0.0357  0.2652
   78MOL   C18620360   7.796   2.950   6.845  0.4773 -0.7431  0.2917
   78MOL   O18720361   0.008   3.063   6.849  0.5540  0.0967  0.3018
   78MOL   C18820362   0.023   2.838   6.915  0.2978 -0.1945 -0.1312
   78MOL   C18920363   7.519   2.796   6.645 -0.0816  0.5060 -0.0157
   78MOL   H19020364   7.635   2.730   6.814  0.2047 -0.9301 -1.0659
   78MOL   H19120365   7.650   3.022   6.742  1.2386  0.8670  1.5136
   78MOL   H19220366   7.816   2.816   7.011 -1.8799 -0.0008 -1.1159
   78MOL   H19320367   0.041   2.749   6.856 -1.0583  0.7481 -1.9930
   78MOL   H19420368   0.118   2.878   6.953 -1.4583  0.5849  3.7051
   78MOL   H19520369   7.462   2.704   6.657 -1.2051  1.1614 -0.2473
   78MOL   H19620370   7.439   2.868   6.632  1.0641  1.6669 -0.7819
   78MOL   C19720371   7.611   2.804   6.520  0.5138 -0.5035  0.0694
   78MOL   N19820372   7.533   2.774   6.405  0.1095 -0.3123 -0.0630
   78MOL   C19920373   7.470   2.869   6.331  0.3059 -0.4602 -0.4190
   78MOL   O20020374   7.470   2.988   6.366 -0.2110  0.5214 -0.3823
   78MOL   C20120375   7.401   2.834   6.201 -0.1781 -0.4110  0.0955
   78MOL   C20220376   7.736   2.714   6.529  0.2684 -0.3291 -0.2051
   78MOL   H20320377   7.655   2.903   6.512 -0.3262 -0.2970 -2.5311
   78MOL   H20420378   7.528   2.679   6.372 -2.3974  0.3920 -1.8829
   78MOL   H20520379   7.305   2.788   6.221 -0.1073 -1.4160 -1.7738
   78MOL   H20620380   7.388   2.924   6.141  0.6200 -0.4516 -0.1481
   78MOL   H20720381   7.453   2.758   6.143  1.6497  1.0768 -0.2696
   78MOL   H20820382   7.791   2.754   6.613  0.4296  0.4353 -0.6675
   78MOL   H20920383   7.708   2.613   6.558 -1.7681 -0.2564 -1.7928
   78MOL   C21020384   7.829   2.699   6.404  0.8888  0.2846  0.0380
   78MOL   N21120385   0.100   2.616   6.441 -0.2016  0.0857  0.8126
   78MOL   C21220386   0.135   2.500   6.388  0.0107  0.2722 -0.0475
   78MOL   O21320387   0.081   2.458   6.287 -0.2179 -0.0402 -0.0048
   78MOL   C21420388   0.247   2.425   6.453  0.4378  0.8500 -0.3582
   78MOL   C21520389   0.045   2.828   6.342 -0.0039  0.2305  0.4495
   78MOL   H21620390   7.763   2.655   6.329  0.2100  1.7454 -0.2233
   78MOL   H21720391   0.168   2.652   6.506  1.2018  0.4471 -0.8465
   78MOL   H21820392   0.338   2.409   6.395  1.6153  0.2080  1.6058
   78MOL   H21920393   0.270   2.467   6.551 -1.7005  2.9030 -0.7130
   78MOL   H22020394   0.220   2.319   6.451 -0.8983  1.1758  0.4241
   78MOL   H22120395   7.799   2.896   6.333  0.8388  1.0225 -1.9628
   78MOL   H22220396   0.112   2.868   6.418  0.7745  0.6719 -0.4696
   78MOL   C22320397   0.122   2.822   6.206  0.7891 -0.3066 -0.1765
   78MOL   N22420398   0.159   2.960   6.179 -0.5171 -1.1107 -0.0864
   78MOL   C22520399   0.245   3.037   6.249 -0.4435  0.4769  0.5408
   78MOL   O22620400   0.320   2.996   6.337  0.1063  0.3515  0.7308
   78MOL   C22720401   0.251   3.181   6.204 -0.6865  0.7460 -0.0214
   78MOL   C22820402   0.043   2.760   6.089  0.5853  0.2236  0.3126
   78MOL   H22920403   0.213   2.763   6.218  1.4665  0.5167 -1.1902
   78MOL   H23020404   0.123   3.010   6.100 -2.2091 -0.2201  1.2041
   78MOL   H23120405   0.330   3.208   6.134 -0.3177 -0.9528 -0.2908
   78MOL   H23220406   0.155   3.199   6.156 -0.7411  1.9693  0.5363
   78MOL   H23320407   0.259   3.237   6.297  0.4576  0.6257 -0.0369
   78MOL   H23420408   0.038   2.653   6.107 -0.6908  0.1117 -0.6114
   78MOL   H23520409   7.784   2.807   6.085 -0.1012 -1.1017  1.1487
   78MOL   C23620410   0.112   2.772   5.946  0.2088 -0.1354  0.3059
   78MOL   N23720411   0.258   2.754   5.951  0.0062  0.0054  0.0094
   78MOL   C23820412   0.323   2.637   5.969  0.2426 -1.3476  0.5048
   78MOL   O23920413   0.268   2.535   6.007  0.1508  1.0087 -0.3155
   78MOL   C24020414   0.473   2.635   5.927 -0.2177  0.5729  0.6749
   78MOL   C24120415   0.086   2.900   5.877  0.6494 -0.5693 -0.5006
   78MOL   H24220416   0.064   2.703   5.877 -0.2492  1.2641 -0.7822
   78MOL   H24320417   0.305   2.841   5.930 -0.2404  0.2006  0.2573
   78MOL   H24420418   0.490   2.716   5.856 -1.6755 -1.1401 -1.6994
   78MOL   H24520419   0.534   2.655   6.015  0.0016  0.2887  0.5831
   78MOL   H24620420   0.496   2.537   5.886 -0.4581  1.5489 -1.9212
   78MOL   H24720421   7.819   2.914   5.898  1.4506  2.5153  1.9087
   78MOL   H24820422   0.142   2.982   5.921  2.0869 -0.1646 -3.0156
   78MOL   C24920423   0.103   2.902   5.725 -0.3509  1.4196 -0.5577
   78MOL   N25020424   0.243   2.907   5.683  0.4734 -0.3209  0.2036
   78MOL   C25120425   0.303   2.827   5.594 -0.0070 -0.0843 -0.3000
   78MOL   O25220426   0.251   2.724   5.549 -0.3779  0.2575 -0.1729
   78MOL   C25320427   0.449   2.858   5.555  0.7732 -0.1115  0.3074
   78MOL   C25420428   0.016   3.014   5.652 -0.2109  0.6706 -0.0663
   78MOL   H25520429   0.060   2.807   5.693 -2.6086  1.9484  0.7584
   78MOL   H25620430   0.295   2.984   5.724 -0.2838 -0.4289  1.4023
   78MOL   H25720431   0.460   2.964   5.534  0.2170 -0.4989 -2.0398
   78MOL   H25820432   0.523   2.818   5.625  0.8355  0.0215  0.3161
   78MOL   H25920433   0.495   2.801   5.475  0.5003  1.3971 -0.9311
   78MOL   H26020434   0.027   3.011   5.543 -0.3233 -3.0068 -0.0401
   78MOL   H26120435   7.753   2.987   5.674  0.5167 -0.8589  1.5947
   78MOL   H26220436   0.030   3.117   5.685 -0.2084  0.8801 -0.7215
   79MOL     C120437   4.976   1.216   6.100  0.1248 -0.3317  0.2088
   79MOL     N220438   4.879   1.302   6.038 -0.2896 -0.5026 -0.2297
   79MOL     C320439   4.902   1.384   5.933  0.5232  0.0788  0.0384
   79MOL     O420440   5.015   1.390   5.875 -0.1261 -0.3889 -0.3538
   79MOL     C520441   4.793   1.467   5.876  0.2961  0.2546 -0.2828
   79MOL     C620442   4.927   1.067   6.075 -0.3528  0.1099  0.2109
   79MOL     H720443   5.080   1.232   6.071 -0.8303  2.1870 -1.9825
   79MOL     H820444   4.785   1.293   6.074 -0.5493 -0.0057 -0.7775
   79MOL     H920445   4.820   1.570   5.897  1.7099 -0.0524 -0.5889
   79MOL    H1020446   4.787   1.450   5.768 -0.1814 -0.8732 -0.0812
   79MOL    H1120447   4.699   1.437   5.922  0.6734  0.3298  0.5434
   79MOL    H1220448   4.826   1.058   6.115 -0.7056  1.5069 -0.3572
   79MOL    H1320449   4.914   1.042   5.969 -2.2931  0.2081  0.4003
   79MOL    H1420450   4.973   1.235   6.208 -0.6489  1.8362 -0.1843
   79MOL    C1520451   5.020   0.971   6.149  0.5931  0.4338 -0.2066
   79MOL    N1620452   5.149   0.976   6.074 -0.5242  0.2297 -0.0365
   79MOL    C1720453   5.267   0.964   6.128  0.2798  0.3763  0.8435
   79MOL    O1820454   5.286   0.950   6.248  0.5973  0.8800  0.7221
   79MOL    C1920455   5.384   0.960   6.034 -0.0619 -0.7159  0.4285
   79MOL    C2020456   4.959   0.832   6.145  0.1596 -0.4834 -0.6714
   79MOL    H2120457   5.041   0.999   6.253  0.0705  1.0792 -0.2679
   79MOL    H2220458   5.140   0.989   5.974  1.9445 -1.1966 -0.4677
   79MOL    H2320459   5.468   0.927   6.096  0.5381  1.4266  0.8074
   79MOL    H2420460   5.372   0.883   5.959  0.9079 -0.5787  0.1264
   79MOL    H2520461   5.414   1.060   6.003 -1.4218 -0.7427 -1.0030
   79MOL    H2620462   4.913   0.814   6.047  1.1582 -1.7812 -0.9113
   79MOL    H2720463   5.040   0.759   6.140 -0.5420 -1.4451  1.6309
   79MOL    C2820464   4.855   0.798   6.257 -0.2803 -0.2412  0.4868
   79MOL    N2920465   4.729   0.873   6.234 -0.0390 -0.2169  0.1175
   79MOL    C3020466   4.607   0.832   6.270 -0.4857  0.6237  0.5914
   79MOL    O3120467   4.593   0.725   6.329 -0.2768  0.3893  0.0187
   79MOL    C3220468   4.485   0.920   6.231 -0.2460  0.1083  0.2283
   79MOL    C3320469   4.909   0.820   6.398  0.0902 -0.0759 -0.1066
   79MOL    H3420470   4.826   0.693   6.255 -1.0077 -0.0366 -0.1510
   79MOL    H3520471   4.728   0.969   6.204 -2.0864 -0.0849  0.5421
   79MOL    H3620472   4.518   1.024   6.217 -0.0454 -0.2228 -1.9305
   79MOL    H3720473   4.440   0.892   6.135 -1.6287 -0.3229  0.9917
   79MOL    H3820474   4.403   0.909   6.301 -3.3124  0.5464 -3.1495
   79MOL    H3920475   4.920   0.925   6.423 -0.1797 -0.5296  2.0763
   79MOL    H4020476   4.836   0.780   6.468  0.1110 -0.4808 -0.3114
   79MOL    C4120477   5.049   0.751   6.432  0.4740 -0.2059  0.4686
   79MOL    N4220478   5.047   0.608   6.402  0.1520 -0.6165 -0.4124
   79MOL    C4320479   5.142   0.535   6.355 -0.0744  0.3689  0.2945
   79MOL    O4420480   5.256   0.580   6.345 -0.2658  0.6231  0.2545
   79MOL    C4520481   5.110   0.389   6.308 -0.7409  0.3685  0.1500
   79MOL    C4620482   5.110   0.783   6.571  0.2464  0.2165 -0.1345
   79MOL    H4720483   5.121   0.797   6.364  0.4378  0.0582  0.6117
   79MOL    H4820484   4.952   0.575   6.396 -0.2257  0.4389 -0.3627
   79MOL    H4920485   5.067   0.388   6.207 -0.4955  1.1873  0.0310
   79MOL    H5020486   5.194   0.320   6.312  0.8556  2.3222  0.9574
   79MOL    H5120487   5.031   0.352   6.374 -0.3275 -1.9290 -0.6010
   79MOL    H5220488   5.055   0.718   6.639  1.7343 -1.2662 -0.3224
   79MOL    H5320489   5.214   0.752   6.583 -0.0191 -0.6819 -0.1268
   79MOL    C5420490   5.118   0.931   6.612 -0.2709  0.0790 -0.4635
   79MOL    N5520491   5.189   1.018   6.509 -0.6779  0.3487 -0.4412
   79MOL    C5620492   5.190   1.150   6.521 -0.7206 -0.3270 -0.0238
   79MOL    O5720493   5.146   1.215   6.616  0.7104 -0.3964  0.8403
   79MOL    C5820494   5.261   1.232   6.409 -0.1175 -0.3223  0.2465
   79MOL    C5920495   5.172   0.953   6.753 -0.6154  0.6531  0.2673
   79MOL    H6020496   5.018   0.975   6.604 -2.2587 -4.0917 -0.3147
   79MOL    H6120497   5.225   0.976   6.425  0.9502 -2.3791  1.5201
   79MOL    H6220498   5.357   1.186   6.384  0.0983 -1.1115  2.4296
   79MOL    H6320499   5.212   1.227   6.312 -1.0269  0.3384  0.6673
   79MOL    H6420500   5.275   1.333   6.448  0.0557 -0.9421  1.8605
   79MOL    H6520501   5.274   0.914   6.756 -0.3904  1.1840 -0.2812
   79MOL    H6620502   5.193   1.057   6.776 -0.6742  0.6970  0.1232
   79MOL    C6720503   5.078   0.890   6.864 -0.1435  0.4878 -0.0720
   79MOL    N6820504   5.033   0.997   6.943  0.3810 -0.0403 -0.0593
   79MOL    C6920505   4.933   1.085   6.914 -0.0743 -0.7678  0.3317
   79MOL    O7020506   4.858   1.074   6.816 -0.4340  0.4943  0.1294
   79MOL    C7120507   4.908   1.193   7.019 -0.2684  0.8363  0.7345
   79MOL    C7220508   5.156   0.778   6.948  0.1312 -0.1055 -1.0417
   79MOL    H7320509   4.986   0.862   6.813 -0.4989 -0.1905  0.9519
   79MOL    H7420510   5.098   1.022   7.017 -0.1033  1.6313 -0.1933
   79MOL    H7520511   4.857   1.274   6.968  2.0935  0.3205 -2.5677
   79MOL    H7620512   4.850   1.163   7.107  0.5646  2.3681  1.8304
   79MOL    H7720513   5.001   1.240   7.052 -1.3686  1.7268  2.7015
   79MOL    H7820514   5.197   0.701   6.883  0.6418 -0.0439 -0.7953
   79MOL    H7920515   5.245   0.826   6.989 -0.8668 -0.2227  1.3440
   79MOL    C8020516   5.069   0.711   7.056  0.5993  0.0652  0.1663
   79MOL    N8120517   5.135   0.626   7.158  0.4005 -0.1186  0.1364
   79MOL    C8220518   5.118   0.638   7.291 -1.0870 -0.1776 -0.2604
   79MOL    O8320519   5.047   0.718   7.348  0.7533 -0.3504 -0.0734
   79MOL    C8420520   5.188   0.533   7.380 -0.6286 -0.0563 -0.3121
   79MOL    C8520521   4.948   0.616   7.002 -0.3429  0.8379 -0.3375
   79MOL    H8620522   5.023   0.797   7.106  0.8489  0.4452 -0.2477
   79MOL    H8720523   5.186   0.548   7.118 -0.8170 -0.0138 -1.7127
   79MOL    H8820524   5.295   0.526   7.359 -0.8421 -0.8923 -1.1869
   79MOL    H8920525   5.188   0.538   7.488  1.5614 -1.4111 -0.2091
   79MOL    H9020526   5.166   0.439   7.330 -0.2990 -0.5827  0.5330
   79MOL    H9120527   4.940   0.614   6.894 -0.6401  0.3538 -0.3084
   79MOL    H9220528   4.973   0.513   7.025 -1.5140  0.5721 -0.2285
   79MOL    C9320529   4.811   0.651   7.069  0.5075 -0.3931  0.9132
   79MOL    N9420530   4.730   0.528   7.059  0.6406 -0.0492 -0.0143
   79MOL    C9520531   4.753   0.414   7.127  0.1458  0.1060 -0.9108
   79MOL    O9620532   4.836   0.405   7.216 -0.7122 -0.8952 -0.0851
   79MOL    C9720533   4.676   0.297   7.081 -0.0876 -0.4195 -0.6624
   79MOL    C9820534   4.728   0.762   6.996  0.0755  0.4722 -0.4172
   79MOL    H9920535   4.823   0.682   7.173 -1.1921 -1.1247  1.3302
   79MOL   H10020536   4.663   0.533   6.983 -0.9642 -1.4645  1.2862
   79MOL   H10120537   4.571   0.325   7.091  0.6311  2.1567 -0.1267
   79MOL   H10220538   4.672   0.277   6.974  0.3728 -0.6502 -0.6348
   79MOL   H10320539   4.693   0.217   7.153  0.6096  0.1486 -0.1950
   79MOL   H10420540   4.789   0.849   6.970 -3.1419  2.4932 -1.4501
   79MOL   H10520541   4.690   0.722   6.902 -0.8567 -0.3530  0.3005
   79MOL   C10620542   4.606   0.807   7.085  0.0971 -0.6411  0.1081
   79MOL   N10720543   4.477   0.811   7.004  0.6204 -0.1117 -0.6397
   79MOL   C10820544   4.412   0.701   6.954  0.1390  0.6860 -0.9870
   79MOL   O10920545   4.464   0.589   6.952 -0.0892 -0.1214  0.1210
   79MOL   C11020546   4.276   0.723   6.891  0.0921 -0.4590  0.4909
   79MOL   C11120547   4.632   0.944   7.148 -0.0604  1.1340  0.6477
   79MOL   H11220548   4.594   0.737   7.168 -2.4118 -1.1691 -0.6382
   79MOL   H11320549   4.430   0.899   6.989  0.8248  0.3714  1.3846
   79MOL   H11420550   4.211   0.795   6.940  1.1838  1.0774 -0.2706
   79MOL   H11520551   4.285   0.762   6.790 -1.9856 -2.5253 -0.5381
   79MOL   H11620552   4.238   0.621   6.884 -0.0551 -0.2350 -2.5741
   79MOL   H11720553   4.726   0.948   7.204 -0.9594  0.1878  2.2508
   79MOL   H11820554   4.643   1.021   7.072  0.4986 -0.2741 -0.7277
   79MOL   C11920555   4.526   0.997   7.253  0.5216 -0.1030  0.1645
   79MOL   N12020556   4.565   1.133   7.292 -1.2812 -0.2880  0.6512
   79MOL   C12120557   4.667   1.162   7.375  0.3268  0.2584 -0.5346
   79MOL   O12220558   4.734   1.080   7.434  0.0325 -0.1469  0.2055
   79MOL   C12320559   4.706   1.309   7.400 -0.0798  0.1780  0.1366
   79MOL   C12420560   4.506   0.915   7.381 -0.1199 -0.3301 -0.3524
   79MOL   H12520561   4.432   1.005   7.198  0.3222  1.2593  0.6571
   79MOL   H12620562   4.521   1.203   7.234  0.5688 -0.8689 -1.5607
   79MOL   H12720563   4.747   1.353   7.309 -1.0275  0.9593  0.0714
   79MOL   H12820564   4.623   1.372   7.433 -1.1082  0.4997 -2.8366
   79MOL   H12920565   4.780   1.306   7.479  1.0681  0.3481 -0.9221
   79MOL   H13020566   4.592   0.854   7.409 -0.3595 -0.9085 -0.8636
   79MOL   H13120567   4.481   0.978   7.467  2.1822 -2.4201  1.9374
   79MOL   C13220568   4.385   0.826   7.360  0.0131 -0.6167 -0.1090
   79MOL   N13320569   4.265   0.904   7.386  0.6105 -0.6261 -0.1215
   79MOL   C13420570   4.155   0.910   7.312  0.4809  0.0096  0.0376
   79MOL   O13520571   4.129   0.843   7.208  0.4517  0.1906 -0.1633
   79MOL   C13620572   4.047   0.998   7.367  0.0097 -0.1889 -0.5310
   79MOL   C13720573   4.383   0.700   7.441 -0.4528 -0.1823 -0.2520
   79MOL   H13820574   4.377   0.790   7.258 -0.8937 -0.5145 -0.0762
   79MOL   H13920575   4.268   0.971   7.462 -0.8259 -2.0339  1.2312
   79MOL   H14020576   3.991   1.050   7.289  0.7166 -0.3504 -1.1498
   79MOL   H14120577   3.971   0.940   7.420  1.1002  0.1013  1.4127
   79MOL   H14220578   4.089   1.067   7.440 -0.6245  0.3622 -0.6742
   79MOL   H14320579   4.477   0.646   7.437 -0.5020 -0.4908  1.8755
   79MOL   H14420580   4.381   0.740   7.543  0.6991 -0.4850 -0.1115
   79MOL   C14520581   4.270   0.598   7.412 -0.9713  0.1904 -0.0562
   79MOL   N14620582   4.264   0.499   7.522  0.3914 -0.1145  0.5137
   79MOL   C14720583   4.154   0.471   7.587  0.1878 -0.7204 -0.2767
   79MOL   O14820584   4.051   0.537   7.567  0.3231  0.3041 -0.7804
   79MOL   C14920585   4.159   0.375   7.705  0.0178 -0.0297  0.2118
   79MOL   C15020586   4.298   0.523   7.273  0.0678 -0.6029  0.2181
   79MOL   H15120587   4.175   0.651   7.403 -0.8502  0.5328  0.6891
   79MOL   H15220588   4.342   0.435   7.530  0.8607  0.3141 -0.5572
   79MOL   H15320589   4.088   0.293   7.692  0.6165 -0.5059 -0.0761
   79MOL   H15420590   4.255   0.324   7.716 -0.8232 -1.5738  0.5772
   79MOL   H15520591   4.124   0.424   7.796  0.4539  1.2972 -0.3202
   79MOL   H15620592   4.311   0.586   7.185  0.3296  0.0568  0.7256
   79MOL   H15720593   4.395   0.475   7.279  0.4427 -0.0158 -0.9445
   79MOL   C15820594   4.196   0.417   7.216 -0.1628 -0.0696  0.0256
   79MOL   N15920595   4.264   0.355   7.105 -0.5162  0.4149 -0.2689
   79MOL   C16020596   4.250   0.227   7.070  0.0262 -0.1796  0.2131
   79MOL   O16120597   4.161   0.160   7.116  0.6657 -0.0426 -0.1401
   79MOL   C16220598   4.340   0.172   6.951 -0.5219  0.2598  0.3131
   79MOL   C16320599   4.056   0.484   7.177 -0.6906  0.0849 -0.0053
   79MOL   H16420600   4.196   0.346   7.299 -1.9396 -0.1016  0.0152
   79MOL   H16520601   4.320   0.419   7.050  0.6562 -0.6272 -0.2998
   79MOL   H16620602   4.354   0.064   6.953 -0.8829  0.2315  1.0564
   79MOL   H16720603   4.288   0.175   6.855  0.4441 -0.7271 -0.2569
   79MOL   H16820604   4.436   0.224   6.946  1.1797 -2.7485  0.2157
   79MOL   H16920605   4.030   0.564   7.247  1.4757  0.8620 -0.0416
   79MOL   H17020606   4.066   0.527   7.077  0.4017  0.0958  0.1011
   79MOL   C17120607   3.932   0.393   7.148  0.1150 -0.0728 -0.0752
   79MOL   N17220608   3.814   0.465   7.106  0.4411 -0.7450  0.2972
   79MOL   C17320609   3.712   0.416   7.030 -0.4946  0.7154  0.1560
   79MOL   O17420610   3.704   0.297   6.986 -0.0195 -0.2029  0.3650
   79MOL   C17520611   3.596   0.513   7.004 -1.0771 -0.3919  0.0330
   79MOL   C17620612   3.888   0.304   7.271 -0.3908 -0.1054  0.3408
   79MOL   H17720613   3.963   0.318   7.076  1.6932 -0.8063  1.3270
   79MOL   H17820614   3.799   0.563   7.125 -2.4537 -0.7640 -1.5552
   79MOL   H17920615   3.599   0.564   6.908  2.4455 -0.5652 -0.0273
   79MOL   H18020616   3.496   0.472   7.018 -1.3310 -0.2365 -1.2621
   79MOL   H18120617   3.599   0.590   7.082 -3.7128  1.3231 -1.5004
   79MOL   H18220618   3.850   0.214   7.224 -0.0050  0.6175 -1.3922
   79MOL   H18320619   3.976   0.284   7.332 -0.2636  0.7624  0.4600
   79MOL   C18420620   3.788   0.357   7.379  0.3057  0.3972 -0.1542
   79MOL   N18520621   3.829   0.490   7.421 -0.0276 -0.1538 -0.4495
   79MOL   C18620622   3.748   0.600   7.417 -0.2994  0.2403  0.3475
   79MOL   O18720623   3.633   0.581   7.381  0.2616 -0.5251 -0.2184
   79MOL   C18820624   3.798   0.731   7.466 -0.2908  0.6425 -0.0142
   79MOL   C18920625   3.769   0.266   7.502  0.3298  0.1670 -0.0838
   79MOL   H19020626   3.695   0.358   7.322 -0.6998  1.1382  1.4479
   79MOL   H19120627   3.926   0.506   7.444 -0.1175 -2.7618  2.0585
   79MOL   H19220628   3.769   0.753   7.569  0.3067 -1.4060  0.6235
   79MOL   H19320629   3.906   0.734   7.466 -0.2986  1.1404 -0.9234
   79MOL   H19420630   3.763   0.804   7.393  1.0075  0.3249 -0.9661
   79MOL   H19520631   3.741   0.167   7.463 -2.2762  0.6761  0.3956
   79MOL   H19620632   3.863   0.244   7.552  0.9776 -1.1959 -1.8416
   79MOL   C19720633   3.673   0.315   7.618  0.9317 -0.1014  0.3226
   79MOL   N19820634   3.543   0.354   7.562  0.2915 -0.2357  0.7029
   79MOL   C19920635   3.429   0.286   7.592  0.1707  0.3731  0.0370
   79MOL   O20020636   3.419   0.194   7.671  0.0832  0.0480  0.0615
   79MOL   C20120637   3.299   0.337   7.530  0.0219 -0.4110  0.1627
   79MOL   C20220638   3.729   0.416   7.713 -0.2472 -0.2657  1.0380
   79MOL   H20320639   3.676   0.220   7.671  0.6248 -1.2983 -1.7369
   79MOL   H20420640   3.546   0.432   7.497  2.4261 -0.8263  0.0268
   79MOL   H20520641   3.319   0.340   7.423 -1.8827  2.0825 -0.1902
   79MOL   H20620642   3.210   0.276   7.549 -0.7287  0.7702  0.5432
   79MOL   H20720643   3.286   0.442   7.556  0.2642 -0.2535 -0.3559
   79MOL   H20820644   3.834   0.389   7.721  0.2521  1.1145 -0.6134
   79MOL   H20920645   3.730   0.518   7.674  0.2895 -1.1627 -1.3590
   79MOL   C21020646   3.688   0.398   0.022  0.3583  0.1503  0.3467
   79MOL   N21120647   3.550   0.444   0.035  0.0394 -0.0664  0.0291
   79MOL   C21220648   3.455   0.391   0.118 -0.1918 -0.9268 -0.4285
   79MOL   O21320649   3.476   0.304   0.199 -0.0366  0.0702 -0.2277
   79MOL   C21420650   3.314   0.438   0.087 -0.8853  0.1573 -0.1650
   79MOL   C21520651   3.776   0.493   0.118 -0.0640 -0.1220  0.0512
   79MOL   H21620652   3.684   0.290   0.037 -0.8057 -0.3572 -3.1077
   79MOL   H21720653   3.525   0.518   7.811  0.7235  0.5311  0.4440
   79MOL   H21820654   3.301   0.536   0.132 -0.3684  0.2887 -0.3041
   79MOL   H21920655   3.309   0.439   7.817  1.6039  2.1149 -0.3074
   79MOL   H22020656   3.247   0.359   0.119  0.4051 -0.9259 -0.1078
   79MOL   H22120657   3.735   0.465   0.215  0.1514 -0.8965 -0.0750
   79MOL   H22220658   3.878   0.455   0.111 -0.5938 -1.3217 -1.5481
   79MOL   C22320659   3.778   0.642   0.080 -0.5878  0.0434  0.6118
   79MOL   N22420660   3.906   0.677   0.037  0.0067 -0.2283  0.0873
   79MOL   C22520661   3.924   0.790   7.810  0.1836  0.0346  0.1888
   79MOL   O22620662   3.841   0.879   7.785  0.2367  0.3794 -0.2598
   79MOL   C22720663   4.059   0.798   7.747  0.4500 -0.4655  0.1727
   79MOL   C22820664   3.713   0.727   0.188  0.4136  0.3264 -0.3940
   79MOL   H22920665   3.721   0.652   7.828  0.1972 -1.4463 -0.0432
   79MOL   H23020666   3.986   0.615   0.041 -0.4597 -0.7556  1.3233
   79MOL   H23120667   4.115   0.882   7.788 -2.1274  0.3576  2.0998
   79MOL   H23220668   4.104   0.701   7.767  2.5283 -0.0699 -2.2268
   79MOL   H23320669   4.043   0.820   7.641  2.8050  2.0608  0.2940
   79MOL   H23420670   3.724   0.684   0.287 -0.8380 -1.8061 -1.1495
   79MOL   H23520671   3.774   0.818   0.194 -0.3084  0.7789  0.0744
   79MOL   C23620672   3.567   0.762   0.175  0.4893 -0.0454 -0.7059
   79MOL   N23720673   3.534   0.846   0.063 -0.1954 -0.8356  0.2634
   79MOL   C23820674   3.481   0.803   7.788  0.3686 -0.4072  0.5155
   79MOL   O23920675   3.449   0.682   7.766  0.5179  0.5329  0.7025
   79MOL   C24020676   3.480   0.908   7.679 -0.1254  0.6164  0.6237
   79MOL   C24120677   3.522   0.834   0.310 -0.0166 -0.0926  0.0512
   79MOL   H24220678   3.515   0.667   0.180  2.5233 -1.1637 -0.3275
   79MOL   H24320679   3.568   0.941   0.071  2.5178 -1.8315  1.1763
   79MOL   H24420680   3.576   0.947   7.647 -0.1850  0.8508  0.7238
   79MOL   H24520681   3.438   0.867   7.587  0.8743  1.4674 -0.2219
   79MOL   H24620682   3.420   0.994   7.709 -3.5385 -1.5914  0.4057
   79MOL   H24720683   3.607   0.889   0.349 -1.2319  0.7630  1.4964
   79MOL   H24820684   3.450   0.908   0.277 -0.4696 -0.1672  0.8567
   79MOL   C24920685   3.468   0.754   0.423  0.1239 -0.4044  0.3144
   79MOL   N25020686   3.353   0.671   0.381 -0.0392 -0.9674 -0.2113
   79MOL   C25120687   3.298   0.570   0.447  0.3412 -0.1702  0.1330
   79MOL   O25220688   3.343   0.527   0.550 -0.4750 -0.0706 -0.6955
   79MOL   C25320689   3.161   0.515   0.395 -0.0149 -0.4805  0.4345
   79MOL   C25420690   3.424   0.858   0.528 -0.0964  0.7724  0.5224
   79MOL   H25520691   3.541   0.681   0.459  0.7441 -0.7695 -1.6353
   79MOL   H25620692   3.293   0.729   0.323  1.7881  0.2679 -0.8954
   79MOL   H25720693   3.121   0.445   0.469 -2.1873  2.6658  2.3452
   79MOL   H25820694   3.086   0.589   0.369 -1.6337 -2.6043 -1.0541
   79MOL   H25920695   3.184   0.449   0.311  1.7524 -1.3548  1.5758
   79MOL   H26020696   3.395   0.809   0.621  2.1616 -1.1644  0.2594
   79MOL   H26120697   3.501   0.930   0.552  0.4473  0.1896  0.5408
   79MOL   H26220698   3.336   0.911   0.491 -0.3242  1.5006  2.1133
   80MOL     C120699   2.025   7.476   0.341  0.0895  1.1804  0.1831
   80MOL     N220700   2.044   7.608   0.395 -0.6056 -0.2312  0.1582
   80MOL     C320701   2.065   7.636   0.520  0.4665 -0.5883  0.1835
   80MOL     O420702   2.084   7.551   0.608  0.5226  0.1143 -0.1752
   80MOL     C520703   2.055   7.786   0.552 -0.1152 -0.0182  0.5857
   80MOL     C620704   2.141   7.435   0.250 -0.1853 -0.3311 -0.2400
   80MOL     H720705   2.007   7.406   0.422 -0.3535 -0.4330 -1.2823
   80MOL     H820706   2.041   7.685   0.329  0.1450  2.0807  2.7211
   80MOL     H920707   2.146   7.832   0.590  0.9790  0.7801 -2.8718
   80MOL    H1020708   2.031   0.009   0.466 -1.0437  1.0234  1.5798
   80MOL    H1120709   1.981   7.795   0.632  1.6911  0.4819  2.2215
   80MOL    H1220710   2.164   7.517   0.182 -2.3144  1.0488  0.6637
   80MOL    H1320711   2.233   7.422   0.307  0.6848  1.6259 -1.1792
   80MOL    H1420712   1.933   7.493   0.285 -0.2675 -2.2719 -0.3421
   80MOL    C1520713   2.101   7.310   0.159  0.0326  0.0205 -0.6386
   80MOL    N1620714   2.207   7.211   0.148  0.0916 -0.0597  0.3702
   80MOL    C1720715   2.232   7.126   0.247  0.4994  0.4899  0.0824
   80MOL    O1820716   2.176   7.130   0.360 -0.0592 -0.2315 -0.5615
   80MOL    C1920717   2.342   7.031   0.223  0.0207  0.1063  0.2238
   80MOL    C2020718   2.045   7.365   0.019 -0.1126  0.4173  0.5027
   80MOL    H2120719   2.019   7.255   0.205 -0.4808 -1.1400 -2.8811
   80MOL    H2220720   2.252   7.201   0.059 -1.5394 -1.4165 -0.3412
   80MOL    H2320721   2.438   7.080   0.239  0.0852 -0.0271  0.2483
   80MOL    H2420722   2.337   6.942   0.286 -1.2251  0.3818  0.5288
   80MOL    H2520723   2.358   7.003   0.119  1.4484  0.8724  0.2207
   80MOL    H2620724   1.948   7.413   0.034 -1.1343 -1.4022 -0.0578
   80MOL    H2720725   2.101   7.446   7.812 -3.0307  2.4670  0.3658
   80MOL    C2820726   2.023   7.265   7.743  0.4945  0.0536  0.3756
   80MOL    N2920727   2.142   7.203   7.687 -0.1264  0.4564 -0.2296
   80MOL    C3020728   2.149   7.089   7.623  0.3247 -0.0222 -0.8026
   80MOL    O3120729   2.052   7.016   7.600 -0.1452  0.1082 -0.0131
   80MOL    C3220730   2.280   7.032   7.589 -0.3600  0.5286 -0.6059
   80MOL    C3320731   1.946   7.344   7.636  0.0386 -0.3452  0.5393
   80MOL    H3420732   1.963   7.178   7.770  1.7130 -0.3354  1.9096
   80MOL    H3520733   2.214   7.266   7.655  0.0986 -0.3329 -1.3455
   80MOL    H3620734   2.331   7.022   7.685  0.0414 -1.6285 -1.0276
   80MOL    H3720735   2.263   6.933   7.547  1.7104  0.1807 -0.7175
   80MOL    H3820736   2.343   7.088   7.519  0.1559  1.2286  0.3993
   80MOL    H3920737   1.987   7.443   7.614  0.1014 -0.1925  1.3370
   80MOL    H4020738   1.968   7.288   7.545 -5.0136 -0.1261 -1.0075
   80MOL    C4120739   1.800   7.363   7.657  1.0356 -1.2043  0.1230
   80MOL    N4220740   1.743   7.248   7.731 -0.0437  0.4168  0.4733
   80MOL    C4320741   1.690   7.242   0.010 -0.6704 -0.0778 -0.0442
   80MOL    O4420742   1.690   7.339   0.082 -0.8272 -0.6155 -0.7202
   80MOL    C4520743   1.619   7.114   0.057 -0.4687  0.1480  0.2576
   80MOL    C4620744   1.721   7.387   7.520 -0.0363  0.0231 -0.1318
   80MOL    H4720745   1.800   7.448   7.725 -0.1245 -0.6495 -0.5503
   80MOL    H4820746   1.719   7.161   7.685  0.0613  0.6720 -0.0599
   80MOL    H4920747   1.519   7.111   0.015  0.7969  1.4950 -3.0308
   80MOL    H5020748   1.670   7.028   0.012 -0.7985  0.5782 -0.9638
   80MOL    H5120749   1.644   7.092   0.161  3.3153  0.3509 -0.5087
   80MOL    H5220750   1.769   7.459   7.455 -0.1620 -0.2925 -0.5727
   80MOL    H5320751   1.735   7.296   7.462  0.4733  0.0404 -0.0333
   80MOL    C5420752   1.567   7.421   7.529  0.4716  0.0423 -0.6049
   80MOL    N5520753   1.550   7.543   7.606  0.0442  0.6750  0.0424
   80MOL    C5620754   1.478   7.642   7.551 -0.5146  0.6031  0.3401
   80MOL    O5720755   1.449   7.646   7.432  0.4801 -0.5936 -0.0198
   80MOL    C5820756   1.438   7.749   7.646  0.3605 -0.1231 -0.3729
   80MOL    C5920757   1.461   7.313   7.563 -0.1029 -0.6737  0.4785
   80MOL    H6020758   1.553   7.444   7.423  0.6832  2.5609 -0.0973
   80MOL    H6120759   1.579   7.535   7.702  1.5372 -2.7770 -0.6251
   80MOL    H6220760   1.512   7.822   7.615 -0.1401  0.4912 -0.1423
   80MOL    H6320761   1.343   7.796   7.619  0.0921 -0.1855  0.4247
   80MOL    H6420762   1.464   7.733   7.751 -1.2002  1.3724  0.2785
   80MOL    H6520763   1.478   7.269   7.661 -0.0162  1.0094  1.2335
   80MOL    H6620764   1.366   7.366   7.570  0.2885  0.0668  0.2192
   80MOL    C6720765   1.440   7.207   7.457 -0.1604 -0.1536 -0.3485
   80MOL    N6820766   1.549   7.112   7.459 -0.5180  0.6790  0.7333
   80MOL    C6920767   1.557   7.017   7.554  0.4975 -0.1017  0.3842
   80MOL    O7020768   1.469   7.012   7.639 -0.4077  0.4045  0.0708
   80MOL    C7120769   1.673   6.922   7.553  0.2104 -0.8082 -0.1052
   80MOL    C7220770   1.407   7.252   7.305  0.6678  0.1656 -0.1612
   80MOL    H7320771   1.351   7.149   7.482 -0.8120  0.3876 -1.3774
   80MOL    H7420772   1.616   7.109   7.383  1.4197  2.2265  2.3169
   80MOL    H7520773   1.647   6.852   7.473  1.7413 -1.2913 -0.1863
   80MOL    H7620774   1.767   6.974   7.534 -0.2632 -0.4677 -1.6195
   80MOL    H7720775   1.687   6.849   7.632  4.0944 -1.4374 -1.2769
   80MOL    H7820776   1.497   7.270   7.247  1.8233  2.2549  2.1497
   80MOL    H7920777   1.364   7.166   7.254  0.1498  0.0518  0.4580
   80MOL    C8020778   1.295   7.363   7.283  0.2310  0.3542 -0.4616
   80MOL    N8120779   1.166   7.321   7.331 -0.0439  0.1265 -0.1818
   80MOL    C8220780   1.100   7.392   7.424 -0.5566  0.4766 -0.4219
   80MOL    O8320781   1.146   7.490   7.477 -0.5040  0.2971 -0.7192
   80MOL    C8420782   0.966   7.333   7.477 -0.3450  0.0791  0.6416
   80MOL    C8520783   1.273   7.400   7.139 -0.4349 -0.2508 -0.6074
   80MOL    H8620784   1.329   7.456   7.330  0.2229  0.5073 -0.7565
   80MOL    H8720785   1.108   7.247   7.292 -0.0402  0.3301 -0.5715
   80MOL    H8820786   0.886   7.347   7.404  1.0168  1.7761 -0.5693
   80MOL    H8920787   0.969   7.224   7.488 -0.8328 -0.1327 -1.2005
   80MOL    H9020788   0.926   7.375   7.569 -1.5253 -3.0519  1.6517
   80MOL    H9120789   1.231   7.311   7.094 -0.1791 -0.8061  0.2444
   80MOL    H9220790   1.187   7.467   7.131 -0.2626 -0.0931 -1.1485
   80MOL    C9320791   1.385   7.466   7.065 -0.3211 -0.6505  0.5298
   80MOL    N9420792   1.461   7.575   7.135 -0.4031  0.2714 -0.1039
   80MOL    C9520793   1.595   7.591   7.129 -0.1292 -0.4981 -1.2782
   80MOL    O9620794   1.677   7.513   7.076  0.2577 -0.5922 -0.5576
   80MOL    C9720795   1.653   7.727   7.180  0.2235  0.3149 -0.1232
   80MOL    C9820796   1.325   7.522   6.935 -0.8449 -0.0806  0.1629
   80MOL    H9920797   1.448   7.381   7.038 -0.9903 -0.9881 -0.0036
   80MOL   H10020798   1.408   7.629   7.201  0.0278  0.6212 -0.0418
   80MOL   H10120799   1.749   7.750   7.133  0.7706 -0.9615  0.3636
   80MOL   H10220800   1.598   7.819   7.160  2.1876  1.9710  1.8300
   80MOL   H10320801   1.675   7.717   7.286 -0.7237  2.0605  0.2544
   80MOL   H10420802   1.255   7.601   6.960  2.0798  2.1297  1.5402
   80MOL   H10520803   1.404   7.574   6.882  0.5282 -1.8112  0.4706
   80MOL   C10620804   1.246   7.433   6.834 -0.1186 -0.1546 -0.4477
   80MOL   N10720805   1.331   7.347   6.753 -0.2500  0.3389  0.0352
   80MOL   C10820806   1.294   7.223   6.708 -0.0085 -0.1588  0.4446
   80MOL   O10920807   1.197   7.163   6.752 -0.5318 -0.0151  0.1169
   80MOL   C11020808   1.393   7.161   6.614  0.2313  0.4693 -0.1253
   80MOL   C11120809   1.151   7.505   6.734  0.2953 -0.5043  0.8054
   80MOL   H11220810   1.184   7.365   6.891  2.3093 -1.0556  1.1988
   80MOL   H11320811   1.408   7.391   6.706 -0.0495  0.2506  0.2812
   80MOL   H11420812   1.433   7.226   6.536 -0.7683  0.6197 -0.5253
   80MOL   H11520813   1.486   7.139   6.665  0.4010 -1.2778 -1.1635
   80MOL   H11620814   1.357   7.070   6.566  1.4320  0.1693 -0.4489
   80MOL   H11720815   1.082   7.436   6.685  0.2446  0.7519 -0.9674
   80MOL   H11820816   1.084   7.571   6.789 -0.5872 -0.8015  0.0988
   80MOL   C11920817   1.206   7.592   6.616  0.1446  0.1088  0.3286
   80MOL   N12020818   1.102   7.689   6.570 -0.2465  0.4191 -0.1546
   80MOL   C12120819   1.073   7.799   6.639 -0.4052  0.8768 -0.3423
   80MOL   O12220820   1.140   7.837   6.733 -0.1045 -0.3682 -0.3980
   80MOL   C12320821   0.951   0.044   6.604 -0.0565 -0.7615 -0.5166
   80MOL   C12420822   1.249   7.498   6.498  0.8360 -0.1519  0.2875
   80MOL   H12520823   1.297   7.641   6.652  0.0432 -0.2255  1.0552
   80MOL   H12620824   1.051   7.679   6.483  0.7815  1.3418 -0.8766
   80MOL   H12720825   0.964   0.135   6.662 -0.7136 -1.8092  1.3016
   80MOL   H12820826   0.941   0.071   6.498 -0.2090  1.4720  0.0458
   80MOL   H12920827   0.858   0.000   6.640  0.4723  0.0967  1.9283
   80MOL   H13020828   1.344   7.449   6.519  0.9236 -0.2691 -0.3709
   80MOL   H13120829   1.184   7.411   6.497  0.5027  0.1051 -1.7853
   80MOL   C13220830   1.260   7.545   6.353 -1.0440  0.2001 -0.2983
   80MOL   N13320831   1.270   7.430   6.256 -0.3144 -0.7147  0.4032
   80MOL   C13420832   1.167   7.372   6.184 -0.1543 -0.4596 -0.0166
   80MOL   O13520833   1.052   7.418   6.186  0.1666 -0.2450  0.1868
   80MOL   C13620834   1.192   7.254   6.091 -0.4200  0.2584 -0.0933
   80MOL   C13720835   1.379   7.635   6.323  0.3490  0.1590  0.0276
   80MOL   H13820836   1.175   7.606   6.323 -2.1222 -0.1056  2.0141
   80MOL   H13920837   1.362   7.400   6.228 -0.3989 -0.7401  0.1492
   80MOL   H14020838   1.264   7.278   6.013 -1.7216  2.3648 -0.7043
   80MOL   H14120839   1.230   7.169   6.146 -0.6065 -0.4153 -0.9876
   80MOL   H14220840   1.093   7.239   6.046 -1.1004 -1.2027  1.8355
   80MOL   H14320841   1.381   7.655   6.216 -0.0478  1.1841  0.2077
   80MOL   H14420842   1.360   7.731   6.371 -2.3172 -0.8115  1.0288
   80MOL   C14520843   1.523   7.584   6.369 -0.3799 -0.4517 -0.1419
   80MOL   N14620844   1.567   7.657   6.494  0.0951  0.1459  0.5631
   80MOL   C14720845   1.574   7.602   6.615  0.4450  0.6955 -0.0505
   80MOL   O14820846   1.534   7.491   6.647 -0.0656  0.0015  0.2769
   80MOL   C14920847   1.627   7.688   6.726 -0.3223  0.4222 -1.0073
   80MOL   C15020848   1.626   7.610   6.255  0.4393 -0.1428  0.3931
   80MOL   H15120849   1.507   7.478   6.386  1.2443 -0.5068  1.2201
   80MOL   H15220850   1.600   7.752   6.484  0.6446 -0.2141 -1.2616
   80MOL   H15320851   1.687   7.768   6.683 -1.0445  0.2118 -2.4309
   80MOL   H15420852   1.548   7.734   6.786  0.1060 -0.2990  0.1297
   80MOL   H15520853   1.681   7.623   6.796 -2.5853 -1.0663 -0.5705
   80MOL   H15620854   1.633   7.713   6.219 -0.6120  0.1916  1.1316
   80MOL   H15720855   1.726   7.590   6.294 -0.3669 -0.5737  2.2942
   80MOL   C15820856   1.602   7.511   6.141  0.5147  0.2172 -0.2338
   80MOL   N15920857   1.669   7.387   6.163  0.6701 -0.4719 -0.1253
   80MOL   C16020858   1.607   7.267   6.179  0.0042  0.5377  0.6300
   80MOL   O16120859   1.488   7.256   6.203  0.2376  0.0673 -0.0958
   80MOL   C16220860   1.694   7.144   6.161  0.3327  0.0346 -0.0786
   80MOL   C16320861   1.648   7.572   6.002 -0.2890  0.5875 -0.3920
   80MOL   H16420862   1.495   7.500   6.125  0.4260  1.3501 -0.5064
   80MOL   H16520863   1.768   7.388   6.146  0.2745 -0.3521 -2.5871
   80MOL   H16620864   1.674   7.099   6.064  1.9314 -2.9585  0.8901
   80MOL   H16720865   1.794   7.186   6.150 -0.2677  1.6339  0.4249
   80MOL   H16820866   1.681   7.076   6.245  0.4235  0.1087 -0.0052
   80MOL   H16920867   1.574   7.536   5.931  1.1758 -0.0693 -1.6267
   80MOL   H17020868   1.633   7.680   6.006  0.5998  0.6777  1.2161
   80MOL   C17120869   1.794   7.536   5.955  0.7491 -0.1767 -0.3327
   80MOL   N17220870   1.889   7.611   6.038 -0.5745  0.4575  0.3089
   80MOL   C17320871   1.965   7.566   6.136  0.9745 -0.0888 -0.2418
   80MOL   O17420872   1.963   7.449   6.175 -0.3982 -0.1372 -0.3768
   80MOL   C17520873   2.054   7.664   6.216  0.2318  0.1523  0.8003
   80MOL   C17620874   1.819   7.564   5.809 -0.0223 -0.5012  0.5250
   80MOL   H17720875   1.822   7.430   5.959  2.9868  0.4329  0.8942
   80MOL   H17820876   1.885   7.711   6.023 -1.6969  0.3616 -0.0904
   80MOL   H17920877   2.001   7.739   6.274 -1.3648  0.8722 -1.5369
   80MOL   H18020878   2.129   7.607   6.272  0.7268 -0.1924 -0.1949
   80MOL   H18120879   2.113   7.719   6.143 -1.2116 -0.0323 -0.5378
   80MOL   H18220880   1.798   7.670   5.793  1.7560 -0.2827 -0.4951
   80MOL   H18320881   1.923   7.552   5.780 -0.3791  1.8326 -1.8658
   80MOL   C18420882   1.718   7.492   5.707  0.2465 -0.0830  0.0620
   80MOL   N18520883   1.792   7.411   5.613  0.4312 -0.2063  0.1887
   80MOL   C18620884   1.824   7.284   5.622 -1.0978  0.0388 -0.4091
   80MOL   O18720885   1.763   7.206   5.689 -0.2850  0.3557 -0.2644
   80MOL   C18820886   1.952   7.236   5.552 -0.5838 -0.3195  0.8740
   80MOL   C18920887   1.629   7.587   5.630  0.0879 -0.1772  0.8197
   80MOL   H19020888   1.649   7.433   5.767  0.6247  1.1501  1.7481
   80MOL   H19120889   1.849   7.468   5.553 -0.0418 -0.1253 -0.1895
   80MOL   H19220890   1.990   7.319   5.492  2.1731 -1.2783  1.2021
   80MOL   H19320891   2.026   7.219   5.630 -1.0846 -3.8033  0.6450
   80MOL   H19420892   1.931   7.148   5.492  0.1118 -1.0398  1.6616
   80MOL   H19520893   1.597   7.659   5.706 -2.2088  1.5304 -1.6577
   80MOL   H19620894   1.687   7.643   5.556 -1.7195  1.1460  0.3738
   80MOL   C19720895   1.504   7.527   5.566  0.1007  0.2616  0.3431
   80MOL   N19820896   1.527   7.422   5.463  0.0609  0.1851 -0.1738
   80MOL   C19920897   1.428   7.346   5.412 -0.2158  0.4089  0.1231
   80MOL   O20020898   1.311   7.383   5.413 -0.7257 -0.4898 -0.0826
   80MOL   C20120899   1.461   7.210   5.358 -0.2624  0.0666 -0.0364
   80MOL   C20220900   1.423   7.651   5.514  0.3496 -0.4538  0.1344
   80MOL   H20320901   1.448   7.475   5.645 -0.5445 -0.7576 -0.7590
   80MOL   H20420902   1.612   7.369   5.470  0.6247  1.1397  0.3981
   80MOL   H20520903   1.481   7.138   5.437  0.3327 -0.3148 -0.5384
   80MOL   H20620904   1.385   7.174   5.288  0.3248  0.8527 -1.0890
   80MOL   H20720905   1.552   7.215   5.299  0.2498  2.5592  0.8800
   80MOL   H20820906   1.316   7.632   5.505  0.2714 -1.1769  2.1940
   80MOL   H20920907   1.424   7.718   5.600 -2.4565 -0.4296  0.1800
   80MOL   C21020908   1.481   7.738   5.398  0.2507  0.3134  0.4153
   80MOL   N21120909   1.392   0.014   5.388  0.2914 -0.7312  0.1341
   80MOL   C21220910   1.394   0.124   5.465 -0.2664 -0.4071 -0.1038
   80MOL   O21320911   1.481   0.151   5.544 -0.6966  0.0830 -0.9434
   80MOL   C21420912   1.289   0.228   5.446  0.2581 -0.9901  0.2771
   80MOL   C21520913   1.469   7.671   5.256  0.1097  0.7572 -0.0840
   80MOL   H21620914   1.585   7.759   5.423 -0.1455  0.6799  1.7771
   80MOL   H21720915   1.317   7.835   5.324 -0.5037 -1.9334  1.3755
   80MOL   H21820916   1.216   0.228   5.527 -1.5065  0.9939 -1.2823
   80MOL   H21920917   1.338   0.325   5.442 -2.5168  0.6016  2.7940
   80MOL   H22020918   1.238   0.203   5.353  1.8617  0.0615 -0.8990
   80MOL   H22120919   1.521   7.576   5.248  0.3932  1.0551 -1.9288
   80MOL   H22220920   1.365   7.639   5.246 -0.5566  2.7847  0.1669
   80MOL   C22320921   1.510   7.748   5.131  0.8146 -0.3761  0.5694
   80MOL   N22420922   1.442   7.684   5.014 -0.3807 -0.0415 -0.8683
   80MOL   C22520923   1.382   7.745   4.912 -0.0627  0.1874  0.2847
   80MOL   O22620924   1.356   0.025   4.903 -0.3617  0.4977  0.1948
   80MOL   C22720925   1.327   7.664   4.794 -0.1320  0.2618 -0.8466
   80MOL   C22820926   1.662   7.752   5.109  0.1585 -0.4642  1.1648
   80MOL   H22920927   1.470   0.010   5.135  0.9895 -0.3405  1.5042
   80MOL   H23020928   1.453   7.584   5.004 -0.8676 -0.3656  1.4060
   80MOL   H23120929   1.254   7.726   4.742 -1.1617  0.3014  0.6179
   80MOL   H23220930   1.408   7.627   4.731  1.9062  4.1580 -0.6783
   80MOL   H23320931   1.273   7.584   4.843  0.4329  1.0718  1.1818
   80MOL   H23420932   1.693   7.648   5.111 -2.1143 -1.1876  0.2827
   80MOL   H23520933   1.682   7.778   5.005 -0.1638  0.2846  1.2828
   80MOL   C23620934   1.747   0.004   5.205 -0.4238 -0.2867  0.6025
   80MOL   N23720935   1.689   0.138   5.211 -0.4234 -0.2810 -0.0554
   80MOL   C23820936   1.748   0.243   5.274 -1.0051 -0.1356  0.0580
   80MOL   O23920937   1.866   0.237   5.321 -0.4018 -0.0802 -0.4757
   80MOL   C24020938   1.660   0.359   5.311  0.6517  0.3502 -0.1515
   80MOL   C24120939   1.884   7.833   5.137  0.8518  0.1008  0.0888
   80MOL   H24220940   1.747   7.810   5.309 -1.1464 -0.7418  0.4602
   80MOL   H24320941   1.604   0.147   5.158 -0.4935  0.3564  0.1610
   80MOL   H24420942   1.717   0.451   5.297  0.2650  0.8077  1.1872
   80MOL   H24520943   1.575   0.376   5.245  0.7612  2.6316  0.2730
   80MOL   H24620944   1.637   0.347   5.417  1.7103 -0.6098 -0.0181
   80MOL   H24720945   1.872   0.006   5.029 -2.8253 -3.7226 -0.0969
   80MOL   H24820946   1.944   0.079   5.166 -0.2207  0.7478  0.4161
   80MOL   C24920947   1.970   7.710   5.166 -1.0533 -0.9666  0.5691
   80MOL   N25020948   2.032   7.721   5.300  0.5036  0.1588 -0.7781
   80MOL   C25120949   1.990   7.663   5.407  0.2626 -0.2277  0.1702
   80MOL   O25220950   1.875   7.614   5.412  0.0305  0.3617  0.3174
   80MOL   C25320951   2.078   7.653   5.522  0.4984 -0.0766 -0.5604
   80MOL   C25420952   2.089   7.688   5.067 -0.1784  0.4981 -0.5377
   80MOL   H25520953   1.911   7.619   5.159 -1.4805 -0.7606  1.5126
   80MOL   H25620954   2.114   7.779   5.310  0.8481 -0.1502 -1.8126
   80MOL   H25720955   2.034   7.631   5.619 -0.1350  1.6325 -0.4359
   80MOL   H25820956   2.155   7.583   5.492 -0.3639  0.4238 -4.1660
   80MOL   H25920957   2.125   7.751   5.524  0.5891 -0.1441  0.6058
   80MOL   H26020958   2.058   7.665   4.965  0.4508 -1.0194 -0.4011
   80MOL   H26120959   2.153   7.776   5.068  1.2739 -0.5147  2.3569
   80MOL   H26220960   2.151   7.607   5.105  2.5688  3.4829  1.6437
   81MOL     C120961   5.623   1.675   6.682 -0.5131  0.7444  0.7236
   81MOL     N220962   5.756   1.654   6.736  0.5171 -0.2501  0.0225
   81MOL     C320963   5.832   1.724   6.819 -0.3563 -0.1875 -0.8198
   81MOL     O420964   5.796   1.831   6.879 -0.0909 -0.1368 -0.6192
   81MOL     C520965   5.980   1.685   6.838 -0.3105  0.6499 -0.0548
   81MOL     C620966   5.523   1.710   6.795 -0.2640 -0.3653 -0.2872
   81MOL     H720967   5.620   1.734   6.590 -2.5110 -0.2117  0.1410
   81MOL     H820968   5.791   1.568   6.697  0.9688  0.1137 -0.3763
   81MOL     H920969   5.999   1.586   6.797  0.9590  0.8501  0.0472
   81MOL    H1020970   6.051   1.746   6.783  0.7324 -0.0033  0.5464
   81MOL    H1120971   6.012   1.683   6.942  1.0194  0.2588 -0.4728
   81MOL    H1220972   5.558   1.652   6.881 -0.0846  0.1782  0.0090
   81MOL    H1320973   5.548   1.808   6.834 -0.6481  0.0864 -1.1846
   81MOL    H1420974   5.591   1.579   6.643  1.4376  1.3183 -2.4666
   81MOL    C1520975   5.371   1.697   6.773  0.0177 -0.3714  0.3515
   81MOL    N1620976   5.320   1.809   6.693  1.0905  1.0195  0.4310
   81MOL    C1720977   5.258   1.804   6.571 -0.7456 -0.0899  0.5885
   81MOL    O1820978   5.187   1.893   6.525 -0.2352 -0.3762 -0.3668
   81MOL    C1920979   5.296   1.687   6.475 -0.0895  0.4335 -0.4258
   81MOL    C2020980   5.288   1.687   6.907  0.4143  0.1885 -0.2516
   81MOL    H2120981   5.376   1.604   6.717 -0.3644  0.5812 -1.2923
   81MOL    H2220982   5.324   1.904   6.727 -0.6560  1.3197 -0.1732
   81MOL    H2320983   5.259   1.713   6.376  0.5166  1.9580 -0.2779
   81MOL    H2420984   5.403   1.695   6.452  0.3952  0.4500  1.7349
   81MOL    H2520985   5.260   1.589   6.504 -1.0744  0.1370 -2.5666
   81MOL    H2620986   5.321   1.604   6.969 -1.7791 -0.7689 -0.3083
   81MOL    H2720987   5.308   1.775   6.969  1.6331 -0.1918 -0.0931
   81MOL    C2820988   5.138   1.655   6.892 -0.8104  0.3070 -0.0966
   81MOL    N2920989   5.067   1.634   7.015  0.3523 -0.0567  0.7357
   81MOL    C3020990   5.069   1.529   7.096  0.0573  0.3902 -0.2455
   81MOL    O3120991   5.138   1.425   7.071  0.1468  0.0114 -0.2023
   81MOL    C3220992   5.000   1.539   7.231 -0.4295  0.1768  0.0911
   81MOL    C3320993   5.104   1.541   6.796 -0.4430 -0.0270  0.4543
   81MOL    H3420994   5.092   1.745   6.851 -1.4238 -0.1424 -0.3912
   81MOL    H3520995   5.033   1.720   7.056  3.8297  0.8319  1.8516
   81MOL    H3620996   4.893   1.558   7.229 -0.7977 -1.9164 -2.5389
   81MOL    H3720997   5.023   1.459   7.302  0.8338  1.7442  1.5149
   81MOL    H3820998   5.038   1.623   7.290 -1.4143 -1.3148  2.9529
   81MOL    H3920999   5.143   1.550   6.695  1.3181 -2.7742  0.8013
   81MOL    H4021000   5.153   1.451   6.834 -0.4704  0.4965  1.7633
   81MOL    C4121001   4.946   1.499   6.791  0.0866  0.0253 -0.8284
   81MOL    N4221002   4.929   1.412   6.674 -0.3290 -0.1252  0.1662
   81MOL    C4321003   4.831   1.348   6.615 -0.5762 -1.1308  0.1672
   81MOL    O4421004   4.708   1.359   6.649 -0.4944 -0.3310 -0.3773
   81MOL    C4521005   4.858   1.262   6.490 -0.9567 -0.2570  0.1335
   81MOL    C4621006   4.839   1.616   6.784 -0.1754  0.4184 -0.1181
   81MOL    H4721007   4.924   1.446   6.884 -2.3139 -0.7405 -1.7791
   81MOL    H4821008   5.016   1.385   6.630  0.7709  1.3963  1.3598
   81MOL    H4921009   4.946   1.295   6.434 -0.4007  0.1950  1.2444
   81MOL    H5021010   4.874   1.166   6.540  1.1313 -0.2334 -0.4129
   81MOL    H5121011   4.774   1.264   6.421 -0.6840 -1.3568 -0.2381
   81MOL    H5221012   4.891   1.712   6.778 -0.9511  0.9485  1.3660
   81MOL    H5321013   4.784   1.604   6.691  1.5464  1.9590 -1.3853
   81MOL    C5421014   4.740   1.608   6.908 -0.5585 -0.2434 -0.3243
   81MOL    N5521015   4.660   1.487   6.889  0.3258  0.3712 -0.1497
   81MOL    C5621016   4.594   1.416   6.983  0.0314  0.1149 -0.1994
   81MOL    O5721017   4.570   1.466   7.098  0.4464  0.5669  0.0031
   81MOL    C5821018   4.536   1.287   6.929  0.0859 -0.1728 -0.1778
   81MOL    C5921019   4.634   1.716   6.906 -0.0139  0.5253  0.0672
   81MOL    H6021020   4.788   1.615   7.005 -1.1449 -1.6442  0.0684
   81MOL    H6121021   4.663   1.449   6.796 -1.6411  1.7574 -0.7939
   81MOL    H6221022   4.428   1.291   6.935  0.3159  2.4256  5.1094
   81MOL    H6321023   4.578   1.275   6.829 -0.0489  0.1194 -0.2663
   81MOL    H6421024   4.549   1.199   6.993  0.0843  0.7942  1.1872
   81MOL    H6521025   4.589   1.718   6.806 -0.7183  0.8546  0.3876
   81MOL    H6621026   4.550   1.698   6.973  0.3085 -0.4921  0.2095
   81MOL    C6721027   4.680   1.863   6.925 -0.4876  0.9538  0.0884
   81MOL    N6821028   4.697   1.899   7.069  0.3967  0.3985  0.2697
   81MOL    C6921029   4.804   1.867   7.150  0.6297  0.6283 -0.5650
   81MOL    O7021030   4.911   1.838   7.104  0.1732 -0.3120 -0.0636
   81MOL    C7121031   4.794   1.877   7.301  0.0699 -0.7468 -0.1902
   81MOL    C7221032   4.584   1.966   6.855 -0.0594  0.1900  0.5944
   81MOL    H7321033   4.781   1.871   6.886 -0.5250  3.1753  0.3888
   81MOL    H7421034   4.611   1.937   7.105 -1.8031 -2.7804 -1.4062
   81MOL    H7521035   4.886   1.852   7.353  0.2633  0.2403 -0.0493
   81MOL    H7621036   4.796   1.985   7.312 -0.0714 -0.7305 -0.3158
   81MOL    H7721037   4.702   1.838   7.345 -0.1603 -0.8182 -0.7250
   81MOL    H7821038   4.508   1.923   6.790  0.7560  1.3734 -1.1737
   81MOL    H7921039   4.529   2.025   6.928 -0.9607 -0.7958  0.7191
   81MOL    C8021040   4.664   2.070   6.772 -0.0209  0.7137 -0.4387
   81MOL    N8121041   4.570   2.170   6.726  0.0178  0.3293 -0.4669
   81MOL    C8221042   4.459   2.147   6.651 -0.4073 -0.2739 -0.4200
   81MOL    O8321043   4.423   2.039   6.594 -0.3030 -0.4733  0.6180
   81MOL    C8421044   4.372   2.268   6.646 -0.2781  0.6404  0.0349
   81MOL    C8521045   4.740   2.013   6.656 -0.1852 -0.4335  0.0376
   81MOL    H8621046   4.727   2.124   6.842  0.1393 -0.3805  0.2678
   81MOL    H8721047   4.582   2.259   6.772 -3.3279  0.7586 -0.3151
   81MOL    H8821048   4.347   2.295   6.749 -0.4406 -1.6339  0.6071
   81MOL    H8921049   4.432   2.347   6.601 -0.5203 -0.4457 -2.2244
   81MOL    H9021050   4.284   2.259   6.583 -0.1664  1.2856 -0.2172
   81MOL    H9121051   4.769   1.913   6.687  0.5365 -0.9447 -2.2330
   81MOL    H9221052   4.680   1.973   6.575 -1.2495  0.3494  0.4374
   81MOL    C9321053   4.871   2.088   6.614 -0.2777 -0.4905  0.0713
   81MOL    N9421054   4.926   2.017   6.502  0.2946 -0.0918  0.4696
   81MOL    C9521055   4.893   2.038   6.375  0.3269 -0.5034  0.0827
   81MOL    O9621056   4.791   2.096   6.339  0.4079  0.0003  0.5869
   81MOL    C9721057   4.973   1.986   6.265 -0.4754 -0.8372 -0.7260
   81MOL    C9821058   4.968   2.091   6.732 -0.6315  0.4882  0.0916
   81MOL    H9921059   4.828   2.183   6.584  0.2345 -0.2840  0.0047
   81MOL   H10021060   5.015   1.971   6.507 -0.1140 -1.0565 -0.6999
   81MOL   H10121061   4.917   1.982   6.172 -0.5068  2.5817 -0.9265
   81MOL   H10221062   5.061   2.051   6.255 -1.3090  0.1343 -1.8752
   81MOL   H10321063   5.005   1.885   6.293  2.8956 -0.2472 -2.1561
   81MOL   H10421064   4.919   2.066   6.827 -0.5700 -0.1987 -0.0508
   81MOL   H10521065   5.044   2.014   6.717 -1.8440 -0.3442 -2.0576
   81MOL   C10621066   5.029   2.226   6.770 -0.5290  0.5611  0.5195
   81MOL   N10721067   5.123   2.198   6.875  0.0443 -0.4473 -0.4350
   81MOL   C10821068   5.237   2.133   6.870 -0.1116  1.0020  1.0564
   81MOL   O10921069   5.287   2.090   6.768 -0.4486  0.1474 -0.1202
   81MOL   C11021070   5.308   2.112   7.002  0.0479  0.1532 -0.0372
   81MOL   C11121071   4.926   2.334   6.811 -0.3178  0.5460 -0.0946
   81MOL   H11221072   5.080   2.265   6.683 -0.8572 -0.1949 -0.0210
   81MOL   H11321073   5.096   2.220   6.970 -0.0295 -1.7913 -0.1339
   81MOL   H11421074   5.243   2.124   7.089 -1.1633  1.0303 -1.0518
   81MOL   H11521075   5.352   2.012   7.012  0.7921  0.8447  4.7503
   81MOL   H11621076   5.391   2.182   6.996  1.1061 -1.1951 -1.6302
   81MOL   H11721077   4.851   2.342   6.733 -0.2897  2.9271  0.0689
   81MOL   H11821078   4.871   2.302   6.899  0.1490  0.5563  0.2082
   81MOL   C11921079   4.983   2.476   6.847 -0.9072 -0.1260  0.8880
   81MOL   N12021080   4.878   2.578   6.870 -0.2687 -0.5880  0.6130
   81MOL   C12121081   4.874   2.676   6.964 -0.2423  0.8165  0.3602
   81MOL   O12221082   4.959   2.692   7.057  0.6047 -0.3232  0.7372
   81MOL   C12321083   4.760   2.772   6.944 -0.1933 -0.1368 -0.6576
   81MOL   C12421084   5.077   2.537   6.738  0.2604 -0.1682 -0.1147
   81MOL   H12521085   5.044   2.468   6.937 -0.3769  0.1426  0.5555
   81MOL   H12621086   4.803   2.576   6.802 -0.5041 -2.0099  0.8937
   81MOL   H12721087   4.769   2.820   6.847  1.4719 -1.9021 -1.4166
   81MOL   H12821088   4.668   2.713   6.949 -0.4326  0.3475  0.9000
   81MOL   H12921089   4.765   2.847   7.022 -0.1709 -0.7320 -0.0851
   81MOL   H13021090   5.125   2.617   6.795 -1.4468 -0.7538  2.1991
   81MOL   H13121091   5.161   2.470   6.718  0.5957  0.0137  0.6440
   81MOL   C13221092   5.028   2.609   6.609  0.1490 -0.4549  0.9428
   81MOL   N13321093   4.944   2.521   6.525 -0.3127  0.6650 -0.4724
   81MOL   C13421094   4.808   2.527   6.523  0.1639 -0.0226  0.2396
   81MOL   O13521095   4.731   2.595   6.601 -0.4069  0.2893 -0.2303
   81MOL   C13621096   4.741   2.443   6.417  0.3459  0.6414 -0.0495
   81MOL   C13721097   5.148   2.658   6.533  0.5180  0.5947 -0.7682
   81MOL   H13821098   4.971   2.699   6.635  0.3921 -0.3444  1.0923
   81MOL   H13921099   4.981   2.445   6.470  1.5585  2.0840 -1.2355
   81MOL   H14021100   4.694   2.509   6.343  0.8947  1.5151  0.3794
   81MOL   H14121101   4.816   2.387   6.362 -1.2331 -0.2250 -1.3793
   81MOL   H14221102   4.660   2.383   6.457 -0.8725  0.8701 -2.0796
   81MOL   H14321103   5.229   2.587   6.519 -0.2927 -1.0937  2.6264
   81MOL   H14421104   5.100   2.679   6.438 -0.6492 -0.0360 -0.3330
   81MOL   C14521105   5.216   2.791   6.577  0.4354  0.4246  0.6003
   81MOL   N14621106   5.117   2.896   6.564  0.3967 -0.0620  0.0608
   81MOL   C14721107   5.051   2.942   6.671  0.2246  0.5379  0.2201
   81MOL   O14821108   5.080   2.916   6.787 -0.2249 -0.3521 -0.3898
   81MOL   C14921109   4.931   3.036   6.650 -0.1022  0.4820  0.2150
   81MOL   C15021110   5.345   2.823   6.498 -0.2001 -0.1637 -1.0059
   81MOL   H15121111   5.250   2.775   6.680  0.5849 -2.2196  0.1883
   81MOL   H15221112   5.097   2.940   6.476 -1.4669  0.4057  0.6931
   81MOL   H15321113   4.916   3.101   6.736  0.2453 -0.2547  0.8424
   81MOL   H15421114   4.955   3.097   6.564 -1.4829  0.8261  0.0599
   81MOL   H15521115   4.837   2.982   6.637  1.7446 -2.8396  0.0212
   81MOL   H15621116   5.366   2.928   6.521 -0.9034  0.3850 -2.7475
   81MOL   H15721117   5.425   2.760   6.535  0.1081  0.7529 -0.0791
   81MOL   C15821118   5.342   2.811   6.349 -0.2448 -0.2199  0.4428
   81MOL   N15921119   5.478   2.834   6.297 -0.3601 -0.0783  0.0859
   81MOL   C16021120   5.559   2.749   6.244  1.0439 -0.2620  0.4000
   81MOL   O16121121   5.552   2.625   6.258  0.1119 -0.1718  0.4808
   81MOL   C16221122   5.659   2.813   6.151 -0.0924 -0.1718  0.2132
   81MOL   C16321123   5.247   2.901   6.273  0.0829  0.6943 -0.7147
   81MOL   H16421124   5.327   2.704   6.334 -1.4601  0.1481 -1.0148
   81MOL   H16521125   5.505   2.931   6.287 -1.7034  0.3507  0.4671
   81MOL   H16621126   5.706   2.729   6.101 -1.0507  0.9070 -2.5982
   81MOL   H16721127   5.595   2.865   6.079 -2.5734 -1.2497  1.5869
   81MOL   H16821128   5.729   2.885   6.194 -2.0218 -0.2136  3.6037
   81MOL   H16921129   5.146   2.896   6.313  1.2367 -1.8829  2.0169
   81MOL   H17021130   5.281   3.005   6.278  1.4730  0.2663 -0.8892
   81MOL   C17121131   5.221   2.849   6.133  0.1795  0.2210 -0.3162
   81MOL   N17221132   5.153   2.953   6.060  0.1316 -0.3995  0.0199
   81MOL   C17321133   5.217   3.033   5.964  0.0755 -0.0464 -0.2159
   81MOL   O17421134   5.330   3.015   5.917  0.3367  0.5729 -0.3994
   81MOL   C17521135   5.134   3.154   5.929 -0.5436 -0.4637 -0.4940
   81MOL   C17621136   5.148   2.710   6.130  0.1444 -0.1935  0.1336
   81MOL   H17721137   5.318   2.839   6.086 -0.1690 -0.1778 -0.9436
   81MOL   H17821138   5.060   2.974   6.093 -0.3371 -0.7539 -1.0481
   81MOL   H17921139   5.174   3.204   5.840 -1.4242  0.4059 -0.3943
   81MOL   H18021140   5.026   3.152   5.921 -0.6596  1.0016  0.6668
   81MOL   H18121141   5.137   3.213   6.020 -1.1099  0.9418 -1.3727
   81MOL   H18221142   5.177   2.638   6.207  2.0970  0.1124 -0.2759
   81MOL   H18321143   5.043   2.733   6.144  0.3313  1.5016 -1.0968
   81MOL   C18421144   5.158   2.637   5.993  0.2833  0.2704  0.2741
   81MOL   N18521145   5.064   2.518   5.991 -0.1354  0.0464  0.0027
   81MOL   C18621146   4.991   2.456   6.083  0.1613 -0.5351 -0.9844
   81MOL   O18721147   4.977   2.489   6.204 -0.0489  0.0482  0.1315
   81MOL   C18821148   4.935   2.318   6.047  0.1718 -0.0010  0.0044
   81MOL   C18921149   5.303   2.595   5.962 -0.1905 -0.5249  0.6584
   81MOL   H19021150   5.122   2.696   5.909 -0.8731  0.6868  1.0459
   81MOL   H19121151   5.052   2.475   5.900 -0.6320 -2.5321  1.2416
   81MOL   H19221152   4.971   2.234   6.106  2.7410  0.0759 -1.3857
   81MOL   H19321153   4.827   2.318   6.065  0.3017 -0.4229  0.8288
   81MOL   H19421154   4.936   2.305   5.939  2.4721 -0.7461  0.0924
   81MOL   H19521155   5.314   2.633   5.860 -1.8089  1.3829  1.1554
   81MOL   H19621156   5.376   2.659   6.012  0.6858  0.2712 -1.5796
   81MOL   C19721157   5.334   2.442   5.974 -0.1120  0.1087 -0.0219
   81MOL   N19821158   5.382   2.417   6.110  0.4658 -0.8393  0.0825
   81MOL   C19921159   5.347   2.302   6.175  0.1189  0.0501 -0.0057
   81MOL   O20021160   5.265   2.222   6.138 -0.3759  0.1915  0.0237
   81MOL   C20121161   5.420   2.274   6.304 -0.3020  0.2805  0.2872
   81MOL   C20221162   5.453   2.402   5.881 -0.8232 -0.5304  0.4632
   81MOL   H20321163   5.247   2.380   5.954 -0.2873  0.2298  0.3836
   81MOL   H20421164   5.454   2.473   6.152  0.3277 -0.1254 -0.6259
   81MOL   H20521165   5.351   2.279   6.389 -2.6123  2.0942 -1.5935
   81MOL   H20621166   5.455   2.173   6.283 -1.7716 -0.4230  1.1109
   81MOL   H20721167   5.509   2.336   6.314  1.0064 -1.7525  1.3992
   81MOL   H20821168   5.534   2.472   5.896 -0.0463 -1.5353  0.9821
   81MOL   H20921169   5.485   2.301   5.907 -0.5645 -0.0527  2.0861
   81MOL   C21021170   5.410   2.410   5.732  0.6523  0.6720 -0.3435
   81MOL   N21121171   5.305   2.314   5.712 -0.3720  0.8576 -0.4174
   81MOL   C21221172   5.175   2.333   5.690  0.3513  0.7984 -0.4687
   81MOL   O21321173   5.128   2.440   5.647  0.3290 -0.0216 -0.5213
   81MOL   C21421174   5.081   2.210   5.697 -0.3851 -0.2582  0.7792
   81MOL   C21521175   5.527   2.359   5.636  0.3881  0.4255 -0.4943
   81MOL   H21621176   5.375   2.505   5.693  1.0040 -0.6815 -4.1316
   81MOL   H21721177   5.332   2.217   5.718 -1.8584  0.3813 -0.9632
   81MOL   H21821178   4.981   2.239   5.728 -0.2112  0.6468  0.5021
   81MOL   H21921179   5.073   2.180   5.592  2.5390 -1.7926  0.9581
   81MOL   H22021180   5.126   2.121   5.741  0.5717  0.5391  1.4252
   81MOL   H22121181   5.618   2.401   5.679  0.8362 -0.0060 -1.0152
   81MOL   H22221182   5.536   2.250   5.642 -0.0389  0.3520 -1.1409
   81MOL   C22321183   5.499   2.383   5.487  0.6056 -1.3073 -0.4484
   81MOL   N22421184   5.613   2.330   5.413 -0.5771  0.2265  0.2370
   81MOL   C22521185   5.609   2.281   5.288  0.5440  0.4205  0.4198
   81MOL   O22621186   5.502   2.270   5.227 -0.1582 -0.0347  0.2989
   81MOL   C22721187   5.742   2.251   5.224 -0.0066 -0.9709  0.3320
   81MOL   C22821188   5.455   2.527   5.446 -0.2980  0.6027  0.3304
   81MOL   H22921189   5.415   2.321   5.456 -1.9369  1.4840  0.5116
   81MOL   H23021190   5.706   2.330   5.454 -0.9014 -1.3125  1.0056
   81MOL   H23121191   5.751   2.214   5.122  0.0438  0.8991 -0.3551
   81MOL   H23221192   5.796   2.345   5.233 -1.7888  0.1177 -0.2953
   81MOL   H23321193   5.799   2.191   5.295 -2.5776 -1.2703  2.1945
   81MOL   H23421194   5.438   2.524   5.338 -3.6572  0.5836  0.8093
   81MOL   H23521195   5.356   2.550   5.486 -0.1165  0.9594  0.5717
   81MOL   C23621196   5.563   2.644   5.455 -0.1069 -0.1337 -0.2430
   81MOL   N23721197   5.543   2.728   5.576 -0.1583  0.1625 -0.2328
   81MOL   C23821198   5.622   2.734   5.687  0.1339 -0.6892 -0.0327
   81MOL   O23921199   5.710   2.652   5.714 -0.1051 -0.0417 -0.0132
   81MOL   C24021200   5.577   2.839   5.787 -0.2842  0.1241 -0.4098
   81MOL   C24121201   5.561   2.744   5.337 -0.1198  0.1159  0.4538
   81MOL   H24221202   5.662   2.601   5.473  0.3288  0.1124 -2.0251
   81MOL   H24321203   5.466   2.791   5.561 -0.9119 -0.4273  1.0864
   81MOL   H24421204   5.655   2.890   5.843  0.1303  1.8141 -2.4637
   81MOL   H24521205   5.522   2.923   5.745 -2.7631 -1.4375 -0.3771
   81MOL   H24621206   5.509   2.786   5.854 -1.4371  0.4353 -1.3245
   81MOL   H24721207   5.460   2.783   5.326  0.1950  1.8347  3.2835
   81MOL   H24821208   5.611   2.838   5.360  1.2654 -0.4379 -0.2246
   81MOL   C24921209   5.616   2.693   5.204  0.4728 -0.0026 -0.3609
   81MOL   N25021210   5.678   2.799   5.127  0.8846 -0.6040 -0.5671
   81MOL   C25121211   5.628   2.904   5.056 -0.5566 -0.3772 -0.7143
   81MOL   O25221212   5.509   2.925   5.046 -0.0448  0.3205  0.4710
   81MOL   C25321213   5.728   2.987   4.980 -0.3535  0.1821  0.6043
   81MOL   C25421214   5.508   2.639   5.108  0.2185  0.0607  0.2044
   81MOL   H25521215   5.686   2.612   5.226 -0.3940 -0.0820  2.3138
   81MOL   H25621216   5.778   2.785   5.124  0.7814 -1.1478 -1.5776
   81MOL   H25721217   5.674   3.053   4.912  0.0306 -1.3787 -1.2526
   81MOL   H25821218   5.790   3.054   5.040 -0.1012  0.1468  0.3795
   81MOL   H25921219   5.791   2.933   4.910 -0.3829  1.8361 -0.7305
   81MOL   H26021220   5.473   2.539   5.132  0.3730 -0.5367 -1.9522
   81MOL   H26121221   5.426   2.710   5.095  1.9117  2.3512  1.5362
   81MOL   H26221222   5.549   2.635   5.007  1.6914  0.9627  0.7371
   82MOL     C121223   5.029   3.761   7.643  0.7707  0.4328 -0.3954
   82MOL     N221224   4.918   3.696   7.583  0.5500  0.0092  0.0695
   82MOL     C321225   4.888   3.567   7.597 -0.0818  0.7487 -0.0503
   82MOL     O421226   4.954   3.483   7.654 -0.2737 -0.1343  0.1578
   82MOL     C521227   4.757   3.520   7.534  0.3946  0.1654 -0.2265
   82MOL     C621228   5.004   3.920   7.640  0.0091  0.0935  0.1355
   82MOL     H721229   5.044   3.714   7.740 -0.4638 -1.1455 -0.9501
   82MOL     H821230   4.857   3.759   7.534 -0.5062 -0.7526  0.3827
   82MOL     H921231   4.713   3.594   7.466 -0.9088 -0.3959 -0.0007
   82MOL    H1021232   4.768   3.418   7.498 -2.4254 -0.2326 -0.0343
   82MOL    H1121233   4.695   3.505   7.622 -0.0025 -2.7262 -0.9764
   82MOL    H1221234   4.972   3.956   7.542 -0.2605 -1.7480 -0.4760
   82MOL    H1321235   4.915   3.948   7.696  0.4068  1.7941 -0.0411
   82MOL    H1421236   5.125   3.741   7.596  1.0028  1.9383 -0.5756
   82MOL    C1521237   5.118   4.010   7.694  0.3785  0.9259  0.3001
   82MOL    N1621238   5.062   4.143   7.705 -0.3420  1.3414  0.3737
   82MOL    C1721239   5.114   4.235   7.791  0.4402 -0.5427 -0.5079
   82MOL    O1821240   5.213   4.224   0.012 -0.2217  0.2058 -0.2730
   82MOL    C1921241   5.051   4.369   7.807 -0.5295  0.4305 -0.2288
   82MOL    C2021242   5.249   4.016   7.610 -0.1651  0.6827 -0.2418
   82MOL    H2121243   5.141   3.973   7.793 -0.3874 -0.0251  0.1371
   82MOL    H2221244   4.993   4.176   7.639  1.5937  2.2707 -1.2284
   82MOL    H2321245   5.084   4.421   0.057 -0.6018 -0.8044  0.5100
   82MOL    H2421246   5.095   4.422   7.722  0.8976  0.3000  0.4273
   82MOL    H2521247   4.942   4.364   7.796 -0.5272 -1.3961  0.4406
   82MOL    H2621248   5.211   4.015   7.508  1.3539  0.9610 -0.8290
   82MOL    H2721249   5.303   4.107   7.633  0.9718  0.0974 -0.5177
   82MOL    C2821250   5.346   3.899   7.614 -0.3768  0.0946  0.4568
   82MOL    N2921251   5.375   3.870   7.753  0.3451  0.8970 -0.3835
   82MOL    C3021252   5.360   3.744   7.814  0.0357 -0.4373  0.2166
   82MOL    O3121253   5.323   3.644   7.749 -0.5505  0.1741  0.1573
   82MOL    C3221254   5.401   3.739   0.122  0.3451  0.6085 -0.2109
   82MOL    C3321255   5.464   3.943   7.534  0.5704  0.5005  0.2363
   82MOL    H3421256   5.304   3.809   7.570  0.4188  0.7156 -1.6063
   82MOL    H3521257   5.401   3.957   7.798 -0.4365 -0.1783  2.2943
   82MOL    H3621258   5.431   3.839   0.155 -0.5289  0.7034  0.3189
   82MOL    H3721259   5.311   3.709   0.176 -0.2504  1.7971 -0.5297
   82MOL    H3821260   5.480   3.666   0.138  0.2003  1.1043  3.2244
   82MOL    H3921261   5.485   4.048   7.556  1.7613  0.2412  0.3853
   82MOL    H4021262   5.561   3.904   7.565 -0.8581 -1.0065  3.0020
   82MOL    C4121263   5.448   3.910   7.381 -0.6821  0.2413  0.0605
   82MOL    N4221264   5.550   3.821   7.324  0.6386 -0.1502 -0.0009
   82MOL    C4321265   5.566   3.691   7.336 -0.0608  0.1182  0.4315
   82MOL    O4421266   5.645   3.632   7.268  0.1855 -0.5009 -0.2560
   82MOL    C4521267   5.475   3.606   7.430 -0.2302  0.1545  0.3582
   82MOL    C4621268   5.448   4.048   7.301 -0.4077 -0.7830  0.0698
   82MOL    H4721269   5.349   3.870   7.358 -1.3661  0.1491  2.9229
   82MOL    H4821270   5.608   3.860   7.251  1.4794  0.5002  0.9929
   82MOL    H4921271   5.375   3.610   7.387 -0.3847  0.0351  0.7078
   82MOL    H5021272   5.512   3.504   7.439  0.4280  0.0842 -2.5832
   82MOL    H5121273   5.469   3.652   7.529  1.5665  2.5145 -0.5787
   82MOL    H5221274   5.374   4.105   7.358  0.3401  0.1053  0.1652
   82MOL    H5321275   5.538   4.107   7.318 -1.0846  0.2242  0.2103
   82MOL    C5421276   5.384   4.046   7.158  0.1831 -1.0369  0.1370
   82MOL    N5521277   5.430   3.937   7.075 -0.0952  0.0219 -0.1136
   82MOL    C5621278   5.360   3.824   7.038  0.2769  0.3296 -0.2084
   82MOL    O5721279   5.243   3.815   7.058  0.5081  0.0662  0.0555
   82MOL    C5821280   5.443   3.722   6.966 -0.3566  0.3073  0.2288
   82MOL    C5921281   5.393   4.174   7.071  0.3577 -0.3881  0.3813
   82MOL    H6021282   5.278   4.030   7.176  0.2588  0.4167  2.0614
   82MOL    H6121283   5.529   3.927   7.059  0.1217 -1.2847  1.8783
   82MOL    H6221284   5.421   3.727   6.860  1.9236  2.4527 -0.1892
   82MOL    H6321285   5.551   3.730   6.979 -0.7289  1.3750  3.2535
   82MOL    H6421286   5.400   3.626   6.992 -1.9816  0.2819 -2.4108
   82MOL    H6521287   5.484   4.191   7.014 -0.0935 -0.7208 -0.4521
   82MOL    H6621288   5.327   4.158   6.985  1.4990 -0.2904 -0.5322
   82MOL    C6721289   5.349   4.309   7.128 -0.1280  0.2238  0.5872
   82MOL    N6821290   5.213   4.296   7.187 -0.6865 -0.1241  0.5718
   82MOL    C6921291   5.176   4.320   7.315  0.2267  0.6587  0.0762
   82MOL    O7021292   5.250   4.378   7.393  0.3181 -0.3289 -0.1617
   82MOL    C7121293   5.032   4.293   7.356 -0.5995 -0.5573  1.5892
   82MOL    C7221294   5.341   4.424   7.023  0.6431  0.5411 -0.5546
   82MOL    H7321295   5.417   4.337   7.208 -1.0844 -3.3781  2.7822
   82MOL    H7421296   5.141   4.266   7.123  0.0189  0.7392 -0.6603
   82MOL    H7521297   5.024   4.266   7.461  1.9176 -0.4174  1.8355
   82MOL    H7621298   4.979   4.388   7.345  0.7976 -0.2130 -3.1954
   82MOL    H7721299   4.989   4.217   7.290 -0.3900  2.8134 -2.7026
   82MOL    H7821300   5.257   4.403   6.957 -0.0716  0.6036  0.3200
   82MOL    H7921301   5.303   4.516   7.067  1.1427  1.4601 -2.0148
   82MOL    C8021302   5.466   4.466   6.958  0.0559  1.0316  0.4522
   82MOL    N8121303   5.581   4.485   7.054  0.0951 -0.3100 -0.5187
   82MOL    C8221304   5.598   4.548   7.170  0.0791  0.6587 -0.1804
   82MOL    O8321305   5.517   4.614   7.229  0.6260  0.2320 -0.9753
   82MOL    C8421306   5.732   4.525   7.246  0.1221 -0.0182 -0.3515
   82MOL    C8521307   5.450   4.582   6.861  0.2142 -0.0099 -0.0304
   82MOL    H8621308   5.492   4.383   6.892 -1.5486  0.3167  0.7091
   82MOL    H8721309   5.664   4.430   7.033 -0.2780 -2.2170  2.6859
   82MOL    H8821310   5.712   4.509   7.352 -2.4250  1.3116 -0.5722
   82MOL    H8921311   5.789   4.444   7.200  0.9607 -0.1435  0.8993
   82MOL    H9021312   5.799   4.609   7.233 -0.7605  1.0543  1.7866
   82MOL    H9121313   5.369   4.551   6.794  1.5337  0.9235 -2.1277
   82MOL    H9221314   5.411   4.667   6.918  0.9567 -1.9297  3.4535
   82MOL    C9321315   5.570   4.635   6.782 -0.3866 -0.1983 -0.0698
   82MOL    N9421316   5.525   4.748   6.707 -1.1607 -0.0423 -0.4766
   82MOL    C9521317   5.599   4.850   6.655  0.5045 -0.1187 -0.5561
   82MOL    O9621318   5.718   4.854   6.667  0.5192 -0.0403  0.0737
   82MOL    C9721319   5.526   4.952   6.571 -0.7266  0.5761 -0.0930
   82MOL    C9821320   5.622   4.534   6.679  0.2028  0.6790 -0.6454
   82MOL    H9921321   5.653   4.657   6.849 -0.2395 -2.9468  0.7187
   82MOL   H10021322   5.429   4.749   6.676 -0.9634 -0.6801 -1.1054
   82MOL   H10121323   5.453   5.005   6.632 -0.1115 -0.1355  1.2894
   82MOL   H10221324   5.591   5.036   6.547 -1.4054  1.3347  0.7300
   82MOL   H10321325   5.489   4.907   6.479 -2.1147 -0.3403  0.8987
   82MOL   H10421326   5.558   4.446   6.684  0.1575  0.7328 -0.3117
   82MOL   H10521327   5.612   4.575   6.578 -0.5712 -0.5387 -1.0733
   82MOL   C10621328   5.763   4.475   6.710  0.1285  0.1213 -0.2776
   82MOL   N10721329   5.862   4.578   6.671  0.0333  0.0681 -0.2241
   82MOL   C10821330   5.989   4.579   6.715 -0.3336  0.1929 -0.0408
   82MOL   O10921331   6.039   4.491   6.775  0.0089  0.1717  0.3689
   82MOL   C11021332   6.064   4.705   6.690  0.2447 -0.1177 -0.0427
   82MOL   C11121333   5.791   4.336   6.646  0.0874 -0.0931 -0.3489
   82MOL   H11221334   5.764   4.461   6.818  0.7072 -0.9645 -0.4262
   82MOL   H11321335   5.823   4.667   6.644  1.1935  0.5677 -0.2864
   82MOL   H11421336   6.112   4.710   6.593  1.2521 -0.7814  0.4164
   82MOL   H11521337   5.997   4.791   6.693  2.4492  1.6211  4.1051
   82MOL   H11621338   6.140   4.713   6.768 -1.3829 -0.4536  1.6262
   82MOL   H11721339   5.732   4.334   6.554  0.5116  0.0840 -0.6262
   82MOL   H11821340   5.890   4.321   6.604 -0.0950  0.9053 -1.1949
   82MOL   C11921341   5.749   4.217   6.734 -0.3007 -0.1346  0.0902
   82MOL   N12021342   5.853   4.212   6.834  0.7412  1.0124 -0.8176
   82MOL   C12121343   5.844   4.221   6.965  0.1424  0.2174  0.2492
   82MOL   O12221344   5.739   4.244   7.020  0.7436  0.2019  0.2901
   82MOL   C12321345   5.970   4.224   7.040  0.0406  0.1411 -0.0704
   82MOL   C12421346   5.735   4.082   6.664 -0.3634  0.0152  0.0680
   82MOL   H12521347   5.653   4.246   6.777  0.5407  1.8298  0.7056
   82MOL   H12621348   5.946   4.212   6.795  0.4204 -0.3378 -1.6385
   82MOL   H12721349   6.040   4.297   6.999  0.3469 -0.3832 -0.4911
   82MOL   H12821350   5.956   4.226   7.148 -0.8180 -0.0838 -0.1728
   82MOL   H12921351   6.019   4.129   7.018 -0.4457 -0.3485  0.9509
   82MOL   H13021352   5.826   4.068   6.605 -0.6207  2.5413 -0.9712
   82MOL   H13121353   5.744   3.993   6.726 -0.6167 -2.7068 -3.6505
   82MOL   C13221354   5.609   4.051   6.583 -0.1355 -0.3542 -0.0297
   82MOL   N13321355   5.503   4.017   6.671  0.4949  0.2421  1.0190
   82MOL   C13421356   5.391   4.089   6.690  0.0480 -0.2478 -0.9228
   82MOL   O13521357   5.375   4.212   6.678  0.0325 -0.2309 -0.0344
   82MOL   C13621358   5.268   4.005   6.736  0.8490 -0.6981  0.4800
   82MOL   C13721359   5.635   3.941   6.476  0.2722  0.4086 -0.1576
   82MOL   H13821360   5.585   4.143   6.530 -1.5532 -0.1107  0.9964
   82MOL   H13921361   5.497   3.917   6.686 -0.6213 -0.1789 -1.9287
   82MOL   H14021362   5.232   3.940   6.656  0.5788  1.3601 -1.1198
   82MOL   H14121363   5.298   3.945   6.822  0.1135 -1.6978  0.0526
   82MOL   H14221364   5.194   4.073   6.778 -0.9860 -0.1818 -3.3963
   82MOL   H14321365   5.700   3.981   6.398 -1.5096  0.2917 -1.7436
   82MOL   H14421366   5.687   3.857   6.523 -0.8266 -0.8971 -1.1918
   82MOL   C14521367   5.504   3.888   6.412  0.8857  0.0556 -0.0038
   82MOL   N14621368   5.535   3.762   6.340  0.1999 -0.2436  0.1158
   82MOL   C14721369   5.456   3.648   6.317  0.2663  0.0947  0.6893
   82MOL   O14821370   5.346   3.631   6.369 -0.1387 -0.2766  0.4784
   82MOL   C14921371   5.528   3.541   6.242  0.6387  0.1844 -0.1935
   82MOL   C15021372   5.456   4.000   6.313  0.6046 -0.5978  0.3750
   82MOL   H15121373   5.425   3.863   6.483  0.5104  1.9889  0.2974
   82MOL   H15221374   5.626   3.755   6.297  0.1279 -0.8089  0.0496
   82MOL   H15321375   5.601   3.494   6.307  1.4215 -0.4520 -1.5241
   82MOL   H15421376   5.456   3.463   6.217 -1.2033  1.0655  2.1896
   82MOL   H15521377   5.574   3.583   6.153  0.2916  0.0765 -0.4267
   82MOL   H15621378   5.458   4.093   6.369  1.6763 -0.6844  0.4840
   82MOL   H15721379   5.524   3.995   6.228  1.9564 -0.9185  1.4564
   82MOL   C15821380   5.314   3.967   6.255  0.1362  0.0711 -0.0771
   82MOL   N15921381   5.306   3.985   6.108  0.1087  0.1753 -1.2364
   82MOL   C16021382   5.267   3.893   6.018 -0.5345  0.5940 -0.4834
   82MOL   O16121383   5.209   3.781   6.035 -0.0533 -0.2447 -0.7489
   82MOL   C16221384   5.287   3.934   5.874  0.1395 -0.1244 -0.1155
   82MOL   C16321385   5.213   4.060   6.320  0.2585  0.1981  0.3049
   82MOL   H16421386   5.281   3.868   6.285 -0.8498  0.5806  0.5365
   82MOL   H16521387   5.360   4.065   6.077 -1.8425  2.4209  0.9271
   82MOL   H16621388   5.385   3.893   5.847 -0.8834 -2.4922 -0.3297
   82MOL   H16721389   5.220   3.878   5.808  0.1950  0.0604 -0.3305
   82MOL   H16821390   5.291   4.042   5.860 -0.1264 -0.0892  0.0864
   82MOL   H16921391   5.227   4.037   6.425  1.6757  0.4381  0.1736
   82MOL   H17021392   5.247   4.162   6.299  2.1768 -0.4993 -0.0649
   82MOL   C17121393   5.063   4.041   6.289  1.3455 -0.0665 -0.3376
   82MOL   N17221394   4.984   4.131   6.367 -0.6105 -0.4901 -0.3157
   82MOL   C17321395   4.859   4.169   6.336  0.1324  0.6667  1.0417
   82MOL   O17421396   4.801   4.136   6.233 -0.8577  0.0179  0.5086
   82MOL   C17521397   4.783   4.263   6.424  0.6943 -0.4536 -1.0411
   82MOL   C17621398   5.000   3.900   6.288  0.1590  0.2600  0.0314
   82MOL   H17721399   5.055   4.065   6.184  0.6439 -0.2291 -0.3215
   82MOL   H17821400   5.018   4.177   6.450  0.3560 -2.1399  0.2219
   82MOL   H17921401   4.796   4.362   6.380 -1.5627  0.4211  0.1405
   82MOL   H18021402   4.677   4.238   6.425  0.6375 -0.2121  1.0980
   82MOL   H18121403   4.812   4.255   6.528  0.7050  2.3419 -0.7900
   82MOL   H18221404   4.910   3.916   6.228  0.4170  0.8248 -0.2032
   82MOL   H18321405   5.048   3.833   6.217 -0.3645 -0.5335  0.4163
   82MOL   C18421406   4.963   3.852   6.430  0.8680  0.1435  0.3591
   82MOL   N18521407   5.079   3.778   6.494 -0.2473  0.3985 -0.4627
   82MOL   C18621408   5.073   3.729   6.619 -0.3171 -0.0819  0.5762
   82MOL   O18721409   4.973   3.738   6.686  0.5774 -0.5206 -0.5626
   82MOL   C18821410   5.198   3.658   6.672 -0.4854 -0.4402  0.3678
   82MOL   C18921411   4.845   3.759   6.415  0.5385  0.5342  0.3327
   82MOL   H19021412   4.950   3.938   6.495  0.2449  0.8140 -0.6377
   82MOL   H19121413   5.159   3.759   6.436 -0.0727  0.7136 -0.3239
   82MOL   H19221414   5.288   3.719   6.668 -0.5802 -0.3633 -0.7736
   82MOL   H19321415   5.191   3.637   6.779  0.3816  0.2972  0.5720
   82MOL   H19421416   5.203   3.564   6.617 -1.4814 -0.5634  0.4707
   82MOL   H19521417   4.843   3.719   6.314 -2.7780  2.0029 -0.2511
   82MOL   H19621418   4.852   3.668   6.474 -1.5160 -1.0784 -1.8732
   82MOL   C19721419   4.709   3.820   6.449  0.3695  0.4865 -0.0841
   82MOL   N19821420   4.684   3.815   6.590 -0.0863 -0.6605  0.0925
   82MOL   C19921421   4.613   3.908   6.662  1.2234 -1.1950  0.1596
   82MOL   O20021422   4.583   4.014   6.607 -0.1887 -0.3516  0.1979
   82MOL   C20121423   4.577   3.879   6.802  0.5023  0.0612 -0.3771
   82MOL   C20221424   4.593   3.750   6.378  0.5308  0.0788  0.6342
   82MOL   H20321425   4.714   3.925   6.418  0.9353  0.7375  0.8568
   82MOL   H20421426   4.733   3.753   6.653 -1.0855 -1.6530 -0.1078
   82MOL   H20521427   4.476   3.838   6.807  1.0441 -1.2152  0.1716
   82MOL   H20621428   4.645   3.806   6.845  0.2163  0.8591  1.4921
   82MOL   H20721429   4.586   3.964   6.870  0.5979  0.3945 -0.8066
   82MOL   H20821430   4.611   3.643   6.371  1.6212  0.2205  1.0732
   82MOL   H20921431   4.506   3.760   6.442 -1.0805  0.1902 -1.5429
   82MOL   C21021432   4.544   3.812   6.245 -0.0067 -0.7522 -0.0576
   82MOL   N21121433   4.633   3.777   6.140  0.2683 -0.6370  0.2430
   82MOL   C21221434   4.604   3.786   6.009  0.3154 -0.4656  0.4304
   82MOL   O21321435   4.513   3.848   5.960  0.1922  0.2118 -0.5859
   82MOL   C21421436   4.706   3.717   5.918  0.1519 -0.4841  0.4155
   82MOL   C21521437   4.500   3.960   6.261  0.0318  0.1412  0.4709
   82MOL   H21621438   4.454   3.754   6.224  0.0689 -0.3795 -1.4776
   82MOL   H21721439   4.717   3.730   6.170  0.5657 -0.7618 -0.7692
   82MOL   H21821440   4.699   3.755   5.816  0.8030 -0.3382  0.4274
   82MOL   H21921441   4.804   3.742   5.956 -0.1914  0.9588  0.3720
   82MOL   H22021442   4.696   3.608   5.920  0.2152 -0.4740  1.2595
   82MOL   H22121443   4.535   4.005   6.354  0.4688  0.2921  0.2319
   82MOL   H22221444   4.554   4.024   6.191  0.8124 -0.1299  0.8188
   82MOL   C22321445   4.356   3.994   6.247  0.3042  0.1466 -0.2319
   82MOL   N22421446   4.301   3.949   6.124  0.5799 -0.1197  0.1973
   82MOL   C22521447   4.177   3.902   6.126  0.3163  0.7170 -0.9136
   82MOL   O22621448   4.085   3.959   6.185  0.4014  0.3273 -0.2093
   82MOL   C22721449   4.156   3.774   6.036 -0.0014 -0.0079 -0.6455
   82MOL   C22821450   4.321   4.144   6.267 -0.5331 -0.5657  0.7785
   82MOL   H22921451   4.302   3.940   6.325  0.9192 -0.6020 -0.3171
   82MOL   H23021452   4.361   3.903   6.057  1.2195 -0.5331  1.0552
   82MOL   H23121453   4.124   3.695   6.104 -0.0255  1.3034  0.9222
   82MOL   H23221454   4.087   3.802   5.957  0.4712 -1.9909 -1.7806
   82MOL   H23321455   4.243   3.730   5.988 -0.1588 -1.3950  0.3219
   82MOL   H23421456   4.404   4.215   6.265 -2.3926  1.7167  1.7394
   82MOL   H23521457   4.255   4.178   6.186  3.1934  0.7881 -1.8530
   82MOL   C23621458   4.269   4.174   6.407  0.1459 -0.4568 -0.1377
   82MOL   N23721459   4.140   4.105   6.425 -0.3611  0.0079  0.0091
   82MOL   C23821460   4.097   4.052   6.544 -0.0833  0.0134  1.0120
   82MOL   O23921461   4.146   4.081   6.653  0.1417  0.4531  0.2771
   82MOL   C24021462   3.980   3.960   6.547 -0.0778 -0.1516 -0.5752
   82MOL   C24121463   4.246   4.329   6.410  0.3339 -0.5733 -0.1343
   82MOL   H24221464   4.344   4.147   6.481  1.8624 -0.1170 -1.7162
   82MOL   H24321465   4.093   4.067   6.344 -0.6036  0.2072  0.0533
   82MOL   H24421466   3.988   3.910   6.450 -0.2201  0.0087 -0.6716
   82MOL   H24521467   3.995   3.898   6.635 -0.2238 -0.2082 -0.5900
   82MOL   H24621468   3.888   4.018   6.552 -0.1923 -0.4697  1.0613
   82MOL   H24721469   4.347   4.370   6.401 -0.7541  2.3600  0.3441
   82MOL   H24821470   4.189   4.350   6.320 -1.4684  0.9049  1.2837
   82MOL   C24921471   4.169   4.390   6.528  0.4146 -0.1427 -0.9492
   82MOL   N25021472   4.123   4.528   6.500  0.2155 -1.0606  0.5586
   82MOL   C25121473   4.198   4.627   6.448 -0.6640 -0.2989 -0.2186
   82MOL   O25221474   4.316   4.624   6.420  0.0786 -0.1477 -0.5014
   82MOL   C25321475   4.137   4.762   6.429 -0.5514  0.1808  0.3877
   82MOL   C25421476   4.262   4.383   6.658 -0.6142  0.3967 -0.6045
   82MOL   H25521477   4.079   4.329   6.541  0.4768 -0.1933 -0.7622
   82MOL   H25621478   4.025   4.550   6.512  0.4633  1.2487 -1.1965
   82MOL   H25721479   4.206   4.847   6.433  0.0424 -0.3309  1.1020
   82MOL   H25821480   4.102   4.754   6.326  1.2117  0.9325 -0.2910
   82MOL   H25921481   4.050   4.789   6.489 -3.1963  0.9156 -3.5919
   82MOL   H26021482   4.212   4.411   6.751 -0.2924  1.3676 -0.7218
   82MOL   H26121483   4.290   4.278   6.675  0.2787  0.3434 -2.3105
   82MOL   H26221484   4.357   4.437   6.653 -0.0108 -0.4917  0.8542
   83MOL     C121485   5.445   0.385   3.948  0.4297  0.2894 -0.2259
   83MOL     N221486   5.318   0.333   3.888  0.2423  0.6083 -0.3559
   83MOL     C321487   5.322   0.264   3.771  0.2280 -0.9636  0.6953
   83MOL     O421488   5.419   0.240   3.702  0.4856 -0.1733 -0.2928
   83MOL     C521489   5.187   0.217   3.718 -0.5019  0.0729  0.0779
   83MOL     C621490   5.433   0.412   4.093 -0.2771  0.1101 -0.1054
   83MOL     H721491   5.528   0.317   3.930  0.3628  0.4734 -1.2801
   83MOL     H821492   5.225   0.355   3.922 -0.1850  1.4564 -1.9849
   83MOL     H921493   5.188   0.194   3.612 -0.0627  1.4265 -0.2244
   83MOL    H1021494   5.153   0.138   3.785  0.0964 -1.0914 -0.9798
   83MOL    H1121495   5.114   0.296   3.735 -1.4789 -0.2894 -2.2098
   83MOL    H1221496   5.356   0.488   4.109  0.6981  0.7383  1.6121
   83MOL    H1321497   5.389   0.324   4.140 -0.5137  0.9946  1.3415
   83MOL    H1421498   5.479   0.473   3.893  0.7233  0.4642  0.2378
   83MOL    C1521499   5.558   0.434   4.182  0.3300 -0.2849  0.1673
   83MOL    N1621500   5.617   0.559   4.138  0.2438  0.1498 -0.1603
   83MOL    C1721501   5.589   0.683   4.183  0.2798 -0.2871 -0.5142
   83MOL    O1821502   5.502   0.701   4.269  0.2517  0.2638  0.8004
   83MOL    C1921503   5.654   0.808   4.123 -0.2769  0.7212  1.0595
   83MOL    C2021504   5.662   0.323   4.174  0.2844  0.0796 -0.0664
   83MOL    H2121505   5.529   0.439   4.287  0.6847  0.1203  0.2460
   83MOL    H2221506   5.685   0.549   4.064 -1.2938 -2.1169 -1.3349
   83MOL    H2321507   5.755   0.799   4.083  0.2569  1.1299  2.2988
   83MOL    H2421508   5.595   0.840   4.037 -3.2704 -1.0858  2.3546
   83MOL    H2521509   5.656   0.884   4.201  0.0436  0.9414  0.8403
   83MOL    H2621510   5.696   0.324   4.070  0.9031  0.8295  0.1386
   83MOL    H2721511   5.749   0.366   4.222  1.3209 -2.3831  0.3412
   83MOL    C2821512   5.630   0.185   4.236  0.1578 -0.1803  0.5951
   83MOL    N2921513   5.514   0.109   4.186  0.0738  0.1228  0.3229
   83MOL    C3021514   5.520   0.008   4.101 -0.7422  0.0655 -0.2021
   83MOL    O3121515   5.622   7.819   4.035  0.6316  1.0607  0.4463
   83MOL    C3221516   5.397   7.763   4.099 -0.1185 -0.0467 -0.3431
   83MOL    C3321517   5.635   0.188   4.389 -0.1858  0.1621  0.2007
   83MOL    H3421518   5.718   0.125   4.210 -2.2886 -4.2672  1.1766
   83MOL    H3521519   5.435   0.125   4.247 -1.9291  2.8436 -2.7817
   83MOL    H3621520   5.419   7.680   4.166 -0.9848 -1.1195 -1.3554
   83MOL    H3721521   5.323   7.823   4.152  1.0119  2.1868 -1.2083
   83MOL    H3821522   5.371   7.742   3.995 -1.8109  0.3280 -0.0106
   83MOL    H3921523   5.726   0.231   4.429  1.5831 -2.3205 -1.0597
   83MOL    H4021524   5.568   0.269   4.420  0.8092  1.3466 -0.6940
   83MOL    C4121525   5.599   0.044   4.453  0.4622  0.6120  0.6701
   83MOL    N4221526   5.508   0.062   4.557  0.1872  0.2483 -0.0919
   83MOL    C4321527   5.391   0.120   4.555 -0.6361 -0.4220  0.1356
   83MOL    O4421528   5.335   0.148   4.448  0.6495  0.2246 -0.1218
   83MOL    C4521529   5.328   0.171   4.687 -0.0783 -0.2902  0.0035
   83MOL    C4621530   5.721   7.802   4.507 -0.2346  0.2206  0.6291
   83MOL    H4721531   5.540   7.817   4.389 -1.2407 -0.0253  2.8735
   83MOL    H4821532   5.540   0.053   4.653  0.9499 -1.3191 -0.4668
   83MOL    H4921533   5.257   0.095   4.721  0.1916 -0.0669  1.0690
   83MOL    H5021534   5.405   0.176   4.764  1.0808 -2.5057 -0.9628
   83MOL    H5121535   5.281   0.268   4.673  0.3426  0.0259  0.7599
   83MOL    H5221536   5.759   0.028   4.585  0.2523  2.0976 -1.1333
   83MOL    H5321537   5.686   7.711   4.555 -2.1476  0.8770  0.5570
   83MOL    C5421538   5.837   7.771   4.407  0.6154 -0.3263 -1.1981
   83MOL    N5521539   5.798   7.683   4.293  0.7574 -0.3296  1.1538
   83MOL    C5621540   5.742   7.561   4.305 -0.1411  0.2238 -0.1589
   83MOL    O5721541   5.732   7.497   4.411 -0.1976 -0.3597 -0.1497
   83MOL    C5821542   5.683   7.493   4.180  0.6123  0.1670 -0.7636
   83MOL    C5921543   5.948   7.719   4.495 -0.2646 -0.4633 -0.3224
   83MOL    H6021544   5.872   0.018   4.351  1.8221  0.0720  0.1382
   83MOL    H6121545   5.778   7.737   4.210  0.4678 -2.6663 -0.3466
   83MOL    H6221546   5.575   7.488   4.193  0.3968  4.1410 -0.3559
   83MOL    H6321547   5.686   7.555   4.090  0.8980 -0.9295 -1.5228
   83MOL    H6421548   5.738   7.403   4.152  1.5922  0.7149 -0.6016
   83MOL    H6521549   5.973   7.801   4.563 -0.5413  1.1172 -2.0910
   83MOL    H6621550   5.904   7.644   4.561  0.7601 -2.3771 -1.7759
   83MOL    C6721551   6.073   7.662   4.420  0.1130  0.5729  0.4361
   83MOL    N6821552   6.168   7.594   4.509 -0.7507 -0.1001 -0.0747
   83MOL    C6921553   6.264   7.509   4.475 -1.0468 -0.3607 -0.2896
   83MOL    O7021554   6.276   7.468   4.364 -0.4623  0.0982  0.0567
   83MOL    C7121555   6.375   7.478   4.576  0.8007  0.0107  0.3231
   83MOL    C7221556   6.151   7.772   4.338  0.3823 -0.0947 -0.5320
   83MOL    H7321557   6.035   7.599   4.339  1.9312 -0.9679  0.7535
   83MOL    H7421558   6.178   7.622   4.605 -1.3101 -0.9645  0.2462
   83MOL    H7521559   6.356   7.545   4.660  0.1954  1.6378 -1.0919
   83MOL    H7621560   6.371   7.371   4.599  0.0504  0.2155  1.2255
   83MOL    H7721561   6.470   7.500   4.529  1.3702 -2.9241 -0.0061
   83MOL    H7821562   6.234   7.732   4.278  0.9311  2.1889 -1.3362
   83MOL    H7921563   6.082   7.802   4.259  1.0042  1.1568 -0.6210
   83MOL    C8021564   6.205   0.059   4.411 -0.0307  0.0394 -0.1215
   83MOL    N8121565   6.227   0.162   4.314 -0.4732 -0.5757  0.3798
   83MOL    C8221566   6.129   0.222   4.247 -0.8623  0.0024  0.0315
   83MOL    O8321567   6.010   0.200   4.258  0.7925  0.9941  0.0512
   83MOL    C8421568   6.172   0.320   4.141 -0.1797  0.1565 -0.3551
   83MOL    C8521569   6.337   0.018   4.490  0.0578  0.3679 -0.1888
   83MOL    H8621570   6.137   0.100   4.485  0.2149  1.1549 -0.5060
   83MOL    H8721571   6.324   0.188   4.299 -0.1532 -1.3111  1.1056
   83MOL    H8821572   6.274   0.292   4.112 -0.5114 -1.4083 -0.0631
   83MOL    H8921573   6.101   0.320   4.059 -0.8912 -1.0177  0.2464
   83MOL    H9021574   6.187   0.418   4.187 -1.7995  0.4682 -0.4542
   83MOL    H9121575   6.309   7.803   4.580 -2.5445  0.4982 -0.9069
   83MOL    H9221576   6.395   7.784   4.435  0.6575  2.5799 -2.6585
   83MOL    C9321577   6.429   0.142   4.523 -0.1585  0.1445 -0.0648
   83MOL    N9421578   6.536   0.156   4.424 -0.2430 -0.0684 -0.3730
   83MOL    C9521579   6.558   0.254   4.334  0.4899 -0.1905  0.3775
   83MOL    O9621580   6.476   0.347   4.322  0.6771 -0.1080  0.6473
   83MOL    C9721581   6.685   0.239   4.259  0.1069 -0.3476  0.7735
   83MOL    C9821582   6.491   0.113   4.662 -0.3116  0.8168  0.3908
   83MOL    H9921583   6.362   0.228   4.528 -1.3252 -0.6804 -1.0901
   83MOL   H10021584   6.606   0.083   4.429 -0.9935 -0.7550  0.1865
   83MOL   H10121585   6.725   0.335   4.227 -0.1169  0.0767  1.7616
   83MOL   H10221586   6.760   0.194   4.325  0.6455  0.2909  0.6093
   83MOL   H10321587   6.674   0.163   4.182 -1.0300  0.1175  0.4637
   83MOL   H10421588   6.516   0.007   4.668 -0.8801  0.6776  0.3258
   83MOL   H10521589   6.590   0.158   4.665  0.7307 -1.3304 -0.8961
   83MOL   C10621590   6.412   0.159   4.790 -0.3300  0.4364  0.3966
   83MOL   N10721591   6.436   0.301   4.802 -0.0037  0.6758  0.3285
   83MOL   C10821592   6.521   0.367   4.880 -0.0198  0.2630  0.3588
   83MOL   O10921593   6.595   0.316   4.960 -0.1492 -0.3236  0.1473
   83MOL   C11021594   6.520   0.513   4.855  0.2508  0.4100 -0.7331
   83MOL   C11121595   6.419   0.070   4.912  0.1105  0.1931 -0.2997
   83MOL   H11221596   6.305   0.152   4.769 -0.3461  0.7318  0.3926
   83MOL   H11321597   6.377   0.354   4.740 -0.7962 -2.2551 -1.5287
   83MOL   H11421598   6.420   0.531   4.815  0.2791  0.8064 -0.6276
   83MOL   H11521599   6.523   0.570   4.948 -0.1934 -2.2081  0.9264
   83MOL   H11621600   6.597   0.551   4.788 -0.1488  0.8014 -0.9743
   83MOL   H11721601   6.525   0.051   4.926 -0.0849  0.2735  1.3966
   83MOL   H11821602   6.401   0.123   5.006  0.5789 -1.4248  0.7078
   83MOL   C11921603   6.334   7.777   4.895  0.2485 -0.6798 -0.1171
   83MOL   N12021604   6.190   7.794   4.907  0.1035  0.0015  0.1189
   83MOL   C12121605   6.094   7.735   4.845  0.5682 -0.0336  0.4602
   83MOL   O12221606   6.118   7.659   4.758 -0.5408  0.3339  0.3907
   83MOL   C12321607   5.955   7.777   4.886  0.1480 -0.2524 -0.1374
   83MOL   C12421608   6.372   7.668   4.991 -0.1930  0.6415 -0.5933
   83MOL   H12521609   6.363   7.732   4.800 -2.6641 -0.1035 -1.3310
   83MOL   H12621610   6.162   0.018   4.981 -2.5156  0.8709 -1.5643
   83MOL   H12721611   5.947   0.046   4.884  1.0323 -0.1757  0.6967
   83MOL   H12821612   5.884   7.753   4.806 -0.5999  2.8283 -0.4699
   83MOL   H12921613   5.925   7.729   4.979  0.9204  0.1899  0.3389
   83MOL   H13021614   6.344   7.689   5.094  3.6969 -2.6251  1.2598
   83MOL   H13121615   6.298   7.588   4.980 -1.5801  1.8056  0.0065
   83MOL   C13221616   6.515   7.610   5.008  0.1342  0.1360 -0.5877
   83MOL   N13321617   6.572   7.587   4.885  0.5406  0.3154 -0.5964
   83MOL   C13421618   6.694   7.618   4.841 -0.4294  0.3212  0.5060
   83MOL   O13521619   6.771   7.693   4.902  0.4806 -0.3113 -0.0223
   83MOL   C13621620   6.747   7.541   4.719  0.6639  0.0189  0.2222
   83MOL   C13721621   6.510   7.485   5.106 -0.4966 -0.2685 -0.7368
   83MOL   H13821622   6.572   7.697   5.043  0.0590 -0.2175  0.4204
   83MOL   H13921623   6.522   7.519   4.829 -0.5269  0.2821  0.3843
   83MOL   H14021624   6.788   7.445   4.752 -2.4541 -1.8904 -1.2190
   83MOL   H14121625   6.653   7.518   4.668 -0.4368  1.8182  1.3774
   83MOL   H14221626   6.820   7.592   4.657  0.7560  2.0836  2.0194
   83MOL   H14321627   6.450   7.525   5.188  1.0323 -1.1596  0.8331
   83MOL   H14421628   6.449   7.415   5.049 -0.0662  0.3056 -1.9343
   83MOL   C14521629   6.644   7.426   5.165  0.3867  0.2463  0.0714
   83MOL   N14621630   6.740   7.539   5.187  0.0446 -0.3739  0.2234
   83MOL   C14721631   6.787   7.588   5.303 -0.0944 -0.2394  0.3794
   83MOL   O14821632   6.745   7.550   5.416 -0.8571  0.2161 -0.0464
   83MOL   C14921633   6.887   7.694   5.289  0.2411 -0.7492 -0.0556
   83MOL   C15021634   6.699   7.313   5.075  0.3175  0.5655  0.4876
   83MOL   H15121635   6.612   7.381   5.259 -1.5208  1.6080  0.1205
   83MOL   H15221636   6.776   7.587   5.106 -1.5553 -0.3656 -0.5110
   83MOL   H15321637   6.984   7.656   5.321 -0.8557 -3.4100  0.1770
   83MOL   H15421638   6.899   7.727   5.186  0.5621  1.0456  0.5229
   83MOL   H15521639   6.857   7.783   5.345  0.7671 -0.8508  0.3930
   83MOL   H15621640   6.627   7.232   5.088  2.8860 -1.8265  0.2807
   83MOL   H15721641   6.697   7.338   4.969 -1.2551 -1.9808 -0.1177
   83MOL   C15821642   6.837   7.257   5.119 -0.6691 -0.0631  0.2132
   83MOL   N15921643   6.926   7.292   5.010  0.3605  0.0897  0.1174
   83MOL   C16021644   6.998   7.406   4.995  0.4550 -0.3092  0.0013
   83MOL   O16121645   7.004   7.491   5.082 -0.0128 -0.4259  0.4183
   83MOL   C16221646   7.064   7.422   4.854  0.1391 -0.6912 -0.6618
   83MOL   C16321647   6.848   7.113   5.163  0.0663 -0.5950  0.7572
   83MOL   H16421648   6.871   7.312   5.207  1.1605  1.3858 -1.3333
   83MOL   H16521649   6.910   7.244   4.922 -1.3833  0.7680  0.0293
   83MOL   H16621650   7.009   7.352   4.790  0.5170 -2.2900  0.7377
   83MOL   H16721651   7.046   7.525   4.823 -0.7146 -0.9558 -1.0579
   83MOL   H16821652   7.170   7.401   4.869  0.3873  1.5767  1.0307
   83MOL   H16921653   6.944   7.111   5.214 -0.0492 -3.1985  0.9440
   83MOL   H17021654   6.769   7.093   5.235  0.5349 -0.3669  1.3363
   83MOL   C17121655   6.843   7.004   5.046  0.1023 -0.4205 -0.8373
   83MOL   N17221656   6.710   7.011   4.993  0.2706  0.5954  0.3108
   83MOL   C17321657   6.669   7.057   4.870  0.0046 -0.1795  0.1985
   83MOL   O17421658   6.750   7.115   4.797 -0.4145 -0.3061 -0.1920
   83MOL   C17521659   6.520   7.040   4.837  0.2384  0.4238 -0.4705
   83MOL   C17621660   6.888   6.867   5.107  0.0422  0.7573  0.8355
   83MOL   H17721661   6.922   7.028   4.976  0.8889 -2.0458 -0.5301
   83MOL   H17821662   6.632   6.975   5.045 -0.5960  0.0752 -1.3016
   83MOL   H17921663   6.481   7.116   4.770  0.4104  0.6779 -0.2817
   83MOL   H18021664   6.500   6.943   4.791 -0.6038 -1.2886  3.2829
   83MOL   H18121665   6.459   7.041   4.927 -0.4569 -0.4875 -0.9148
   83MOL   H18221666   6.996   6.856   5.104 -0.1891 -1.4371 -1.4457
   83MOL   H18321667   6.853   6.857   5.210 -2.3826  0.9212  0.0678
   83MOL   C18421668   6.831   6.741   5.039 -0.4454 -0.5163  0.6600
   83MOL   N18521669   6.881   6.630   5.113  0.2789  0.1887 -0.1304
   83MOL   C18621670   6.817   6.513   5.114 -0.2157 -0.1503  0.0307
   83MOL   O18721671   6.713   6.486   5.055  0.7496 -0.5043  0.4559
   83MOL   C18821672   6.883   6.409   5.203  0.2714  0.3952  0.1769
   83MOL   C18921673   6.886   6.729   4.892 -0.1146 -0.3259 -0.8726
   83MOL   H19021674   6.723   6.747   5.049 -0.2786  1.8049  1.2576
   83MOL   H19121675   6.967   6.627   5.167  0.3658  0.3983 -0.2588
   83MOL   H19221676   6.988   6.383   5.186 -0.4116 -1.7047 -1.0704
   83MOL   H19321677   6.869   6.423   5.310 -0.0952  1.3809  0.0051
   83MOL   H19421678   6.846   6.310   5.178  2.9971 -0.2213 -1.6993
   83MOL   H19521679   6.889   6.826   4.843 -0.0650  1.9400  3.3810
   83MOL   H19621680   6.988   6.692   4.902  0.1095  1.0166  2.4220
   83MOL   C19721681   6.829   6.628   4.787 -0.3251  0.3724  0.3603
   83MOL   N19821682   6.915   6.625   4.675  0.2870  0.7398 -0.1158
   83MOL   C19921683   6.987   6.523   4.624  1.0901  0.5271 -0.4503
   83MOL   O20021684   6.985   6.400   4.657  0.1064  0.1679 -0.0915
   83MOL   C20121685   7.070   6.558   4.501  0.7027  1.1089 -0.1308
   83MOL   C20221686   6.679   6.656   4.750 -0.0361  0.3049 -0.3001
   83MOL   H20321687   6.818   6.529   4.831 -0.4722  1.1595  2.1377
   83MOL   H20421688   6.934   6.711   4.627  1.4229  0.6718  0.1991
   83MOL   H20521689   7.150   6.628   4.523  0.3749  0.9501  1.5702
   83MOL   H20621690   7.115   6.465   4.464  0.4462  1.2085 -0.6983
   83MOL   H20721691   7.011   6.584   4.413 -1.5670  4.0576  2.1873
   83MOL   H20821692   6.620   6.652   4.841 -0.3129  2.6003 -0.3722
   83MOL   H20921693   6.674   6.761   4.724  1.6038  0.5109  0.1361
   83MOL   C21021694   6.613   6.586   4.632  0.8989 -0.5117  0.6075
   83MOL   N21121695   6.504   6.656   4.569  0.0956 -0.2761  0.3407
   83MOL   C21221696   6.392   6.704   4.621 -1.3437  0.2903  0.2394
   83MOL   O21321697   6.365   6.705   4.743  0.0461 -0.7246 -0.1882
   83MOL   C21421698   6.283   6.754   4.531  0.3465 -0.5982  0.5512
   83MOL   C21521699   6.559   6.444   4.663  0.4355  0.4323 -0.3566
   83MOL   H21621700   6.688   6.570   4.553 -0.1443  1.7215 -0.8825
   83MOL   H21721701   6.508   6.682   4.472 -2.0385 -0.3595  0.2066
   83MOL   H21821702   6.311   6.835   4.464 -0.2008  0.3809  1.4769
   83MOL   H21921703   6.246   6.673   4.468  0.6979  0.9055 -1.6299
   83MOL   H22021704   6.194   6.795   4.578 -0.8693 -2.1743 -0.3218
   83MOL   H22121705   6.514   6.461   4.761  3.7164  1.0856  1.1279
   83MOL   H22221706   6.471   6.423   4.602 -0.8947  2.2548  0.8834
   83MOL   C22321707   6.657   6.323   4.684 -0.7435  0.1421 -0.2845
   83MOL   N22421708   6.737   6.300   4.562  0.1599 -0.9231  0.0457
   83MOL   C22521709   6.693   6.282   4.434 -0.3623 -0.1537  0.4829
   83MOL   O22621710   6.572   6.282   4.404 -0.1040  0.3876  0.3627
   83MOL   C22721711   6.797   6.267   4.332  0.9623 -0.1626  0.2994
   83MOL   C22821712   6.568   6.202   4.715 -0.1515  0.0532  0.1838
   83MOL   H22921713   6.729   6.351   4.761  1.7206  0.9169 -2.7854
   83MOL   H23021714   6.837   6.311   4.573  0.2314 -0.4586 -1.0117
   83MOL   H23121715   6.844   6.361   4.305 -0.4599 -0.3769 -3.1362
   83MOL   H23221716   6.865   6.198   4.382  1.1589  0.5224  0.9831
   83MOL   H23321717   6.760   6.219   4.241  0.4772 -0.1882  0.5067
   83MOL   H23421718   6.472   6.210   4.665 -1.2023 -0.8916  1.9797
   83MOL   H23521719   6.613   6.114   4.668 -1.7748  0.4606 -2.2058
   83MOL   C23621720   6.540   6.180   4.865 -0.0244 -0.1639 -0.1105
   83MOL   N23721721   6.509   6.291   4.957 -0.2923  0.2404 -0.3912
   83MOL   C23821722   6.386   6.321   5.008  0.0887 -0.0985  0.0616
   83MOL   O23921723   6.286   6.255   4.990  0.0923  0.2741 -0.3063
   83MOL   C24021724   6.375   6.444   5.110 -0.3826  0.4996 -0.3247
   83MOL   C24121725   6.650   6.100   4.937  0.2821 -0.8999 -0.3922
   83MOL   H24221726   6.447   6.124   4.864 -0.0272 -0.1758  0.4199
   83MOL   H24321727   6.574   6.366   4.974  0.2703 -0.1623 -0.7675
   83MOL   H24421728   6.463   6.448   5.173 -0.0644 -1.3239 -0.6264
   83MOL   H24521729   6.371   6.538   5.055  0.4326  0.8130  0.1598
   83MOL   H24621730   6.286   6.441   5.173  0.2010  0.2422  0.4896
   83MOL   H24721731   6.675   6.024   4.863  1.2893 -0.6729 -0.2933
   83MOL   H24821732   6.729   6.175   4.942 -0.2951 -0.3335  0.5266
   83MOL   C24921733   6.615   6.038   5.081 -1.0980  0.5609 -0.5361
   83MOL   N25021734   6.718   5.939   5.101 -0.1636  0.4761 -0.6150
   83MOL   C25121735   6.755   5.884   5.216  0.6679 -0.4987 -0.2038
   83MOL   O25221736   6.718   5.926   5.326 -0.0049 -0.5620  0.1510
   83MOL   C25321737   6.847   5.766   5.212 -0.0917 -0.2679  1.1018
   83MOL   C25421738   6.484   5.967   5.081 -0.3560 -0.2213  0.9734
   83MOL   H25521739   6.636   6.106   5.163  0.2896  1.4448 -1.5892
   83MOL   H25621740   6.772   5.907   5.022  2.6166  1.2218  0.9344
   83MOL   H25721741   6.846   5.702   5.301 -4.3779  1.3165  2.2866
   83MOL   H25821742   6.825   5.688   5.139 -0.0437 -0.5395  1.3739
   83MOL   H25921743   6.951   5.796   5.199 -0.4335 -0.0376 -1.3063
   83MOL   H26021744   6.395   6.019   5.046  0.7675  0.2400 -1.2867
   83MOL   H26121745   6.482   5.883   5.013 -3.7453  0.8332 -0.3046
   83MOL   H26221746   6.455   5.932   5.180 -1.4050 -0.2676  0.6600
   84MOL     C121747   1.623   5.678   1.511  0.6448 -0.3369  0.7820
   84MOL     N221748   1.712   5.642   1.397  0.5270  0.2540  0.0466
   84MOL     C321749   1.671   5.662   1.272 -0.4032 -0.6753 -0.8197
   84MOL     O421750   1.553   5.694   1.241  0.1201  0.0587  0.1302
   84MOL     C521751   1.783   5.639   1.168 -0.2379  0.6064 -0.2019
   84MOL     C621752   1.607   5.572   1.622  0.2858 -0.2932  0.3922
   84MOL     H721753   1.677   5.763   1.552  1.1436 -0.5442  0.5694
   84MOL     H821754   1.811   5.624   1.405  0.5709  0.5111  0.0931
   84MOL     H921755   1.770   5.725   1.102  2.0399  1.1019 -0.0462
   84MOL    H1021756   1.881   5.652   1.213 -0.2767 -1.9319  0.6785
   84MOL    H1121757   1.771   5.543   1.119  0.4533  0.7749 -0.7017
   84MOL    H1221758   1.566   5.484   1.573 -0.1053 -0.0128  0.2095
   84MOL    H1321759   1.709   5.538   1.641  0.4913 -0.0355 -0.2303
   84MOL    H1421760   1.529   5.720   1.476  1.7621  1.9784  0.4404
   84MOL    C1521761   1.517   5.613   1.738 -0.2624  0.4615  0.2196
   84MOL    N1621762   1.588   5.707   1.823  0.1444 -0.1373 -0.2487
   84MOL    C1721763   1.593   5.839   1.809  0.7028  0.7313 -0.4151
   84MOL    O1821764   1.545   5.893   1.711  0.1340  0.1860 -0.2525
   84MOL    C1921765   1.677   5.910   1.918 -0.6129  0.2170  0.3388
   84MOL    C2021766   1.471   5.497   1.831  0.3731  0.4833 -0.2388
   84MOL    H2121767   1.428   5.661   1.698 -0.7042  3.0028  3.9889
   84MOL    H2221768   1.642   5.663   1.896 -0.2236 -0.4229 -0.1486
   84MOL    H2321769   1.698   6.012   1.884  2.8116 -0.8973 -1.0925
   84MOL    H2421770   1.621   5.913   2.011  1.4642  1.6756  1.5905
   84MOL    H2521771   1.780   5.877   1.934 -1.3363 -1.5647  1.4232
   84MOL    H2621772   1.560   5.455   1.879  1.9860  3.7577 -0.1890
   84MOL    H2721773   1.409   5.533   1.913 -0.9637 -0.0590 -1.0021
   84MOL    C2821774   1.387   5.388   1.771  0.4470 -0.2977 -0.9033
   84MOL    N2921775   1.303   5.443   1.669 -0.5735  0.7390 -0.3378
   84MOL    C3021776   1.284   5.397   1.547  0.3979 -0.0197 -0.6753
   84MOL    O3121777   1.332   5.292   1.502 -0.4552 -0.3706 -0.0346
   84MOL    C3221778   1.216   5.496   1.449 -0.2078  0.1986 -0.3813
   84MOL    C3321779   1.291   5.314   1.870  0.3266 -0.5753  0.2225
   84MOL    H3421780   1.461   5.318   1.731  0.5572  0.2716 -1.7026
   84MOL    H3521781   1.259   5.531   1.693 -0.8071  0.2677  1.0318
   84MOL    H3621782   1.108   5.508   1.461 -0.3532 -0.1502 -1.3137
   84MOL    H3721783   1.262   5.594   1.439  1.4885 -0.5183  0.2201
   84MOL    H3821784   1.224   5.445   1.353  1.2565 -0.5913  0.1413
   84MOL    H3921785   1.237   5.391   1.925 -1.3511 -0.2025 -1.8579
   84MOL    H4021786   1.209   5.265   1.817 -0.6371 -0.9724  2.0458
   84MOL    C4121787   1.347   5.212   1.971 -0.1132  0.2063 -0.1204
   84MOL    N4221788   1.448   5.281   2.055 -0.5318 -0.3155  0.2683
   84MOL    C4321789   1.424   5.361   2.153  0.0272 -0.5016  0.0405
   84MOL    O4421790   1.316   5.409   2.167 -0.1423  0.3582 -0.0616
   84MOL    C4521791   1.523   5.373   2.268 -0.4212 -0.1977  0.2309
   84MOL    C4621792   1.398   5.083   1.909  0.7842 -0.6314 -0.0969
   84MOL    H4721793   1.265   5.178   2.033  1.5455 -1.2104  1.3469
   84MOL    H4821794   1.542   5.244   2.051  0.8175  2.7105  2.2123
   84MOL    H4921795   1.519   5.461   2.332 -0.2520  0.8296 -1.1585
   84MOL    H5021796   1.533   5.291   2.340 -0.6439  0.4310  0.9835
   84MOL    H5121797   1.619   5.379   2.218 -1.1784 -0.5913 -1.3326
   84MOL    H5221798   1.478   5.115   1.843  0.8127 -0.6585 -0.0760
   84MOL    H5321799   1.455   5.027   1.984  0.9169  0.0493  0.3084
   84MOL    C5421800   1.301   4.992   1.837  0.0355 -0.0130 -0.0756
   84MOL    N5521801   1.196   4.944   1.923  0.0401  0.0692 -0.3914
   84MOL    C5621802   1.192   4.880   2.042  0.1314 -0.5482 -0.0132
   84MOL    O5721803   1.295   4.864   2.106  0.4874  0.1908 -0.0389
   84MOL    C5821804   1.053   4.837   2.089  0.2561 -0.2115 -0.4401
   84MOL    C5921805   1.372   4.871   1.779  0.5662  0.2061 -0.1393
   84MOL    H6021806   1.254   5.047   1.755  0.9369 -0.6912 -1.0742
   84MOL    H6121807   1.111   4.923   1.873  1.0078 -1.7120 -1.3478
   84MOL    H6221808   1.027   4.736   2.057 -2.5810  0.2954  0.1164
   84MOL    H6321809   1.058   4.838   2.198  6.1724 -0.0823 -0.5228
   84MOL    H6421810   0.974   4.906   2.062  0.4654 -0.3824 -1.5163
   84MOL    H6521811   1.454   4.832   1.839 -0.3346 -2.6057 -0.6475
   84MOL    H6621812   1.306   4.784   1.782 -0.5386  1.0112 -0.7709
   84MOL    C6721813   1.427   4.886   1.633 -0.9774 -0.3771  0.7179
   84MOL    N6821814   1.479   5.016   1.602  0.3074  0.4997 -0.0261
   84MOL    C6921815   1.601   5.063   1.616  0.4224 -0.5449  0.0885
   84MOL    O7021816   1.694   4.998   1.670 -0.3768 -0.0397  0.0277
   84MOL    C7121817   1.651   5.190   1.543  0.2399  0.3518 -0.2772
   84MOL    C7221818   1.322   4.854   1.527 -0.3815 -0.6594 -0.3052
   84MOL    H7321819   1.507   4.814   1.617 -1.0812 -0.0906 -1.2353
   84MOL    H7421820   1.416   5.079   1.554 -0.2556  1.0833  1.4470
   84MOL    H7521821   1.581   5.237   1.474 -1.0209  0.1014  0.8101
   84MOL    H7621822   1.666   5.259   1.626 -2.8478 -0.3456  0.9404
   84MOL    H7721823   1.742   5.178   1.484 -0.0941 -0.4528 -0.6372
   84MOL    H7821824   1.238   4.922   1.538 -0.6276 -0.3578 -3.5831
   84MOL    H7921825   1.367   4.872   1.429  0.2422  0.0591  0.1154
   84MOL    C8021826   1.255   4.720   1.520 -0.1945  0.0900 -0.2949
   84MOL    N8121827   1.355   4.609   1.502 -0.0133 -0.5921  0.4890
   84MOL    C8221828   1.368   4.506   1.588 -0.5259 -0.3914 -1.0198
   84MOL    O8321829   1.282   4.478   1.673 -0.1228  0.1671  0.2943
   84MOL    C8421830   1.486   4.414   1.574  0.2327 -0.5281  0.5421
   84MOL    C8521831   1.141   4.708   1.422 -0.7285 -0.2037  0.2708
   84MOL    H8621832   1.214   4.717   1.621 -0.1145  3.3938 -0.1218
   84MOL    H8721833   1.427   4.629   1.435  0.3442  1.2478  1.3933
   84MOL    H8821834   1.466   4.329   1.508  2.1949  0.3190 -1.2336
   84MOL    H8921835   1.579   4.455   1.535 -0.8706  1.6522  0.1447
   84MOL    H9021836   1.511   4.361   1.666 -1.0458 -0.8025  0.7343
   84MOL    H9121837   1.164   4.755   1.327 -0.3689 -0.5339  0.1933
   84MOL    H9221838   1.122   4.605   1.391 -1.0510  0.1885 -0.8261
   84MOL    C9321839   1.012   4.777   1.465  0.4206 -0.4090 -0.2118
   84MOL    N9421840   0.946   4.683   1.564  0.3128  0.0878  0.3982
   84MOL    C9521841   0.938   4.704   1.692  0.3991  0.0612 -0.1652
   84MOL    O9621842   0.979   4.804   1.748 -0.1360 -0.2114 -0.4095
   84MOL    C9721843   0.869   4.601   1.781  0.1254  0.6848 -0.2302
   84MOL    C9821844   0.918   4.806   1.343 -0.0498  0.8739  0.1288
   84MOL    H9921845   1.034   4.872   1.514  2.7666 -0.7042 -0.6556
   84MOL   H10021846   0.912   4.596   1.526  3.0959 -0.3895 -1.0971
   84MOL   H10121847   0.951   4.539   1.820 -0.2133  0.7306  0.5749
   84MOL   H10221848   0.811   4.648   1.860 -1.4098 -0.3478 -0.7273
   84MOL   H10321849   0.801   4.541   1.721 -1.3085  0.0895  1.9174
   84MOL   H10421850   0.959   4.888   1.284 -2.9316  0.8972 -1.9187
   84MOL   H10521851   0.913   4.721   1.275  1.0959 -0.4399  1.6360
   84MOL   C10621852   0.768   4.827   1.379  0.4528  0.0696 -0.1581
   84MOL   N10721853   0.689   4.727   1.298 -0.1916 -0.0763  0.4132
   84MOL   C10821854   0.663   4.598   1.341  0.3631 -0.6597  0.6456
   84MOL   O10921855   0.707   4.544   1.439 -0.0093 -0.2968  0.2076
   84MOL   C11021856   0.579   4.514   1.250 -0.3919  0.4805 -0.7443
   84MOL   C11121857   0.709   4.968   1.342  0.3779 -0.2972  0.6502
   84MOL   H11221858   0.751   4.821   1.486  0.0397  2.0590 -0.0939
   84MOL   H11321859   0.653   4.754   1.208  1.9935 -0.0436 -0.4771
   84MOL   H11421860   0.630   4.508   1.153 -1.1625 -1.7748 -1.0312
   84MOL   H11521861   0.570   4.409   1.275  0.6384  0.4223 -0.5811
   84MOL   H11621862   0.478   4.555   1.244 -1.2951 -1.3937  1.3804
   84MOL   H11721863   0.696   4.986   1.236  1.3311 -0.0010  0.5827
   84MOL   H11821864   0.606   4.963   1.377  0.2573 -2.7649  0.0672
   84MOL   C11921865   0.777   5.089   1.412  0.9619 -0.3917 -0.3026
   84MOL   N12021866   0.776   5.066   1.556 -0.1067  0.0743  0.9533
   84MOL   C12121867   0.873   5.107   1.638 -0.4706  0.6182 -0.8925
   84MOL   O12221868   0.980   5.162   1.596 -0.4823  0.3798 -0.3774
   84MOL   C12321869   0.852   5.092   1.790 -1.0212  0.2611 -0.4527
   84MOL   C12421870   0.707   5.221   1.376  0.2061  0.0855 -0.3874
   84MOL   H12521871   0.880   5.088   1.376  1.4717 -0.2934  1.1357
   84MOL   H12621872   0.694   5.023   1.595 -0.3967 -0.9780 -0.7579
   84MOL   H12721873   0.793   5.177   1.823 -0.6960 -0.3132  1.6661
   84MOL   H12821874   0.792   5.002   1.805  2.2337 -1.8457  0.3890
   84MOL   H12921875   0.947   5.091   1.844 -1.2127 -1.7429 -0.1015
   84MOL   H13021876   0.689   5.215   1.268 -0.1798 -1.9272 -0.2216
   84MOL   H13121877   0.606   5.203   1.412  0.0638 -0.3601 -0.9927
   84MOL   C13221878   0.779   5.351   1.407  0.1732  0.4823 -0.0494
   84MOL   N13321879   0.677   5.449   1.437  0.3723 -0.6616  0.3526
   84MOL   C13421880   0.609   5.480   1.548  0.0722 -0.1415 -0.4413
   84MOL   O13521881   0.531   5.576   1.550 -0.4821  0.2361 -0.1691
   84MOL   C13621882   0.641   5.402   1.681  0.3793 -0.1748  0.3982
   84MOL   C13721883   0.864   5.414   1.293 -0.6467  0.5158 -0.2093
   84MOL   H13821884   0.846   5.334   1.490 -0.6310 -0.8595  0.3352
   84MOL   H13921885   0.662   5.525   1.371 -0.4021  1.4988  2.9215
   84MOL   H14021886   0.553   5.406   1.746  0.5732  1.3755  0.5672
   84MOL   H14121887   0.669   5.302   1.649  0.7644  0.4550 -1.2758
   84MOL   H14221888   0.730   5.454   1.715  1.2016 -1.6919  0.5901
   84MOL   H14321889   0.798   5.464   1.222  1.5585  0.2604 -2.5555
   84MOL   H14421890   0.930   5.497   1.322 -1.9548  1.7549 -0.7033
   84MOL   C14521891   0.943   5.320   1.189 -0.1777 -0.6640  0.0846
   84MOL   N14621892   1.059   5.240   1.253  0.1844 -0.5392 -0.8253
   84MOL   C14721893   1.137   5.144   1.200 -0.4794  0.1686  0.2417
   84MOL   O14821894   1.097   5.086   1.094 -0.0730 -0.2713 -0.1949
   84MOL   C14921895   1.254   5.099   1.280 -0.1287  0.0649  0.2168
   84MOL   C15021896   1.008   5.387   1.066 -0.3468  0.2209  0.9355
   84MOL   H15121897   0.863   5.254   1.156  0.6190 -1.6401  0.0892
   84MOL   H15221898   1.095   5.267   1.343  0.0690 -0.2211 -0.8735
   84MOL   H15321899   1.317   5.188   1.276 -0.4746  0.3589  1.1114
   84MOL   H15421900   1.211   5.086   1.380  1.6925 -1.9654  0.7682
   84MOL   H15521901   1.306   5.012   1.240 -3.0335 -0.6551 -2.1672
   84MOL   H15621902   1.048   5.487   1.088 -0.5126  0.1834  1.4087
   84MOL   H15721903   1.097   5.343   1.020 -1.6304  0.1667 -1.6267
   84MOL   C15821904   0.907   5.400   0.953  1.0295  0.1495  0.3227
   84MOL   N15921905   0.890   5.264   0.883 -0.1840 -0.1692  0.2100
   84MOL   C16021906   0.784   5.235   0.806  0.3088 -0.6384 -0.1475
   84MOL   O16121907   0.679   5.303   0.812 -0.3026 -0.3035 -0.2773
   84MOL   C16221908   0.788   5.105   0.723  0.2308  0.5443  0.4374
   84MOL   C16321909   0.926   5.523   0.862 -0.2904 -0.4107 -0.4415
   84MOL   H16421910   0.811   5.422   1.000  0.1347 -1.9120 -0.4607
   84MOL   H16521911   0.968   5.200   0.886  0.7205  0.9725  1.4841
   84MOL   H16621912   0.726   5.024   0.762 -0.4158  0.0519 -1.5331
   84MOL   H16721913   0.743   5.121   0.625  1.0725 -0.0000 -0.0468
   84MOL   H16821914   0.891   5.071   0.714 -0.3184 -0.7710 -1.0742
   84MOL   H16921915   1.024   5.519   0.814 -0.6033 -0.6811 -1.0641
   84MOL   H17021916   0.870   5.497   0.773 -0.8097  0.3670 -0.3464
   84MOL   C17121917   0.901   5.672   0.902 -0.1182 -0.0860  0.3256
   84MOL   N17221918   0.975   5.712   1.027  0.3577 -0.2100  0.3442
   84MOL   C17321919   1.104   5.731   1.044  0.0221  0.6931  0.2655
   84MOL   O17421920   1.181   5.696   0.952  0.4868  0.2965 -0.3140
   84MOL   C17521921   1.158   5.809   1.166 -0.2513  0.4731  0.0032
   84MOL   C17621922   0.752   5.718   0.912 -0.2297 -0.0357  0.3440
   84MOL   H17721923   0.953   5.731   0.826 -1.3389 -1.5080 -1.6864
   84MOL   H17821924   0.914   5.732   1.105 -0.3360  1.4220 -0.5833
   84MOL   H17921925   1.115   5.759   1.253 -3.1389 -0.5715 -1.9195
   84MOL   H18021926   1.266   5.795   1.170 -0.4121 -1.0201 -0.4790
   84MOL   H18121927   1.119   5.911   1.164  3.7471  2.0764 -0.1295
   84MOL   H18221928   0.695   5.648   0.974 -0.3272 -0.6687 -0.4590
   84MOL   H18321929   0.743   5.820   0.950 -1.6003  0.0823 -0.2529
   84MOL   C18421930   0.674   5.714   0.778 -0.7157  0.2026  0.4702
   84MOL   N18521931   0.727   5.831   0.707 -0.6827 -0.2742  0.7717
   84MOL   C18621932   0.820   5.825   0.604  0.2768  0.7051  0.2165
   84MOL   O18721933   0.872   5.723   0.565 -0.3086 -0.1880  0.3039
   84MOL   C18821934   0.860   5.959   0.532  0.2444  0.3127  0.0780
   84MOL   C18921935   0.520   5.723   0.800 -0.0703  0.7534 -0.4017
   84MOL   H19021936   0.703   5.622   0.727 -2.1998 -0.5372  0.9624
   84MOL   H19121937   0.694   5.925   0.723  0.9153  0.4198  0.0548
   84MOL   H19221938   0.839   6.043   0.599  1.4995 -1.2404  2.4938
   84MOL   H19321939   0.967   5.973   0.521  0.3623 -1.3936 -1.1459
   84MOL   H19421940   0.821   5.977   0.431  1.1383 -0.5035 -0.4146
   84MOL   H19521941   0.492   5.767   0.896 -2.1456 -0.0604 -0.5893
   84MOL   H19621942   0.482   5.806   0.740  0.6800 -0.1710 -2.1881
   84MOL   C19721943   0.442   5.585   0.788 -0.4384 -0.5850 -0.5604
   84MOL   N19821944   0.489   5.494   0.886  0.5263  0.2482 -0.3833
   84MOL   C19921945   0.461   5.494   1.015  0.3831 -0.2370 -0.1748
   84MOL   O20021946   0.402   5.586   1.074  0.4314  0.0028 -0.1125
   84MOL   C20121947   0.514   5.376   1.099  0.1860 -0.3153 -0.2015
   84MOL   C20221948   0.451   5.506   0.653  0.4584 -0.6720  0.0857
   84MOL   H20321949   0.341   5.606   0.822  0.6207  1.7659  1.2736
   84MOL   H20421950   0.557   5.424   0.857 -1.8506 -2.2280 -0.1798
   84MOL   H20521951   0.597   5.313   1.067 -0.6177 -1.7493  0.4790
   84MOL   H20621952   0.538   5.428   1.192 -1.5231  0.6359 -0.2840
   84MOL   H20721953   0.441   5.303   1.134  2.8805 -1.7697  2.7239
   84MOL   H20821954   0.553   5.482   0.622  1.2901  0.1206  2.1626
   84MOL   H20921955   0.401   5.409   0.658 -1.8749  0.3528 -2.0151
   84MOL   C21021956   0.382   5.572   0.530 -0.0904  0.0055 -0.4976
   84MOL   N21121957   0.244   5.528   0.528  0.2932 -0.1053  0.2798
   84MOL   C21221958   0.131   5.605   0.536  0.7577 -0.2060  1.1305
   84MOL   O21321959   0.140   5.726   0.555  0.4300 -0.4836 -0.1066
   84MOL   C21421960   7.835   5.541   0.515 -0.5871 -0.6160  0.1453
   84MOL   C21521961   0.441   5.550   0.387 -0.2841 -0.1508 -0.4277
   84MOL   H21621962   0.390   5.680   0.543  1.4129 -0.0512 -0.8590
   84MOL   H21721963   0.228   5.435   0.493  1.1220  0.3216 -1.2679
   84MOL   H21821964   0.015   5.448   0.568 -0.7652 -0.4239  0.5585
   84MOL   H21921965   7.751   5.602   0.550 -0.2100  1.4258 -2.4010
   84MOL   H22021966   7.813   5.527   0.410 -4.0637  2.6575  0.3143
   84MOL   H22121967   0.459   5.442   0.379 -1.3357 -0.3828  0.1973
   84MOL   H22221968   0.373   5.573   0.305  1.0420 -0.1133 -1.5226
   84MOL   C22321969   0.576   5.616   0.356  0.1235  0.7755  0.2274
   84MOL   N22421970   0.567   5.759   0.386  0.1580 -0.1315  0.2813
   84MOL   C22521971   0.486   5.850   0.324 -0.2307 -0.5020  0.2076
   84MOL   O22621972   0.442   5.824   0.215 -0.2517  0.0988  0.3128
   84MOL   C22721973   0.438   5.974   0.401 -0.0829 -0.3511  0.2698
   84MOL   C22821974   0.651   5.574   0.229 -0.2831 -0.8550  0.8101
   84MOL   H22921975   0.634   5.575   0.439 -0.7949 -1.1019 -0.0340
   84MOL   H23021976   0.621   5.781   0.469  0.6055 -3.6664  0.9948
   84MOL   H23121977   0.460   6.065   0.345  0.9252 -0.1512  0.9799
   84MOL   H23221978   0.330   5.966   0.415 -0.1423  1.5379  0.9899
   84MOL   H23321979   0.480   5.985   0.501  0.2675 -0.0598  0.0904
   84MOL   H23421980   0.635   5.470   0.204  2.1125 -0.6151 -1.8726
   84MOL   H23521981   0.604   5.626   0.146  0.5705  0.1517  0.9400
   84MOL   C23621982   0.805   5.587   0.219  0.8376  0.6071  0.7036
   84MOL   N23721983   0.862   5.530   0.336 -0.6633 -0.1045 -0.2151
   84MOL   C23821984   0.867   5.404   0.364 -0.0291 -0.5461 -0.5565
   84MOL   O23921985   0.819   5.315   0.301 -0.0640  0.3475  0.3951
   84MOL   C24021986   0.936   5.370   0.494 -0.1985 -0.7193  0.4047
   84MOL   C24121987   0.847   5.736   0.211  0.2852  0.1057  0.5891
   84MOL   H24221988   0.827   5.534   0.126 -1.5048  1.2550 -0.2697
   84MOL   H24321989   0.922   5.591   0.391 -1.0339  0.1193 -0.0589
   84MOL   H24421990   0.891   5.414   0.584  0.2672  0.8255 -0.1018
   84MOL   H24521991   0.951   5.264   0.511  0.2016 -0.3865  2.2689
   84MOL   H24621992   1.039   5.405   0.494 -0.1543 -0.8447  1.1644
   84MOL   H24721993   0.802   5.791   0.294  0.8975  1.9247 -0.2512
   84MOL   H24821994   0.955   5.736   0.229  0.6159  2.2932 -1.2105
   84MOL   C24921995   0.824   5.810   0.074  0.3580 -0.2297  0.4083
   84MOL   N25021996   0.920   5.770   7.813  0.1790 -0.3540 -0.1649
   84MOL   C25121997   0.896   5.674   7.723  0.2616  0.0523 -0.1697
   84MOL   O25221998   0.792   5.607   7.723  0.3094  0.2107 -0.2872
   84MOL   C25321999   0.997   5.660   7.611  0.0176 -0.1562  0.2779
   84MOL   C25422000   0.830   5.962   0.100 -0.0857 -0.2950 -0.5964
   84MOL   H25522001   0.719   5.798   0.046  0.5683  2.3321 -1.6601
   84MOL   H25622002   0.981   5.846   7.786 -1.1848  0.2144 -1.6824
   84MOL   H25722003   1.074   5.738   7.616 -0.0674 -0.0641  0.1480
   84MOL   H25822004   1.045   5.562   7.611 -0.9078 -0.6070 -0.7345
   84MOL   H25922005   0.943   5.680   7.519 -1.1304 -1.4999  0.6526
   84MOL   H26022006   0.929   5.999   0.126 -0.8193  2.1614 -1.2096
   84MOL   H26122007   0.790   6.021   0.018 -2.6251 -2.0897 -0.7192
   84MOL   H26222008   0.764   5.980   0.185 -1.0907 -2.3812 -0.8985
   85MOL     C122009   4.332   3.919   4.204  1.2922 -0.2250 -0.1649
   85MOL     N222010   4.383   4.040   4.137 -1.7352 -0.1271  0.1291
   85MOL     C322011   4.414   4.036   4.008 -0.6299  0.6307 -0.1737
   85MOL     O422012   4.404   3.935   3.940  0.5976  0.0390  0.4571
   85MOL     C522013   4.464   4.162   3.943  0.2111 -0.0620  0.4719
   85MOL     C622014   4.286   3.940   4.345  0.4854 -0.1682 -0.6996
   85MOL     H722015   4.250   3.874   4.146  0.0197 -0.3890  1.7159
   85MOL     H822016   4.395   4.125   4.192  0.2209 -1.2857  1.5508
   85MOL     H922017   4.570   4.181   3.953  0.6713 -1.1520 -2.0164
   85MOL    H1022018   4.432   4.160   3.839 -0.8031  0.0908  0.7731
   85MOL    H1122019   4.413   4.254   3.975 -0.3510 -0.5175  0.9101
   85MOL    H1222020   4.365   3.998   4.393  0.1499  0.6664 -1.1562
   85MOL    H1322021   4.200   4.007   4.340  1.3810  0.8580 -3.1654
   85MOL    H1422022   4.413   3.846   4.201  0.4184 -1.1709 -1.8880
   85MOL    C1522023   4.232   3.817   4.419  0.2835 -0.7797  0.5952
   85MOL    N1622024   4.152   3.855   4.540  0.3669  0.1121 -0.0623
   85MOL    C1722025   4.179   3.946   4.634 -0.1410 -0.1257  0.6722
   85MOL    O1822026   4.262   4.032   4.626 -0.4219 -0.1589  0.1103
   85MOL    C1922027   4.086   3.942   4.756  0.2622  0.1892 -0.8714
   85MOL    C2022028   4.345   3.720   4.461 -0.5588  0.0839  1.0502
   85MOL    H2122029   4.151   3.774   4.361  0.4152 -0.8590  0.4697
   85MOL    H2222030   4.071   3.798   4.558  1.3795 -1.4300 -0.3439
   85MOL    H2322031   4.062   4.045   4.781 -0.0390  0.2428 -1.3652
   85MOL    H2422032   3.988   3.897   4.740 -0.7676  1.9575  0.3822
   85MOL    H2522033   4.131   3.900   4.846  1.3864  0.3064 -1.3754
   85MOL    H2622034   4.396   3.689   4.370 -0.4000 -1.4858  1.6553
   85MOL    H2722035   4.423   3.768   4.521 -0.1010  0.1624  0.4021
   85MOL    C2822036   4.298   3.591   4.526  0.1362 -0.3721 -0.3889
   85MOL    N2922037   4.408   3.544   4.599 -0.3707 -0.3636  0.1861
   85MOL    C3022038   4.444   3.579   4.723  0.6178 -0.7631  0.1582
   85MOL    O3122039   4.364   3.611   4.815 -0.3470 -0.2432  0.1951
   85MOL    C3222040   4.594   3.567   4.748  0.3608  0.0915 -0.4502
   85MOL    C3322041   4.236   3.485   4.427  0.5707  1.0753  0.0756
   85MOL    H3422042   4.228   3.623   4.602  0.4320 -0.7634  0.0494
   85MOL    H3522043   4.466   3.485   4.541  0.0654  1.2319 -1.0297
   85MOL    H3622044   4.645   3.653   4.705  0.4632  0.3528  0.1770
   85MOL    H3722045   4.623   3.561   4.853 -0.8159 -2.2050 -0.2221
   85MOL    H3822046   4.631   3.473   4.706  1.9546  0.6727 -0.3881
   85MOL    H3922047   4.158   3.531   4.366 -0.2944  0.8857  1.0128
   85MOL    H4022048   4.315   3.453   4.360  0.2863 -1.0755  0.7364
   85MOL    C4122049   4.164   3.366   4.493  1.0039 -0.2223 -0.2747
   85MOL    N4222050   4.255   3.264   4.555  0.5646  0.4314 -0.0378
   85MOL    C4322051   4.228   3.185   4.657 -0.7424 -0.7898  0.1098
   85MOL    O4422052   4.129   3.205   4.724 -0.1166 -0.6510 -0.1976
   85MOL    C4522053   4.340   3.087   4.705  0.2457  0.0767 -0.2213
   85MOL    C4622054   4.065   3.297   4.388 -0.5695 -0.2112  0.5979
   85MOL    H4722055   4.102   3.406   4.573  1.6380 -0.1512  0.1854
   85MOL    H4822056   4.349   3.254   4.520  0.5312 -0.7467  0.2001
   85MOL    H4922057   4.438   3.104   4.661  0.9698 -1.4713  0.7309
   85MOL    H5022058   4.368   3.101   4.809 -0.4108 -1.7703  0.2250
   85MOL    H5122059   4.311   2.982   4.692  2.0840 -0.7521  1.9638
   85MOL    H5222060   4.040   3.375   4.316  0.6216 -0.3778 -0.0004
   85MOL    H5322061   4.118   3.217   4.336  2.2732  2.6262 -1.0789
   85MOL    C5422062   3.940   3.240   4.445  0.4892  0.9735 -0.3428
   85MOL    N5522063   3.871   3.148   4.346  0.0621  0.5029  0.3870
   85MOL    C5622064   3.843   3.021   4.358 -0.3026  0.0205  0.2453
   85MOL    O5722065   3.857   2.950   4.454  0.0278  0.1563  0.2705
   85MOL    C5822066   3.792   2.948   4.234 -0.1057  1.0484  0.0740
   85MOL    C5922067   3.833   3.343   4.493 -0.0949  0.2519  0.1946
   85MOL    H6022068   3.966   3.178   4.531 -1.3605 -0.1044 -0.5388
   85MOL    H6122069   3.852   3.187   4.254 -2.4451 -1.1627  0.1572
   85MOL    H6222070   3.859   2.967   4.150 -0.4307  0.1652 -0.3962
   85MOL    H6322071   3.792   2.839   4.241 -0.5141  1.1465  1.9171
   85MOL    H6422072   3.699   2.991   4.197 -0.7159  0.8906  1.4017
   85MOL    H6522073   3.887   3.423   4.543 -0.9794  0.9455  0.0455
   85MOL    H6622074   3.785   3.404   4.417 -0.8929 -0.2396  0.2983
   85MOL    C6722075   3.734   3.300   4.612 -0.0724  0.1736  0.5064
   85MOL    N6822076   3.810   3.241   4.726 -0.4764 -0.0306 -0.6295
   85MOL    C6922077   3.791   3.272   4.860  0.5993  0.2921  0.3160
   85MOL    O7022078   3.739   3.376   4.898  0.4572  0.5803  0.5095
   85MOL    C7122079   3.841   3.179   4.963  0.4212 -0.1192  0.3842
   85MOL    C7222080   3.623   3.203   4.562 -0.7600  0.4287 -0.8470
   85MOL    H7322081   3.687   3.385   4.662 -1.1753 -0.2455  0.1835
   85MOL    H7422082   3.840   3.147   4.707 -0.3589 -0.0185 -0.5099
   85MOL    H7522083   3.808   3.220   5.058  0.0970  2.1248 -0.6751
   85MOL    H7622084   3.792   3.081   4.956  0.1505  0.0279  0.2144
   85MOL    H7722085   3.949   3.173   4.951  0.2171 -1.6435 -0.9720
   85MOL    H7822086   3.684   3.115   4.540  3.0720  1.7440  3.7182
   85MOL    H7922087   3.563   3.173   4.649 -1.2942  1.8674 -0.7013
   85MOL    C8022088   3.531   3.258   4.439  0.4847 -0.0959  0.1227
   85MOL    N8122089   3.465   3.383   4.481 -0.0191  0.6951 -0.0738
   85MOL    C8222090   3.473   3.497   4.420  0.1735 -0.8582  0.3707
   85MOL    O8322091   3.563   3.529   4.343 -0.4412  0.2199  0.1304
   85MOL    C8422092   3.360   3.596   4.440  0.2926  0.3529 -0.0422
   85MOL    C8522093   3.426   3.154   4.375 -0.1677 -0.4095 -0.1343
   85MOL    H8622094   3.606   3.267   4.361  0.6284  0.3407  0.3082
   85MOL    H8722095   3.397   3.375   4.555 -1.7619  0.2842 -1.6780
   85MOL    H8822096   3.309   3.585   4.536 -0.1084 -1.1347 -0.4149
   85MOL    H8922097   3.406   3.694   4.436 -0.7509  0.9072  1.2454
   85MOL    H9022098   3.286   3.582   4.361  0.1918  2.2635 -0.2996
   85MOL    H9122099   3.482   3.063   4.354 -0.2762 -0.2291 -1.2383
   85MOL    H9222100   3.347   3.127   4.445 -0.0986  2.0439  0.9201
   85MOL    C9322101   3.369   3.210   4.240 -0.4708  0.1608 -0.4179
   85MOL    N9422102   3.236   3.148   4.211  0.8384  0.2083 -0.1391
   85MOL    C9522103   3.118   3.214   4.196 -0.7224 -0.7086 -0.4054
   85MOL    O9622104   3.114   3.338   4.190  0.3703 -0.0981  0.5520
   85MOL    C9722105   2.994   3.141   4.163  0.3352 -0.3545 -1.2596
   85MOL    C9822106   3.453   3.185   4.115 -0.0693  0.1396  0.3638
   85MOL    H9922107   3.359   3.317   4.261  1.1528  0.0285  1.1991
   85MOL   H10022108   3.221   3.049   4.223  1.6421  0.0239 -0.6154
   85MOL   H10122109   2.978   3.077   4.249 -0.3926  2.0785  0.4686
   85MOL   H10222110   2.910   3.212   4.165  1.6856  1.2480 -0.1251
   85MOL   H10322111   2.994   3.082   4.071  1.1515  1.2426 -2.3142
   85MOL   H10422112   3.557   3.218   4.123  1.2326 -3.0102 -2.2367
   85MOL   H10522113   3.469   3.081   4.086  0.8037  0.8375 -1.7789
   85MOL   C10622114   3.399   3.256   3.983  0.2077 -0.4234  0.2212
   85MOL   N10722115   3.461   3.215   3.858 -0.0428  0.1792  0.8807
   85MOL   C10822116   3.436   3.104   3.786  0.0143  0.2648 -0.3341
   85MOL   O10922117   3.347   3.022   3.819  0.5227 -1.1412  0.1873
   85MOL   C11022118   3.532   3.068   3.677  0.2838 -0.2140  0.3355
   85MOL   C11122119   3.391   3.416   3.995 -0.0810  0.7463  0.0413
   85MOL   H11222120   3.297   3.218   3.973  0.2951 -0.5983 -0.0091
   85MOL   H11322121   3.531   3.282   3.829 -0.3325 -0.9813 -2.7933
   85MOL   H11422122   3.517   2.965   3.646 -0.6596  0.0363 -0.0422
   85MOL   H11522123   3.522   3.129   3.588 -2.7114  1.1968  1.5871
   85MOL   H11622124   3.630   3.058   3.724  0.6968  1.2031 -0.2042
   85MOL   H11722125   3.369   3.444   4.098 -1.5650 -1.8129  0.4636
   85MOL   H11822126   3.486   3.457   3.961  0.4737 -0.3577  0.2666
   85MOL   C11922127   3.285   3.488   3.906 -0.4360  0.2461 -0.1422
   85MOL   N12022128   3.299   3.452   3.760 -0.1630 -0.9180 -0.1714
   85MOL   C12122129   3.198   3.430   3.670 -0.1148 -0.3605 -0.2617
   85MOL   O12222130   3.078   3.426   3.697 -0.1145  0.2891  0.1692
   85MOL   C12322131   3.237   3.416   3.522 -0.2512 -0.5189  0.3895
   85MOL   C12422132   3.272   3.641   3.920  0.0417 -0.6281 -0.4401
   85MOL   H12522133   3.190   3.444   3.936  0.1924 -0.6458  0.5583
   85MOL   H12622134   3.393   3.454   3.722 -0.4875  1.2998 -0.9167
   85MOL   H12722135   3.263   3.510   3.473 -0.1974 -0.9534 -0.4272
   85MOL   H12822136   3.325   3.353   3.509  0.4987  0.6660 -0.5102
   85MOL   H12922137   3.158   3.373   3.461  0.5501 -1.4443 -0.0060
   85MOL   H13022138   3.267   3.666   4.026 -0.9074 -0.8529 -0.4272
   85MOL   H13122139   3.369   3.683   3.892 -0.6575  2.8973  2.0294
   85MOL   C13222140   3.154   3.721   3.847 -0.2370  0.3271  0.2954
   85MOL   N13322141   3.210   3.806   3.746 -0.0897  0.1310 -0.2903
   85MOL   C13422142   3.200   3.797   3.609 -0.0465 -0.4922  0.3288
   85MOL   O13522143   3.133   3.711   3.556 -0.9289  0.3191  0.0757
   85MOL   C13622144   3.278   3.902   3.521 -0.4049 -0.4652 -0.0998
   85MOL   C13722145   3.061   3.803   3.941 -0.0378 -0.0372 -0.4577
   85MOL   H13822146   3.092   3.648   3.793 -0.2284  1.1074 -0.7953
   85MOL   H13922147   3.279   3.873   3.777 -1.1983  1.4796 -0.6609
   85MOL   H14022148   3.379   3.904   3.561 -0.2647  0.3646 -0.4843
   85MOL   H14122149   3.279   3.874   3.415 -0.2517 -0.5638 -0.0724
   85MOL   H14222150   3.237   4.001   3.539 -2.0474 -0.9382 -1.0953
   85MOL   H14322151   3.111   3.852   4.026 -0.2977 -0.3493 -0.1244
   85MOL   H14422152   3.017   3.888   3.889  0.1082 -0.3635 -1.1131
   85MOL   C14522153   2.950   3.726   4.015 -0.6446 -1.0721 -0.3153
   85MOL   N14622154   2.832   3.813   4.053  0.9662 -0.0336  0.0004
   85MOL   C14722155   2.823   3.921   4.135  0.4889 -0.2256  0.0562
   85MOL   O14822156   2.919   3.946   4.211 -0.3494 -0.5199  0.3273
   85MOL   C14922157   2.682   3.986   4.160  0.2070 -0.0410  0.1831
   85MOL   C15022158   3.004   3.642   4.137  0.5010  0.1860 -0.3403
   85MOL   H15122159   2.916   3.650   3.944 -1.4881 -0.6994 -0.3167
   85MOL   H15222160   2.748   3.792   4.000 -0.2373  0.9321  1.4843
   85MOL   H15322161   2.663   4.073   4.097 -0.2897  0.5492  1.1556
   85MOL   H15422162   2.597   3.918   4.161 -0.2305  0.3697 -3.2275
   85MOL   H15522163   2.680   4.039   4.255  0.1784 -0.3824  0.3728
   85MOL   H15622164   3.066   3.562   4.096  2.3307  1.4353 -0.0863
   85MOL   H15722165   3.076   3.698   4.197 -0.4696  0.1725  0.8612
   85MOL   C15822166   2.905   3.608   4.251  0.0075  0.2714  0.3411
   85MOL   N15922167   2.972   3.562   4.368  0.8263  0.4330  0.4989
   85MOL   C16022168   2.931   3.586   4.497 -1.2009  0.4132 -0.1122
   85MOL   O16122169   2.834   3.656   4.533  0.0937 -0.3680  0.0804
   85MOL   C16222170   3.021   3.535   4.605 -0.2687  0.0706 -0.1200
   85MOL   C16322171   2.797   3.508   4.198  0.9223  0.1694 -0.3585
   85MOL   H16422172   2.849   3.696   4.282 -0.3028  0.7654 -1.5806
   85MOL   H16522173   3.035   3.486   4.348 -3.6439 -3.2047 -0.6586
   85MOL   H16622174   3.045   3.604   4.685  1.9159 -1.6321  0.7476
   85MOL   H16722175   2.962   3.452   4.645  1.0173  0.0455  1.7870
   85MOL   H16822176   3.121   3.503   4.574 -0.1478 -0.5251  0.8661
   85MOL   H16922177   2.770   3.538   4.097  0.5761  0.0151 -0.3117
   85MOL   H17022178   2.847   3.411   4.189  1.4807  0.2913  1.3573
   85MOL   C17122179   2.665   3.485   4.274 -0.4279 -0.3035  0.2611
   85MOL   N17222180   2.590   3.387   4.199 -0.0737  0.0220 -0.5728
   85MOL   C17322181   2.599   3.253   4.216  0.0847 -0.0827 -0.5376
   85MOL   O17422182   2.676   3.194   4.287 -0.1560 -0.7270  0.2975
   85MOL   C17522183   2.500   3.179   4.125  0.3505 -0.2944  0.1186
   85MOL   C17622184   2.586   3.622   4.263 -0.2914 -0.4390  0.3464
   85MOL   H17722185   2.677   3.446   4.375 -1.7790  0.0421  0.5693
   85MOL   H17822186   2.513   3.421   4.143 -1.1316  0.6822  1.2453
   85MOL   H17922187   2.433   3.253   4.081  1.7062  1.4104  0.8896
   85MOL   H18022188   2.558   3.137   4.043  4.1475  0.8612  2.1291
   85MOL   H18122189   2.439   3.104   4.175 -1.5383  2.5376  2.2105
   85MOL   H18222190   2.646   3.697   4.313  2.1408 -3.2386  1.7913
   85MOL   H18322191   2.581   3.645   4.156  1.9709 -2.6466 -0.2889
   85MOL   C18422192   2.452   3.611   4.328  0.2291  0.0220 -0.0596
   85MOL   N18522193   2.367   3.720   4.277 -0.6745 -0.5792 -0.1589
   85MOL   C18622194   2.279   3.696   4.176  0.5166  0.5627  0.1572
   85MOL   O18722195   2.256   3.590   4.125  0.4733  0.5728 -0.4069
   85MOL   C18822196   2.207   3.817   4.127  0.2575 -0.1488 -0.0817
   85MOL   C18922197   2.443   3.607   4.483  0.4921 -0.1418 -0.3511
   85MOL   H19022198   2.414   3.516   4.292 -0.1442  0.5097 -0.9751
   85MOL   H19122199   2.358   3.801   4.337 -1.7737 -1.1296  0.4333
   85MOL   H19222200   2.197   3.876   4.218 -0.0246 -1.2963  0.6468
   85MOL   H19322201   2.255   3.875   4.049 -1.3648  2.7633  0.9799
   85MOL   H19422202   2.104   3.804   4.093  0.4045  0.3525 -0.7241
   85MOL   H19522203   2.348   3.559   4.505  0.8860 -0.0299  1.6616
   85MOL   H19622204   2.523   3.539   4.513  0.5413  0.3500  0.6408
   85MOL   C19722205   2.440   3.746   4.565 -0.4097  0.1234 -0.0972
   85MOL   N19822206   2.570   3.813   4.563 -0.1258  0.1866 -0.0149
   85MOL   C19922207   2.607   3.940   4.543  0.5248  0.2402  0.2737
   85MOL   O20022208   2.536   4.032   4.510 -0.0094 -0.2202 -0.5565
   85MOL   C20122209   2.751   3.974   4.540  0.3215 -0.2603  0.3162
   85MOL   C20222210   2.390   3.733   4.710 -0.3949  0.2213  0.4716
   85MOL   H20322211   2.371   3.816   4.519  1.4551  1.5160 -0.8730
   85MOL   H20422212   2.640   3.757   4.610  0.5842  0.9094 -0.2008
   85MOL   H20522213   2.769   4.080   4.555 -0.3067 -0.2055  0.6923
   85MOL   H20622214   2.805   3.933   4.625 -2.0785  0.4835  2.2495
   85MOL   H20722215   2.792   3.956   4.440 -1.8832  0.7452 -0.8071
   85MOL   H20822216   2.435   3.642   4.749 -1.2084 -1.1193 -1.6308
   85MOL   H20922217   2.431   3.814   4.771  1.7900  0.3318 -1.0992
   85MOL   C21022218   2.238   3.733   4.730  0.1358  0.7648 -0.6749
   85MOL   N21122219   2.185   3.865   4.706 -0.0850 -0.0422  0.4802
   85MOL   C21222220   2.106   3.907   4.607  0.8241 -0.2563  0.0081
   85MOL   O21322221   2.085   3.837   4.504 -0.1821  0.1963  0.1376
   85MOL   C21422222   2.045   4.044   4.619 -0.4316  0.0107 -0.3389
   85MOL   C21522223   2.186   3.697   4.870  0.1018  0.0425  0.4148
   85MOL   H21622224   2.212   3.664   4.650 -1.6626  1.0010 -0.3030
   85MOL   H21722225   2.187   3.938   4.775 -3.2723 -0.6091  1.2766
   85MOL   H21822226   1.945   4.050   4.575  0.6570 -1.0544 -2.9990
   85MOL   H21922227   2.042   4.068   4.726 -2.6922  3.3960 -1.1034
   85MOL   H22022228   2.104   4.114   4.562 -0.0669  0.0448  0.0753
   85MOL   H22122229   2.229   3.609   4.919  0.5334  0.5585  0.9830
   85MOL   H22222230   2.199   3.776   4.945 -1.0935 -0.5212  1.2402
   85MOL   C22322231   2.037   3.679   4.868 -0.2164 -0.6502 -0.0919
   85MOL   N22422232   1.983   3.660   5.005  0.0953  0.4129  0.4212
   85MOL   C22522233   1.923   3.758   5.078  0.2230 -0.1360  0.4954
   85MOL   O22622234   1.932   3.877   5.049  0.7200 -0.3054 -0.3231
   85MOL   C22722235   1.843   3.714   5.193 -0.5385  0.4070  0.1008
   85MOL   C22822236   1.973   3.585   4.769  0.6581  0.5775 -0.5781
   85MOL   H22922237   1.999   3.774   4.830  1.1499 -0.2370 -0.4182
   85MOL   H23022238   1.979   3.562   5.029  1.8090  0.4663  1.0204
   85MOL   H23122239   1.832   3.606   5.205 -2.0089  0.1689 -2.9143
   85MOL   H23222240   1.892   3.749   5.284  0.3822 -1.2938  0.2916
   85MOL   H23322241   1.748   3.761   5.167  0.5522  1.4127 -2.2641
   85MOL   H23422242   1.871   3.625   4.768  1.0565  1.5796 -1.5869
   85MOL   H23522243   2.009   3.608   4.669  0.8168  3.6312  0.1109
   85MOL   C23622244   1.962   3.435   4.801  1.0757 -0.0071  0.3198
   85MOL   N23722245   2.085   3.389   4.864 -0.0178 -0.0152 -0.1695
   85MOL   C23822246   2.105   3.360   4.988 -0.8850  0.6002 -0.4390
   85MOL   O23922247   2.028   3.390   5.081 -0.1632  0.0220 -0.6024
   85MOL   C24022248   2.240   3.292   5.020  0.6185  0.3516 -1.0484
   85MOL   C24122249   1.933   3.359   4.668  0.0957  0.0296  0.0028
   85MOL   H24222250   1.873   3.418   4.862  1.4542  2.5463  1.6701
   85MOL   H24322251   2.165   3.387   4.803  1.3668  2.7819  1.4605
   85MOL   H24422252   2.249   3.207   4.952  0.3290 -1.3153  0.9446
   85MOL   H24522253   2.326   3.358   5.020 -0.1549  1.4083  0.8092
   85MOL   H24622254   2.240   3.246   5.119 -1.7934  1.9134 -0.2774
   85MOL   H24722255   2.026   3.381   4.616  0.7063  0.3752  1.2311
   85MOL   H24822256   1.942   3.253   4.692 -0.2519  0.7300  3.4608
   85MOL   C24922257   1.802   3.388   4.589  0.5146 -0.1176  0.6956
   85MOL   N25022258   1.811   3.512   4.512  0.1615  0.2863 -0.2384
   85MOL   C25122259   1.833   3.522   4.382  0.0144 -0.3390  0.2442
   85MOL   O25222260   1.845   3.420   4.305  0.3745 -0.0017  0.0881
   85MOL   C25322261   1.842   3.658   4.316  0.4926 -0.3414  0.6113
   85MOL   C25422262   1.673   3.378   4.670  0.1800 -0.5182  0.7595
   85MOL   H25522263   1.782   3.310   4.516  0.4917 -0.2543  0.8488
   85MOL   H25622264   1.790   3.598   4.563 -4.3914 -1.5981  1.3972
   85MOL   H25722265   1.789   3.640   4.222  1.3344 -0.1722  0.0977
   85MOL   H25822266   1.786   3.737   4.366  0.3485  1.0366 -1.6498
   85MOL   H25922267   1.947   3.683   4.300  0.5293 -0.1757  1.0952
   85MOL   H26022268   1.654   3.287   4.727 -0.5908 -0.5953  0.3874
   85MOL   H26122269   1.677   3.472   4.726 -0.8128  0.5484 -0.9077
   85MOL   H26222270   1.588   3.393   4.603  0.8213  0.3904  0.1386
   86MOL     C122271   2.080   7.455   4.109 -0.3222 -0.5458  0.2331
   86MOL     N222272   1.939   7.429   4.079  0.2041  0.5620 -0.0455
   86MOL     C322273   1.845   7.453   4.175  0.1764  0.2584  0.4315
   86MOL     O422274   1.873   7.497   4.288 -0.2596 -0.3210  0.3442
   86MOL     C522275   1.707   7.402   4.149 -0.6010  0.6091 -0.2698
   86MOL     C622276   2.175   7.348   4.043 -0.1325 -0.5331 -0.1287
   86MOL     H722277   2.112   7.553   4.074 -1.8970 -0.5016 -1.1779
   86MOL     H822278   1.915   7.376   3.996  2.0599 -0.2137 -0.1021
   86MOL     H922279   1.633   7.479   4.171  0.2483  1.1463  0.7293
   86MOL    H1022280   1.689   7.367   4.047 -1.3355 -0.6538  0.2749
   86MOL    H1122281   1.676   7.324   4.219  0.2903 -1.5043 -2.1627
   86MOL    H1222282   2.143   7.246   4.062 -1.6753  0.3966  2.6159
   86MOL    H1322283   2.158   7.368   3.937 -0.7123  1.0249  0.2443
   86MOL    H1422284   2.092   7.456   4.217 -1.5467  0.5816  0.3654
   86MOL    C1522285   2.327   7.353   4.083  0.7774  0.7998  0.2598
   86MOL    N1622286   2.353   7.369   4.225  0.4873  0.2099 -0.0250
   86MOL    C1722287   2.293   7.294   4.319  0.1073 -0.2180 -0.6170
   86MOL    O1822288   2.228   7.193   4.295  0.1932  0.4581  0.4764
   86MOL    C1922289   2.305   7.330   4.466 -0.6570 -0.1548  0.0208
   86MOL    C2022290   2.430   7.444   4.013 -0.1294 -0.5645  0.4100
   86MOL    H2122291   2.365   7.255   4.053 -0.3782  0.1400  0.9012
   86MOL    H2222292   2.405   7.448   4.262 -0.3140  0.6171  0.2383
   86MOL    H2322293   2.326   7.436   4.472 -0.5010 -0.2885  1.9744
   86MOL    H2422294   2.208   7.302   4.508 -0.8683  1.1049  0.3765
   86MOL    H2522295   2.380   7.276   4.523  1.3432  0.1566 -2.2490
   86MOL    H2622296   2.415   7.540   4.062  2.3262  0.4674 -0.7807
   86MOL    H2722297   2.530   7.407   4.037  0.1578 -0.2842 -0.3438
   86MOL    C2822298   2.409   7.454   3.859  0.0701 -0.0224 -0.3494
   86MOL    N2922299   2.406   7.320   3.797  0.5844 -0.7321  0.0579
   86MOL    C3022300   2.338   7.292   3.688  0.0360  0.0977 -0.1066
   86MOL    O3122301   2.278   7.374   3.616 -0.5801  0.2116  0.0106
   86MOL    C3222302   2.345   7.147   3.648 -0.3549  0.7477 -0.5780
   86MOL    C3322303   2.508   7.545   3.801 -0.3309 -0.5552  0.3391
   86MOL    H3422304   2.311   7.494   3.834 -0.5310 -0.6473  0.9676
   86MOL    H3522305   2.471   7.259   3.845  3.8679  2.2837 -0.3900
   86MOL    H3622306   2.444   7.114   3.618 -0.2889  1.9246 -1.7004
   86MOL    H3722307   2.303   7.081   3.724  1.3972  0.6737  0.3533
   86MOL    H3822308   2.279   7.132   3.563 -0.5382  0.5689 -0.4082
   86MOL    H3922309   2.602   7.490   3.814  0.1234  0.5713  2.0678
   86MOL    H4022310   2.507   7.548   3.692 -0.7194 -1.6996  0.3057
   86MOL    C4122311   2.513   7.699   3.840 -0.0079  0.3363 -0.1283
   86MOL    N4222312   2.390   7.758   3.801  0.1128  0.0233  0.1765
   86MOL    C4322313   2.298   7.804   3.882 -0.3945  0.1695 -0.2575
   86MOL    O4422314   2.314   7.812   4.004 -0.3093  0.0041 -0.1797
   86MOL    C4522315   2.171   0.015   3.817  0.2324 -0.1685 -0.0900
   86MOL    C4622316   2.630   7.770   3.779 -0.4834 -0.1308  0.6487
   86MOL    H4722317   2.523   7.720   3.946 -0.6015 -1.3623  0.2803
   86MOL    H4822318   2.365   7.763   3.703  2.6022  2.7760 -0.3945
   86MOL    H4922319   2.085   0.008   3.884 -0.2574  1.2718 -0.5312
   86MOL    H5022320   2.182   0.116   3.776  0.1229 -0.0851  0.0831
   86MOL    H5122321   2.139   7.784   3.741 -0.8187  1.2320 -0.9701
   86MOL    H5222322   2.627   7.748   3.672  1.7162 -0.8544  0.7159
   86MOL    H5322323   2.618   0.039   3.776  2.2210  0.2858  2.6698
   86MOL    C5422324   2.766   7.736   3.845  0.4968 -0.1502  0.3202
   86MOL    N5522325   2.743   7.776   3.983 -0.7002  0.1850 -0.3291
   86MOL    C5622326   2.797   7.718   4.095  0.0097  0.1865 -0.2874
   86MOL    O5722327   2.866   7.617   4.090 -0.3033  0.4214 -0.1838
   86MOL    C5822328   2.746   7.764   4.233 -0.2212  0.1455 -0.0905
   86MOL    C5922329   2.898   7.807   3.803  0.4343  0.9664  0.6945
   86MOL    H6022330   2.788   7.630   3.834 -0.1891 -0.1612 -1.0294
   86MOL    H6122331   2.679   0.013   3.998 -0.1976  0.2770  1.5249
   86MOL    H6222332   2.643   7.737   4.254 -0.7329 -0.9946 -3.7610
   86MOL    H6322333   2.804   7.737   4.321  0.2705 -4.2050 -1.6330
   86MOL    H6422334   2.747   0.033   4.226  1.2663  0.0962 -0.9263
   86MOL    H6522335   2.898   0.073   3.827 -0.4565  1.1085  0.0936
   86MOL    H6622336   2.981   7.766   3.861 -0.0608 -2.1805 -0.7335
   86MOL    C6722337   2.932   7.787   3.654 -0.4561  0.4296  0.3360
   86MOL    N6822338   3.077   7.787   3.639  0.2304  0.7492 -0.5031
   86MOL    C6922339   3.140   7.668   3.630  0.0963  0.3716  0.2797
   86MOL    O7022340   3.080   7.559   3.597  0.0436 -0.0946  0.4530
   86MOL    C7122341   3.290   7.669   3.612  0.1397  0.1678  0.1749
   86MOL    C7222342   2.877   0.056   3.563 -0.1814  0.8090 -0.9774
   86MOL    H7322343   2.885   7.694   3.623  0.9593 -0.1304 -0.1520
   86MOL    H7422344   3.128   0.033   3.657  0.2646  0.9863 -1.7264
   86MOL    H7522345   3.321   7.672   3.508  0.7985  1.8313  0.3972
   86MOL    H7622346   3.317   7.767   3.652 -1.4515  0.6574  0.0827
   86MOL    H7722347   3.322   7.578   3.662  0.8841 -0.2179 -0.9930
   86MOL    H7822348   2.768   0.056   3.567 -0.0974  1.1995  2.6668
   86MOL    H7922349   2.908   0.152   3.603 -0.3958  0.4605  0.0301
   86MOL    C8022350   2.917   0.065   3.416 -0.2590  0.0945 -0.3010
   86MOL    N8122351   2.861   0.189   3.350 -0.1783  0.3852 -0.1605
   86MOL    C8222352   2.940   0.291   3.309  0.6947  0.1822  0.2885
   86MOL    O8322353   3.060   0.289   3.317 -0.2706  0.1282 -0.3258
   86MOL    C8422354   2.871   0.424   3.268 -0.3214  0.0249 -0.0737
   86MOL    C8522355   2.878   7.774   3.341  0.3582 -0.1347  0.0996
   86MOL    H8622356   3.024   0.076   3.400 -0.4616  2.5984 -0.0897
   86MOL    H8722357   2.761   0.199   3.342 -0.2262  0.4145  0.4197
   86MOL    H8822358   2.786   0.396   3.206 -0.4420  0.2583 -0.0128
   86MOL    H8922359   2.844   0.487   3.352 -1.5110 -0.3504 -0.1717
   86MOL    H9022360   2.947   0.480   3.213  0.3432  0.1229  0.9284
   86MOL    H9122361   2.871   7.698   3.420 -2.1562 -0.3147 -0.2561
   86MOL    H9222362   2.777   7.785   3.303  0.8386  1.4199 -0.7315
   86MOL    C9322363   2.975   7.739   3.229  0.0106  0.4462 -0.4883
   86MOL    N9422364   2.973   0.010   3.127  0.1046 -0.5767  0.7468
   86MOL    C9522365   3.083   0.063   3.068  0.1862  0.2164 -0.4129
   86MOL    O9622366   3.193   0.007   3.077  0.1544 -0.0904 -0.2768
   86MOL    C9722367   3.060   0.197   2.990  0.2012  0.3252  0.1471
   86MOL    C9822368   2.951   7.603   3.163  0.8078  0.3367  0.2745
   86MOL    H9922369   3.072   7.752   3.276  1.0078  0.3013 -2.4444
   86MOL   H10022370   2.887   0.062   3.115  0.1889 -1.0356 -2.2710
   86MOL   H10122371   3.161   0.234   2.976 -0.5448  2.1367 -0.5986
   86MOL   H10222372   3.018   0.169   2.893 -2.1977 -0.1552  1.2819
   86MOL   H10322373   2.994   0.272   3.035  0.2354  0.2536  0.3157
   86MOL   H10422374   2.900   7.534   3.230 -2.4015  3.2325  0.9891
   86MOL   H10522375   2.872   7.617   3.089 -0.5326 -1.8508  1.2269
   86MOL   C10622376   3.073   7.542   3.096  0.0063  0.7177 -0.1407
   86MOL   N10722377   3.045   7.432   3.000 -0.6044 -0.0901  0.0783
   86MOL   C10822378   3.015   7.453   2.873 -0.1685  0.5362  0.6165
   86MOL   O10922379   3.019   7.556   2.811  0.3291  0.0235  0.1339
   86MOL   C11022380   2.961   7.331   2.814 -0.0712 -0.1663 -1.0141
   86MOL   C11122381   3.198   7.512   3.181  0.1594  0.0164  0.6142
   86MOL   H11222382   3.113   7.621   3.032 -0.0348  0.8403 -0.0159
   86MOL   H11322383   3.041   7.339   3.041  3.0801 -1.1125 -1.6629
   86MOL   H11422384   2.891   7.330   2.731 -2.5296 -0.7858  0.9923
   86MOL   H11522385   3.044   7.275   2.771 -0.4931  0.1763 -2.2982
   86MOL   H11622386   2.914   7.284   2.901 -0.0665  0.9702 -0.3963
   86MOL   H11722387   3.276   7.498   3.106  0.0262  0.9307  0.2945
   86MOL   H11822388   3.227   7.592   3.249 -2.0312 -0.1709  1.7857
   86MOL   C11922389   3.196   7.381   3.247  0.2825 -0.0875  0.3480
   86MOL   N12022390   3.085   7.373   3.334 -0.2580 -0.1636 -0.2430
   86MOL   C12122391   2.991   7.276   3.331  0.1709 -0.1962  0.3674
   86MOL   O12222392   2.980   7.190   3.243 -0.0779 -0.1182  0.1265
   86MOL   C12322393   2.890   7.283   3.446 -0.1562 -0.1465  0.7028
   86MOL   C12422394   3.315   7.344   3.340 -0.1101 -0.1900 -0.8697
   86MOL   H12522395   3.189   7.302   3.171  0.0368 -0.8818  1.1877
   86MOL   H12622396   3.083   7.432   3.415  0.0795 -0.9870  0.3742
   86MOL   H12722397   2.787   7.262   3.417  0.5939 -1.8573 -0.8271
   86MOL   H12822398   2.928   7.228   3.532  0.1399  0.3072  0.8615
   86MOL   H12922399   2.890   7.389   3.473  0.7355  0.1242 -0.3227
   86MOL   H13022400   3.409   7.367   3.289 -0.0951  0.3172 -0.6229
   86MOL   H13122401   3.322   7.409   3.427 -2.9284  0.1639 -0.8705
   86MOL   C13222402   3.325   7.196   3.386 -0.0070 -0.1530  0.4053
   86MOL   N13322403   3.408   7.179   3.505  0.3084  0.0076  0.0014
   86MOL   C13422404   3.377   7.158   3.636  0.5351 -0.4092  0.4404
   86MOL   O13522405   3.263   7.147   3.678 -0.1758 -0.0032 -0.0659
   86MOL   C13622406   3.487   7.139   3.733  0.4352  0.1391  0.2187
   86MOL   C13722407   3.391   7.114   3.270 -0.8070  0.4321  1.3608
   86MOL   H13822408   3.228   7.154   3.415 -0.8559 -0.1327 -2.2873
   86MOL   H13922409   3.506   7.160   3.489  0.6238  1.5249 -0.0358
   86MOL   H14022410   3.519   7.035   3.740 -1.8969 -0.6602 -0.2693
   86MOL   H14122411   3.571   7.199   3.699  0.8946 -0.7671 -0.2546
   86MOL   H14222412   3.463   7.166   3.836 -0.3326 -2.6789  0.8349
   86MOL   H14322413   3.374   7.167   3.177  1.5695 -0.2872  0.4731
   86MOL   H14422414   3.498   7.118   3.290 -0.2558 -0.9982 -1.1018
   86MOL   C14522415   3.353   6.969   3.268 -1.0882  0.3349  0.0050
   86MOL   N14622416   3.470   6.893   3.216  0.1508  0.2728  0.5038
   86MOL   C14722417   3.509   6.784   3.272  0.4555 -0.2468 -0.3281
   86MOL   O14822418   3.446   6.736   3.370 -0.4648 -0.5114  0.0538
   86MOL   C14922419   3.628   6.718   3.213  0.1541 -0.5680  0.3337
   86MOL   C15022420   3.228   6.940   3.180  0.0605  1.2328  0.4986
   86MOL   H15122421   3.330   6.948   3.372 -2.7801 -1.6827 -0.7486
   86MOL   H15222422   3.521   6.915   3.132 -1.9402 -0.0468 -0.8698
   86MOL   H15322423   3.598   6.644   3.139  0.4227 -1.7604  1.3721
   86MOL   H15422424   3.702   6.791   3.181 -0.4351 -0.4930 -0.8707
   86MOL   H15522425   3.675   6.659   3.292  1.7854 -1.9424 -1.5945
   86MOL   H15622426   3.152   7.009   3.216 -2.2009 -1.8228  1.8113
   86MOL   H15722427   3.249   6.965   3.076  1.5212 -2.0687 -0.0649
   86MOL   C15822428   3.178   6.793   3.171 -0.1867  0.4738  0.0913
   86MOL   N15922429   3.162   6.725   3.302  0.0865  0.5458  0.0914
   86MOL   C16022430   3.054   6.668   3.351  0.5392 -0.2645  0.0048
   86MOL   O16122431   2.950   6.650   3.283  0.1949 -0.4208  0.4974
   86MOL   C16222432   3.050   6.614   3.491  0.5556  0.3863  0.2842
   86MOL   C16322433   3.243   6.696   3.064  0.5857  0.2789  0.4930
   86MOL   H16422434   3.076   6.806   3.133  0.3707 -0.2223 -1.6828
   86MOL   H16522435   3.235   6.747   3.370  0.9316  3.7402 -1.7231
   86MOL   H16622436   3.115   6.666   3.561 -0.3345  0.2085  1.2544
   86MOL   H16722437   2.950   6.612   3.535  0.2493  1.9899 -0.2783
   86MOL   H16822438   3.081   6.511   3.476 -1.2726 -0.1051 -0.2617
   86MOL   H16922439   3.346   6.726   3.044  1.0782 -1.7071 -0.0737
   86MOL   H17022440   3.259   6.600   3.113  2.7042  0.8171  0.9102
   86MOL   C17122441   3.162   6.666   2.937 -0.4995  0.4727 -0.2548
   86MOL   N17222442   3.100   6.786   2.883 -0.6944 -0.3866  0.3465
   86MOL   C17322443   3.146   6.853   2.779 -0.3013  0.3389  0.1961
   86MOL   O17422444   3.242   6.819   2.710 -0.1865 -0.4279  0.4101
   86MOL   C17522445   3.073   6.976   2.740 -0.2502 -0.1537  0.1887
   86MOL   C17622446   3.039   6.573   2.967 -0.0501  0.2844  0.0818
   86MOL   H17722447   3.228   6.615   2.867 -3.2873 -1.8074 -1.3034
   86MOL   H17822448   3.035   6.831   2.945 -0.3373 -0.1987  0.5868
   86MOL   H17922449   3.137   7.046   2.688 -2.3928  0.8284 -1.1965
   86MOL   H18022450   2.986   6.935   2.689  0.0273  1.7482 -1.9013
   86MOL   H18122451   3.033   7.030   2.826  1.3421 -2.0001  2.1581
   86MOL   H18222452   3.092   6.492   3.017  0.4787 -1.4199 -3.1199
   86MOL   H18322453   2.974   6.620   3.041  1.8549  1.2151  1.1901
   86MOL   C18422454   2.969   6.512   2.845  0.2908 -0.7518 -0.2296
   86MOL   N18522455   2.855   6.597   2.812  0.1525  0.2588 -0.0414
   86MOL   C18622456   2.794   6.603   2.695 -0.0607  0.5752 -0.4477
   86MOL   O18722457   2.840   6.540   2.599  0.4027 -0.1869  0.5249
   86MOL   C18822458   2.675   6.688   2.674 -0.2801  0.5823  0.3037
   86MOL   C18922459   2.923   6.360   2.858 -0.2303  0.6535 -0.7995
   86MOL   H19022460   3.048   6.518   2.770 -0.1382 -0.3307 -0.6429
   86MOL   H19122461   2.825   6.663   2.882 -0.0141 -0.3387  0.4545
   86MOL   H19222462   2.604   6.674   2.756 -0.5504 -0.9548 -0.1677
   86MOL   H19322463   2.697   6.794   2.670  1.4863  0.1694 -1.3029
   86MOL   H19422464   2.627   6.666   2.579  1.9728 -1.6769 -0.3651
   86MOL   H19522465   2.830   6.364   2.915 -0.2297 -2.3683 -0.4910
   86MOL   H19622466   2.911   6.317   2.759  0.4982 -0.8773 -0.2449
   86MOL   C19722467   3.011   6.242   2.927  0.2599 -0.5543 -0.2778
   86MOL   N19822468   2.987   6.106   2.881 -0.1478 -0.0243  0.3091
   86MOL   C19922469   3.047   6.052   2.777 -0.2463  1.0196  0.0797
   86MOL   O20022470   3.126   6.107   2.700  0.2027 -0.3269  0.2540
   86MOL   C20122471   3.009   5.906   2.751  0.2622 -0.6334  0.0743
   86MOL   C20222472   2.994   6.245   3.082  0.4994  0.2917  0.0185
   86MOL   H20322473   3.116   6.263   2.907  0.5291 -0.5787  1.0868
   86MOL   H20422474   2.925   6.054   2.942 -0.5181  1.3548  1.1269
   86MOL   H20522475   3.091   5.850   2.798  0.2379  0.3086  1.2531
   86MOL   H20622476   2.921   5.870   2.805 -0.3855 -1.9080 -1.7930
   86MOL   H20722477   3.012   5.877   2.646  0.6763  0.1483 -0.1312
   86MOL   H20822478   2.947   6.338   3.113 -2.1590 -0.9667  0.0022
   86MOL   H20922479   2.915   6.178   3.118  1.1128 -0.7049 -0.4860
   86MOL   C21022480   3.119   6.217   3.164 -0.5639  0.7133  0.2050
   86MOL   N21122481   3.164   6.081   3.146 -0.1857  0.4082 -0.1671
   86MOL   C21222482   3.285   6.051   3.082 -0.6117  0.1091 -0.4567
   86MOL   O21322483   3.371   6.135   3.052  0.4982 -0.1342 -0.0779
   86MOL   C21422484   3.305   5.907   3.037 -0.0750 -0.6622  0.0879
   86MOL   C21522485   3.090   6.249   3.311 -0.1214  0.4387 -0.2550
   86MOL   H21622486   3.184   6.299   3.133 -0.0307 -0.0875 -0.8137
   86MOL   H21722487   3.097   6.008   3.163 -1.4957  1.6034 -0.0928
   86MOL   H21822488   3.285   5.906   2.929 -1.8641 -0.7969  0.4173
   86MOL   H21922489   3.410   5.883   3.055  0.2257 -0.3154 -1.1088
   86MOL   H22022490   3.227   5.844   3.078 -2.1398  0.5135 -1.9373
   86MOL   H22122491   3.046   6.348   3.326  0.4534  0.5215  0.9690
   86MOL   H22222492   3.013   6.177   3.336  0.2381  0.0348 -0.3014
   86MOL   C22322493   3.213   6.243   3.410  0.1738  0.1795 -0.2858
   86MOL   N22422494   3.157   6.252   3.545 -0.1590  0.1430  0.0400
   86MOL   C22522495   3.082   6.169   3.616 -0.2229 -0.0350 -0.9624
   86MOL   O22622496   3.013   6.090   3.559 -0.0741  0.6279  0.0525
   86MOL   C22722497   3.078   6.174   3.767 -0.1248  0.3369 -0.7524
   86MOL   C22822498   3.331   6.345   3.376 -0.4199  0.2702  0.1093
   86MOL   H22922499   3.258   6.144   3.404  0.5532  0.1862  1.9424
   86MOL   H23022500   3.198   6.317   3.610 -0.7481  0.6127 -0.0549
   86MOL   H23122501   3.181   6.184   3.803 -0.0496 -1.2931 -0.4876
   86MOL   H23222502   3.021   6.254   3.812  2.2822  0.8737  1.4839
   86MOL   H23322503   3.038   6.078   3.800 -0.3035  1.1384  1.4267
   86MOL   H23422504   3.374   6.313   3.281  0.5808  0.8387  0.3673
   86MOL   H23522505   3.293   6.440   3.336  2.6324  0.4147 -2.6461
   86MOL   C23622506   3.441   6.363   3.484 -0.5456  0.3695 -0.3940
   86MOL   N23722507   3.411   6.491   3.556  0.9446  0.6518  0.2152
   86MOL   C23822508   3.345   6.508   3.673 -0.5175  0.1874  0.6417
   86MOL   O23922509   3.280   6.417   3.727  0.0643  0.3728  0.5232
   86MOL   C24022510   3.357   6.646   3.741 -0.7401 -0.0145 -0.2166
   86MOL   C24122511   3.590   6.356   3.434  0.6375  0.2614  0.1100
   86MOL   H24222512   3.423   6.289   3.562 -0.8852  1.4477  0.5571
   86MOL   H24322513   3.434   6.581   3.517  0.5928  0.6028 -0.1075
   86MOL   H24422514   3.451   6.654   3.795 -0.2072  0.9467 -1.2595
   86MOL   H24522515   3.357   6.716   3.657  1.0976 -2.9907 -2.8053
   86MOL   H24622516   3.273   6.685   3.800 -0.0406 -2.6724  2.6600
   86MOL   H24722517   3.591   6.395   3.332  2.9913 -0.2192 -0.0642
   86MOL   H24822518   3.662   6.424   3.480  0.8463 -0.8871  1.5225
   86MOL   C24922519   3.651   6.211   3.437  0.5237  0.5544  1.3412
   86MOL   N25022520   3.785   6.208   3.403  0.4358 -0.4362 -0.4022
   86MOL   C25122521   3.846   6.197   3.283  0.1517 -0.2693 -0.0229
   86MOL   O25222522   3.782   6.202   3.177  0.1576  0.0631 -0.1871
   86MOL   C25322523   3.994   6.184   3.288 -0.6167  0.5492  0.3884
   86MOL   C25422524   3.570   6.115   3.357  0.4921  0.4109 -0.4315
   86MOL   H25522525   3.632   6.176   3.538 -1.8380  1.9509  1.4155
   86MOL   H25622526   3.846   6.211   3.483 -0.2357 -0.2834  0.1052
   86MOL   H25722527   4.024   6.285   3.316 -1.3948  0.0154  3.3618
   86MOL   H25822528   4.016   6.111   3.367  2.7438  0.9037 -0.1562
   86MOL   H25922529   4.039   6.158   3.193 -3.2296 -0.7380 -0.5417
   86MOL   H26022530   3.607   6.013   3.354  3.6447  1.4796  0.4369
   86MOL   H26122531   3.471   6.103   3.403  1.1103 -0.8034  0.6293
   86MOL   H26222532   3.552   6.149   3.255 -2.8783 -1.8708 -0.6903
   87MOL     C122533   4.225   3.256   0.405  0.5684  0.1956 -0.2085
   87MOL     N222534   4.275   3.367   0.326 -0.0680 -0.5330  1.6113
   87MOL     C322535   4.326   3.478   0.371 -0.1692  0.2042 -0.3302
   87MOL     O422536   4.341   3.506   0.493  0.2195 -0.2102 -0.1950
   87MOL     C522537   4.357   3.577   0.266  0.4519  0.8715  0.2312
   87MOL     C622538   4.073   3.280   0.437  0.3799 -0.2038  0.7473
   87MOL     H722539   4.239   3.162   0.351  0.2268 -1.3060  2.2183
   87MOL     H822540   4.256   3.363   0.227 -2.2604  0.5140  1.9708
   87MOL     H922541   4.378   3.532   0.169  1.0024  0.5592  0.4948
   87MOL    H1022542   4.262   3.626   0.245  0.7032  1.2306 -0.0810
   87MOL    H1122543   4.443   3.637   0.296 -0.2263  1.2563  1.4412
   87MOL    H1222544   4.047   3.338   0.526 -0.2689 -2.6593  2.1940
   87MOL    H1322545   4.039   3.344   0.356  0.0284 -2.1728 -0.6837
   87MOL    H1422546   4.287   3.245   0.494 -2.7682  1.1060  2.3178
   87MOL    C1522547   4.000   3.142   0.443 -0.8508  0.2019  0.0427
   87MOL    N1622548   3.993   3.083   0.311  0.0792  0.2816  0.0645
   87MOL    C1722549   4.027   2.957   0.269 -0.1420 -0.7899  0.6248
   87MOL    O1822550   4.095   2.887   0.338  0.1272 -0.4994  0.7314
   87MOL    C1922551   3.970   2.896   0.141 -0.1620 -0.4242  0.1867
   87MOL    C2022552   3.862   3.163   0.501 -0.2578 -0.1570  0.1933
   87MOL    H2122553   4.063   3.084   0.510  0.0124 -0.4793 -1.3413
   87MOL    H2222554   3.933   3.133   0.247  0.6258  0.9625  0.0763
   87MOL    H2322555   4.026   2.924   0.052 -0.7367 -0.3939 -0.1639
   87MOL    H2422556   3.972   2.788   0.152 -0.2635 -0.2435  2.2616
   87MOL    H2522557   3.870   2.931   0.117 -0.7029 -0.9619  1.6114
   87MOL    H2622558   3.879   3.202   0.602  0.4123  1.4426 -0.5302
   87MOL    H2722559   3.816   3.245   0.446  2.1246  1.3479  0.3841
   87MOL    C2822560   3.766   3.044   0.500  0.3945 -0.2412 -0.2389
   87MOL    N2922561   3.645   3.087   0.431 -0.1506 -0.1034 -0.4996
   87MOL    C3022562   3.623   3.121   0.299 -0.5649 -0.3897  0.1269
   87MOL    O3122563   3.717   3.127   0.222 -0.6016  0.7986  0.1319
   87MOL    C3222564   3.484   3.149   0.253 -0.3598 -0.4724  0.6849
   87MOL    C3322565   3.736   2.981   0.638  0.3678 -0.5970 -0.1789
   87MOL    H3422566   3.805   2.966   0.434  1.8026  0.7452 -0.5930
   87MOL    H3522567   3.560   3.080   0.485 -0.3605  1.7954 -0.5612
   87MOL    H3622568   3.479   3.177   0.147 -0.5523  0.7968  1.0168
   87MOL    H3722569   3.412   3.071   0.278  0.7523 -2.2028 -1.3534
   87MOL    H3822570   3.455   3.244   0.299  0.0745 -0.4087  0.8256
   87MOL    H3922571   3.836   2.955   0.673  0.9650  0.1008 -1.3161
   87MOL    H4022572   3.699   3.058   0.705  0.0350  1.8776 -3.0868
   87MOL    C4122573   3.644   2.848   0.638 -0.9965 -0.6147  0.7377
   87MOL    N4222574   3.513   2.879   0.581 -0.3833 -0.3048  0.5044
   87MOL    C4322575   3.462   2.801   0.488  0.2201  0.3607  0.8312
   87MOL    O4422576   3.525   2.724   0.413 -0.2634 -0.3907 -0.1210
   87MOL    C4522577   3.306   2.793   0.475  0.2490  0.3136 -0.6232
   87MOL    C4622578   3.628   2.786   0.773  0.0817  0.4152 -0.2159
   87MOL    H4722579   3.704   2.784   0.573  0.7446 -1.7971  3.4077
   87MOL    H4822580   3.446   2.934   0.633  0.0262 -0.6830  1.4534
   87MOL    H4922581   3.254   2.886   0.496  1.0027  1.0052 -1.7984
   87MOL    H5022582   3.263   2.760   0.380 -1.5736  0.4239  0.1500
   87MOL    H5122583   3.267   2.723   0.549 -1.3659 -0.1509 -1.8960
   87MOL    H5222584   3.588   2.855   0.847  0.2732 -0.7344  0.9681
   87MOL    H5322585   3.553   2.708   0.765  0.2913  0.1186  0.6510
   87MOL    C5422586   3.743   2.696   0.829 -0.5932  0.5112 -0.5263
   87MOL    N5522587   3.697   2.593   0.926  0.3178  0.6023 -0.0162
   87MOL    C5622588   3.636   2.606   1.044  0.0644 -0.2034 -0.0212
   87MOL    O5722589   3.613   2.718   1.090 -0.2266  0.4610  0.3919
   87MOL    C5822590   3.602   2.478   1.125 -0.2410 -0.3963  0.0435
   87MOL    C5922591   3.852   2.769   0.904  0.0788 -0.1072 -0.4485
   87MOL    H6022592   3.784   2.650   0.739  0.1936  2.1348 -1.0252
   87MOL    H6122593   3.723   2.498   0.904  1.1338  1.1823 -1.5672
   87MOL    H6222594   3.533   2.426   1.059  1.9615  0.0104 -2.6725
   87MOL    H6322595   3.693   2.421   1.145 -0.9811 -1.5566  0.1281
   87MOL    H6422596   3.552   2.492   1.221 -0.4382 -1.5074  0.1098
   87MOL    H6522597   3.842   2.870   0.863 -2.5467  0.5706  1.7137
   87MOL    H6622598   3.835   2.794   1.009 -0.0284 -0.8676 -0.2858
   87MOL    C6722599   3.992   2.720   0.868  0.7694  0.0194  1.1346
   87MOL    N6822600   4.081   2.775   0.965 -0.1409 -0.0243 -0.6220
   87MOL    C6922601   4.165   2.706   1.045  0.2794  0.4810  0.6564
   87MOL    O7022602   4.134   2.600   1.102  0.1929 -0.1530  0.0518
   87MOL    C7122603   4.303   2.765   1.063  0.0267 -0.7108  0.5287
   87MOL    C7222604   4.032   2.764   0.719  0.4386  0.1800  0.4051
   87MOL    H7322605   3.997   2.611   0.875 -0.3647 -0.3003 -2.2089
   87MOL    H7422606   4.129   2.857   0.931 -0.1905 -0.0574 -0.7708
   87MOL    H7522607   4.334   2.776   0.960 -2.7258  1.4782 -0.1192
   87MOL    H7622608   4.294   2.865   1.106 -0.8967 -1.1356  1.3687
   87MOL    H7722609   4.369   2.699   1.119  2.1525  1.4757  0.6387
   87MOL    H7822610   3.948   2.745   0.651  1.7605 -0.9280 -0.9618
   87MOL    H7922611   4.038   2.873   0.713  0.1236  0.2434  1.1902
   87MOL    C8022612   4.168   2.699   0.677  0.4312  0.6041 -0.0615
   87MOL    N8122613   4.239   2.785   0.591 -0.5890  0.2693 -0.6944
   87MOL    C8222614   4.310   2.889   0.632 -0.1864 -0.2067 -0.4163
   87MOL    O8322615   4.318   2.927   0.751  0.0245  1.0094  0.1627
   87MOL    C8422616   4.389   2.967   0.527 -1.1531 -0.3191 -0.4193
   87MOL    C8522617   4.138   2.566   0.607  0.3018 -0.6779 -0.5788
   87MOL    H8622618   4.229   2.680   0.765 -0.7917 -0.4284  0.5853
   87MOL    H8722619   4.217   2.780   0.492 -1.5764  0.1781 -0.4799
   87MOL    H8822620   4.413   3.072   0.545 -0.8779 -0.5931  0.8552
   87MOL    H8922621   4.478   2.912   0.494 -1.8846 -1.5853 -0.2860
   87MOL    H9022622   4.328   2.976   0.438  0.7056 -1.5357 -1.8593
   87MOL    H9122623   4.068   2.512   0.671 -0.0690  1.1912  0.6379
   87MOL    H9222624   4.077   2.586   0.519  2.6757  1.8800 -1.7186
   87MOL    C9322625   4.267   2.492   0.577 -0.3499  0.1197 -0.4000
   87MOL    N9422626   4.241   2.415   0.460  0.6850  0.8389  0.0016
   87MOL    C9522627   4.233   2.459   0.335  0.1893 -0.6410  0.4957
   87MOL    O9622628   4.228   2.580   0.297  0.2430  0.5230  0.4237
   87MOL    C9722629   4.220   2.350   0.226 -0.0768 -0.3946  0.2538
   87MOL    C9822630   4.301   2.398   0.694 -0.6640 -0.0325  0.2106
   87MOL    H9922631   4.351   2.558   0.557  1.3948 -1.6935  0.7182
   87MOL   H10022632   4.243   2.314   0.466  0.9176  0.7697 -1.1416
   87MOL   H10122633   4.116   2.336   0.198 -0.0073 -1.5532  0.5751
   87MOL   H10222634   4.281   2.383   0.142  1.6847 -1.5231  1.0602
   87MOL   H10322635   4.271   2.257   0.252  0.2478 -0.3185 -0.0982
   87MOL   H10422636   4.260   2.432   0.789  0.6032 -0.5807  0.9671
   87MOL   H10522637   4.242   2.307   0.683 -0.4169 -0.1060 -0.5792
   87MOL   C10622638   4.444   2.365   0.724 -0.3699 -0.4310 -0.3419
   87MOL   N10722639   4.513   2.478   0.792  0.6799 -0.6036 -0.2848
   87MOL   C10822640   4.507   2.503   0.923 -0.1833 -0.0458 -0.3832
   87MOL   O10922641   4.431   2.439   1.004  0.3676 -0.7640  0.7043
   87MOL   C11022642   4.602   2.616   0.974 -0.0020 -0.0814 -0.4133
   87MOL   C11122643   4.523   2.320   0.606  0.6115  0.1738 -0.1855
   87MOL   H11222644   4.451   2.284   0.796 -0.3426  0.5516  0.7830
   87MOL   H11322645   4.555   2.539   0.724 -0.9734  0.5982 -0.2629
   87MOL   H11422646   4.701   2.611   0.929 -0.0271  0.1887 -0.5001
   87MOL   H11522647   4.553   2.705   0.936  0.8501  0.1189 -1.0267
   87MOL   H11622648   4.605   2.612   1.083 -0.1314  0.7975 -0.3731
   87MOL   H11722649   4.538   2.399   0.533 -0.9060  0.7670  0.1165
   87MOL   H11822650   4.621   2.296   0.647  0.6274 -0.8655 -0.8286
   87MOL   C11922651   4.476   2.194   0.528 -0.2437 -0.1250  0.1287
   87MOL   N12022652   4.441   2.080   0.623  0.3482  0.2740 -0.5843
   87MOL   C12122653   4.339   1.991   0.598  0.3314 -0.3888 -0.1920
   87MOL   O12222654   4.263   2.015   0.508 -0.4920  0.1050 -0.0069
   87MOL   C12322655   4.331   1.866   0.688  0.1222  0.6242 -0.2967
   87MOL   C12422656   4.572   2.141   0.418 -0.2184 -0.1712  0.4376
   87MOL   H12522657   4.381   2.220   0.482 -1.5059 -0.1210  2.6570
   87MOL   H12622658   4.501   2.056   0.701 -1.2105 -0.1375  0.5136
   87MOL   H12722659   4.417   1.877   0.754  0.4424  2.2458 -0.9524
   87MOL   H12822660   4.245   1.878   0.754  0.0381 -0.8292 -0.1245
   87MOL   H12922661   4.335   1.768   0.641  2.4055 -0.2768  1.6873
   87MOL   H13022662   4.668   2.157   0.468 -0.1439  0.6624  0.0419
   87MOL   H13122663   4.551   2.035   0.414  1.7643 -0.6928  2.4822
   87MOL   C13222664   4.577   2.197   0.273 -0.6050  0.2604 -0.1274
   87MOL   N13322665   4.670   2.112   0.198  0.0358 -0.0992 -1.2142
   87MOL   C13422666   4.654   2.005   0.127  0.5160  0.0292  0.8929
   87MOL   O13522667   4.538   1.966   0.101  0.3812  0.3827 -0.3404
   87MOL   C13622668   4.780   1.930   0.079  0.3687  0.6902 -0.3331
   87MOL   C13722669   4.626   2.342   0.264 -0.5662  0.2213 -0.4321
   87MOL   H13822670   4.478   2.183   0.231 -0.8437  1.2521  0.0929
   87MOL   H13922671   4.764   2.127   0.232 -0.5658  1.6947 -0.2802
   87MOL   H14022672   4.831   1.866   0.150  1.4794  1.5538 -0.3402
   87MOL   H14122673   4.745   1.861   0.002  0.1550 -0.4166  0.7533
   87MOL   H14222674   4.851   2.000   0.036  1.7714  0.3821  1.4536
   87MOL   H14322675   4.557   2.398   0.327 -1.2177 -1.2035  0.1394
   87MOL   H14422676   4.725   2.346   0.308 -0.5242  1.5893 -0.6302
   87MOL   C14522677   4.619   2.423   0.132  0.0613  0.2027 -0.2850
   87MOL   N14622678   4.684   2.353   0.020  0.0577 -0.2232  0.0099
   87MOL   C14722679   4.638   2.335   7.739 -0.5060 -0.3054  0.3286
   87MOL   O14822680   4.536   2.392   7.696 -0.0352  0.0784 -0.4863
   87MOL   C14922681   4.722   2.254   7.647 -0.0494  0.4226  0.1253
   87MOL   C15022682   4.672   2.565   0.146  0.6859  0.5968 -0.4929
   87MOL   H15122683   4.513   2.432   0.106  0.0143 -1.6294 -0.8277
   87MOL   H15222684   4.766   2.296   0.036 -0.5070 -0.6110  1.6630
   87MOL   H15322685   4.659   2.214   7.567  0.0155  1.4554 -0.4392
   87MOL   H15422686   4.799   2.310   7.594  0.1780 -0.5590 -0.5933
   87MOL   H15522687   4.759   2.173   7.710 -1.2786 -1.2266 -1.2151
   87MOL   H15622688   4.771   2.556   0.192 -0.6878  1.8633  2.8813
   87MOL   H15722689   4.685   2.601   0.044 -3.5861  0.7972 -1.0712
   87MOL   C15822690   4.574   2.662   0.223 -0.4454 -0.6695 -0.8152
   87MOL   N15922691   4.453   2.692   0.146  0.3814 -0.0160 -0.4542
   87MOL   C16022692   4.437   2.757   0.027  0.1370  1.0766 -0.2164
   87MOL   O16122693   4.528   2.800   7.803  0.0707  0.2356 -0.1931
   87MOL   C16222694   4.294   2.766   7.802  0.0332 -0.2191 -1.1108
   87MOL   C16322695   4.643   2.792   0.271  0.0784 -0.6498  0.0257
   87MOL   H16422696   4.554   2.620   0.322  0.5752  3.8249  1.4309
   87MOL   H16522697   4.368   2.678   0.199 -1.3433  0.5616 -2.9784
   87MOL   H16622698   4.280   2.871   7.778  0.0189 -0.1916 -0.9849
   87MOL   H16722699   4.307   2.710   7.710 -1.4963 -0.1622 -1.3684
   87MOL   H16822700   4.212   2.733   0.026  1.0302  1.3857  1.0944
   87MOL   H16922701   4.684   2.837   0.181 -1.6231 -0.5114 -0.7010
   87MOL   H17022702   4.572   2.871   0.295 -1.2384 -1.3410 -1.5157
   87MOL   C17122703   4.758   2.757   0.381 -0.0071 -0.2413 -0.4070
   87MOL   N17222704   4.725   2.828   0.506 -0.7266  0.1110 -0.1630
   87MOL   C17322705   4.690   2.773   0.626  0.0727  1.5092 -0.0694
   87MOL   O17422706   4.670   2.649   0.637 -0.0411 -0.9772 -0.0906
   87MOL   C17522707   4.672   2.870   0.747  0.8658 -0.0695 -0.2551
   87MOL   C17622708   4.893   2.816   0.338 -0.8373 -0.3279  0.2706
   87MOL   H17722709   4.761   2.651   0.406  0.2931  0.1869  1.3698
   87MOL   H17822710   4.731   2.928   0.503 -2.0368  0.1906 -0.4285
   87MOL   H17922711   4.746   2.867   0.827 -1.0488  0.7849  1.5958
   87MOL   H18022712   4.688   2.975   0.719  2.1486  0.0214  0.7567
   87MOL   H18122713   4.573   2.864   0.790  0.2624  1.1640 -1.4450
   87MOL   H18222714   4.868   2.916   0.304 -1.7742 -1.4237 -2.4638
   87MOL   H18322715   4.957   2.827   0.425 -0.8369  0.6723  0.1524
   87MOL   C18422716   4.984   2.727   0.236 -0.1868  0.2459  0.2548
   87MOL   N18522717   4.999   2.589   0.292  0.0934 -0.5665  0.7603
   87MOL   C18622718   5.063   2.556   0.404 -0.4866  0.1672 -0.3144
   87MOL   O18722719   5.102   2.639   0.492 -0.5372 -0.1008 -0.1319
   87MOL   C18822720   5.071   2.403   0.429  0.3960 -0.4305 -0.2772
   87MOL   C18922721   5.116   2.793   0.188  0.0001  1.2968  0.4503
   87MOL   H19022722   4.918   2.715   0.150  3.3121  0.0788 -2.5056
   87MOL   H19122723   4.984   2.510   0.231  1.3330 -0.5857  0.4529
   87MOL   H19222724   4.985   2.380   0.491  0.9258 -0.8011  0.3234
   87MOL   H19322725   5.066   2.343   0.338  0.8750  0.1392 -0.6820
   87MOL   H19422726   5.167   2.379   0.474  0.1251  2.2317  1.8962
   87MOL   H19522727   5.100   2.900   0.176  0.8235  1.3734 -0.0325
   87MOL   H19622728   5.192   2.775   0.264 -0.6703 -0.0197  0.8131
   87MOL   C19722729   5.179   2.727   0.059 -0.6106  0.3752  0.4365
   87MOL   N19822730   5.304   2.798   0.037 -0.9105 -0.6812  0.0193
   87MOL   C19922731   5.396   2.761   7.788  0.0236 -0.5633  0.1149
   87MOL   O20022732   5.380   2.663   7.713 -0.2326 -0.3074  0.2679
   87MOL   C20122733   5.522   2.839   7.778 -0.1326 -0.2526 -0.6430
   87MOL   C20222734   5.094   2.737   7.772  0.3561  0.4314  0.1252
   87MOL   H20322735   5.207   2.622   0.071  1.9801  1.0777  0.6842
   87MOL   H20422736   5.324   2.884   0.085  0.1718 -1.1486  0.4198
   87MOL   H20522737   5.596   2.796   0.005 -0.2279 -0.3431 -0.5958
   87MOL   H20622738   5.553   2.822   7.675  1.2075  0.7542 -0.4226
   87MOL   H20722739   5.508   2.946   7.797 -2.3909 -0.4878 -0.9210
   87MOL   H20822740   5.023   2.819   7.768 -0.0338  0.1209  0.7003
   87MOL   H20922741   5.158   2.769   7.689  2.3031  1.5652  2.0232
   87MOL   C21022742   5.014   2.605   7.737  0.4220  0.2648  0.4909
   87MOL   N21122743   5.102   2.491   7.706  0.0063  0.0253  0.4675
   87MOL   C21222744   5.087   2.367   7.742  0.3395 -0.2406 -0.1401
   87MOL   O21322745   5.008   2.335   7.833 -0.3124  0.0515  0.6449
   87MOL   C21422746   5.170   2.261   7.675  0.5227  0.3253  0.0869
   87MOL   C21522747   4.920   2.623   7.615  0.6845 -0.0010  0.0830
   87MOL   H21622748   4.955   2.581   7.826  0.1339  0.9145  0.4739
   87MOL   H21722749   5.179   2.508   7.643 -1.5199 -0.8344 -1.6615
   87MOL   H21822750   5.218   2.292   7.583 -0.6830  0.1353 -0.6244
   87MOL   H21922751   5.239   2.218   7.748 -1.2798  0.5227  1.9638
   87MOL   H22022752   5.103   2.184   7.636 -1.5364  2.3856 -0.5994
   87MOL   H22122753   4.854   2.538   7.634  0.4875  0.3731  1.1491
   87MOL   H22222754   4.871   2.719   7.629 -1.5559 -1.2272  0.8951
   87MOL   C22322755   4.970   2.615   7.465 -0.9275 -0.5463  0.8561
   87MOL   N22422756   5.077   2.708   7.431  0.3079 -0.2438  0.4898
   87MOL   C22522757   5.206   2.671   7.436  0.0857 -0.0613  1.0008
   87MOL   O22622758   5.246   2.560   7.469  0.8061 -0.3076 -0.4637
   87MOL   C22722759   5.309   2.784   7.407 -0.3050  0.3765  0.4259
   87MOL   C22822760   4.847   2.629   7.369 -0.1123 -0.4171  0.6917
   87MOL   H22922761   5.005   2.514   7.449 -0.8244 -0.3616 -0.1167
   87MOL   H23022762   5.051   2.803   7.413  0.2407 -0.2478  0.5697
   87MOL   H23122763   5.413   2.750   7.408 -0.7739 -1.0773  0.2554
   87MOL   H23222764   5.288   2.811   7.304  0.6201 -2.1673 -0.4545
   87MOL   H23322765   5.306   2.864   7.482  0.1765 -0.2051  1.0673
   87MOL   H23422766   4.772   2.687   7.422  1.1826 -0.8017  2.9772
   87MOL   H23522767   4.879   2.689   7.284  1.1999 -2.2515 -0.1473
   87MOL   C23622768   4.795   2.498   7.313 -0.4964 -0.4666 -0.1759
   87MOL   N23722769   4.889   2.444   7.217 -0.0707 -1.0824  0.5968
   87MOL   C23822770   4.949   2.322   7.216 -0.1308  0.3692  0.0116
   87MOL   O23922771   5.013   2.284   7.116 -0.0866  0.5452  0.0865
   87MOL   C24022772   4.935   2.226   7.333 -0.0006  0.0244  0.3069
   87MOL   C24122773   4.661   2.524   7.246 -0.5538 -0.1749  0.7494
   87MOL   H24222774   4.776   2.422   7.389  0.6733 -0.5615  0.0248
   87MOL   H24322775   4.918   2.505   7.142 -0.4090 -0.3026  1.0905
   87MOL   H24422776   4.979   2.273   7.420  0.5911  2.2277 -1.1234
   87MOL   H24522777   4.833   2.201   7.361 -0.1265  1.4550  1.1688
   87MOL   H24622778   4.989   2.132   7.322  1.9505  0.9536  1.7025
   87MOL   H24722779   4.589   2.552   7.322  0.7960  1.5283  1.4248
   87MOL   H24822780   4.669   2.616   7.188  1.1731 -1.0080 -0.3955
   87MOL   C24922781   4.601   2.415   7.154  0.3236 -0.1804 -0.1825
   87MOL   N25022782   4.469   2.462   7.111 -0.1353 -0.3558  0.2997
   87MOL   C25122783   4.429   2.460   6.986 -0.2968 -0.2461  0.4590
   87MOL   O25222784   4.496   2.415   6.891  0.4719  0.0555 -0.4517
   87MOL   C25322785   4.294   2.526   6.965 -0.9911 -0.0087  1.0219
   87MOL   C25422786   4.587   2.279   7.217 -0.7142  0.7469  0.3203
   87MOL   H25522787   4.672   2.406   7.072  0.3880  0.6290 -0.2189
   87MOL   H25622788   4.420   2.512   7.184  0.3916 -0.0158  0.4236
   87MOL   H25722789   4.303   2.564   6.864 -0.6602 -1.3520  0.5276
   87MOL   H25822790   4.212   2.459   6.990 -0.0598 -1.0526  1.3163
   87MOL   H25922791   4.265   2.611   7.026  1.8756  1.6922  0.1260
   87MOL   H26022792   4.546   2.287   7.317  1.4050  1.1550  1.1862
   87MOL   H26122793   4.516   2.217   7.162 -0.6209  0.9527 -0.0325
   87MOL   H26222794   4.680   2.223   7.210 -1.2491 -0.3018  1.3361
   88MOL     C122795   7.766   4.224   5.047 -0.1429 -0.1235 -0.6689
   88MOL     N222796   7.622   4.216   5.034  0.1276 -0.3788 -0.1384
   88MOL     C322797   7.554   4.178   5.139 -0.4486  0.5948 -1.1552
   88MOL     O422798   7.604   4.139   5.244 -0.3809 -1.0774 -0.5120
   88MOL     C522799   7.402   4.182   5.124  0.8219  0.0683 -0.4822
   88MOL     C622800   7.824   4.346   5.120 -0.6413  0.0387 -0.4617
   88MOL     H722801   7.791   4.131   5.099 -1.9355 -0.4470 -0.3499
   88MOL     H822802   7.577   4.241   4.947  2.0572  1.6213 -0.6014
   88MOL     H922803   7.358   4.281   5.133  1.0246  0.2434 -1.3281
   88MOL    H1022804   7.368   4.142   5.029  0.8466  2.2249 -1.4200
   88MOL    H1122805   7.361   4.119   5.203  4.2097 -2.1009 -0.3388
   88MOL    H1222806   7.776   4.434   5.077  0.7536 -0.1429 -2.4702
   88MOL    H1322807   7.807   4.344   5.228  0.4099 -5.8193 -0.2344
   88MOL    H1422808   7.806   4.197   4.949 -0.1251 -3.1042  0.0986
   88MOL    C1522809   0.132   4.358   5.094 -0.4283 -0.1370 -0.1086
   88MOL    N1622810   0.206   4.251   5.168 -0.2040  0.1858  0.0741
   88MOL    C1722811   0.256   4.138   5.110  0.2081  0.5638 -0.5598
   88MOL    O1822812   0.215   4.097   5.002 -0.1536  1.1305 -0.0993
   88MOL    C1922813   0.339   4.052   5.201 -0.6263 -0.3192  0.7082
   88MOL    C2022814   0.196   4.499   5.122  0.6842 -0.1949  1.1386
   88MOL    H2122815   0.140   4.341   4.987  0.9975  0.5580 -0.1096
   88MOL    H2222816   0.222   4.273   5.265  0.5512 -1.1530  0.2647
   88MOL    H2322817   0.280   3.995   5.272 -3.6733 -0.1635 -1.5921
   88MOL    H2422818   0.392   3.966   5.160 -1.5756 -0.6566  0.1785
   88MOL    H2522819   0.406   4.115   5.259  1.8229 -0.2782 -2.0360
   88MOL    H2622820   0.147   4.563   5.048 -0.8220 -1.5458  0.9493
   88MOL    H2722821   0.162   4.532   5.220 -0.4055 -2.2407  1.4761
   88MOL    C2822822   0.351   4.503   5.094 -0.1042  0.3947  0.1138
   88MOL    N2922823   0.409   4.630   5.139  0.4158 -0.2327 -0.2780
   88MOL    C3022824   0.465   4.653   5.258 -0.4014 -0.2225  0.7093
   88MOL    O3122825   0.493   4.563   5.336 -1.0753 -0.1367  0.6239
   88MOL    C3222826   0.494   4.795   5.286  0.1205 -0.2982  0.1393
   88MOL    C3322827   0.388   4.493   4.951 -0.1227 -0.2386 -0.3811
   88MOL    H3422828   0.378   4.413   5.149 -0.4350  1.3008  1.8143
   88MOL    H3522829   0.417   4.709   5.076 -1.7477  0.5008  0.3355
   88MOL    H3622830   0.425   4.858   5.231  0.4694 -0.2962 -0.2948
   88MOL    H3722831   0.469   4.815   5.390 -0.2673 -0.2409  0.0372
   88MOL    H3822832   0.594   4.824   5.253 -0.1311 -1.5316 -1.7915
   88MOL    H3922833   0.344   4.412   4.892  0.3563  0.8268 -2.2316
   88MOL    H4022834   0.354   4.585   4.904  1.5672  1.5903  1.8690
   88MOL    C4122835   0.538   4.480   4.927  0.2427  0.5233 -0.1875
   88MOL    N4222836   0.550   4.483   4.779  0.2937  0.2489  0.0419
   88MOL    C4322837   0.594   4.584   4.704  0.3202  0.7008  0.4239
   88MOL    O4422838   0.645   4.688   4.751  0.5438 -0.0159 -0.1937
   88MOL    C4522839   0.566   4.569   4.557 -0.2633 -0.3636  0.6521
   88MOL    C4622840   0.606   4.342   4.981  0.2073 -0.3282  0.4808
   88MOL    H4722841   0.585   4.568   4.969 -0.0632  0.0400  1.1832
   88MOL    H4822842   0.501   4.408   4.733  0.0488  0.1625  0.4434
   88MOL    H4922843   0.487   4.630   4.513  1.3556 -0.5516 -2.6875
   88MOL    H5022844   0.660   4.596   4.509 -0.4893 -0.6430  0.0373
   88MOL    H5122845   0.533   4.469   4.529 -2.1727  0.9891 -2.2058
   88MOL    H5222846   0.618   4.354   5.088  2.1048 -0.0586  0.2494
   88MOL    H5322847   0.526   4.267   4.978  1.8193 -2.0762  0.3006
   88MOL    C5422848   0.735   4.287   4.903  0.0581  0.4200  0.3591
   88MOL    N5522849   0.737   4.146   4.927  0.0065  0.1898 -0.0394
   88MOL    C5622850   0.788   4.052   4.852  0.5572 -0.2468 -0.2704
   88MOL    O5722851   0.850   4.065   4.746  0.0963 -1.1892 -0.4369
   88MOL    C5822852   0.787   3.906   4.901  0.4503 -0.4333  0.0131
   88MOL    C5922853   0.870   4.353   4.946  1.0288 -0.1498  0.1381
   88MOL    H6022854   0.709   4.299   4.798 -0.4574  2.4230  0.6745
   88MOL    H6122855   0.690   4.112   5.010 -0.7997  0.6385 -0.3008
   88MOL    H6222856   0.683   3.880   4.922  0.6467 -0.5645  0.8412
   88MOL    H6322857   0.837   3.843   4.827 -1.3464 -1.2765 -0.5132
   88MOL    H6422858   0.847   3.906   4.992 -0.4260  0.1717  0.5980
   88MOL    H6522859   0.855   4.420   5.031  0.0623 -1.3669  0.9424
   88MOL    H6622860   0.938   4.279   4.989  0.8916 -0.4911 -0.2274
   88MOL    C6722861   0.939   4.414   4.822  0.2737 -0.5640 -0.5976
   88MOL    N6822862   0.954   4.323   4.707 -0.2288  0.2652 -0.1943
   88MOL    C6922863   0.934   4.350   4.577  0.2319  0.1353  0.0955
   88MOL    O7022864   0.895   4.465   4.539 -0.3585 -0.6836  0.4130
   88MOL    C7122865   0.952   4.241   4.472  0.0623  0.1442 -0.5038
   88MOL    C7222866   1.079   4.473   4.857  0.1352 -0.2771  0.6763
   88MOL    H7322867   0.864   4.488   4.794 -1.4199 -2.4871 -1.3348
   88MOL    H7422868   0.963   4.224   4.726  2.4961  0.8503  1.7723
   88MOL    H7522869   1.041   4.186   4.503  0.1776 -0.1003 -1.2480
   88MOL    H7622870   0.877   4.164   4.458 -0.5763  0.8583 -1.0372
   88MOL    H7722871   0.979   4.294   4.381  1.3041 -2.5922 -1.7905
   88MOL    H7822872   1.069   4.535   4.947  1.4656 -0.0472  0.6779
   88MOL    H7922873   1.142   4.392   4.893  3.1482  0.8648 -1.8569
   88MOL    C8022874   1.153   4.555   4.745  0.2656 -0.1337 -0.1994
   88MOL    N8122875   1.290   4.581   4.787  0.4782  0.5515 -0.0977
   88MOL    C8222876   1.396   4.511   4.756  0.5708  0.3317 -0.0931
   88MOL    O8322877   1.396   4.399   4.714  0.1665 -0.0737 -0.3351
   88MOL    C8422878   1.531   4.583   4.789 -0.5422 -0.5950  0.5236
   88MOL    C8522879   1.080   4.683   4.712 -0.4587  0.1246  0.2005
   88MOL    H8622880   1.161   4.497   4.653 -0.9924 -0.4734 -0.1033
   88MOL    H8722881   1.295   4.667   4.839  1.2067 -0.8472  2.2469
   88MOL    H8822882   1.608   4.534   4.730  0.9606 -0.2578  2.1652
   88MOL    H8922883   1.534   4.688   4.760 -1.0342 -0.5285  0.7027
   88MOL    H9022884   1.563   4.572   4.892 -0.4179  1.0806  0.6691
   88MOL    H9122885   0.973   4.663   4.721 -0.8937  2.7151  1.3638
   88MOL    H9222886   1.091   4.757   4.791 -0.0047  0.1343  0.1286
   88MOL    C9322887   1.116   4.735   4.571  0.5300  0.3176  0.8087
   88MOL    N9422888   1.251   4.781   4.566  0.1385 -0.3248  0.1162
   88MOL    C9522889   1.342   4.752   4.471  0.2322  0.3959  0.0552
   88MOL    O9622890   1.313   4.678   4.379  0.7691  0.1436  0.4150
   88MOL    C9722891   1.475   4.827   4.480  0.4316  0.2422 -0.3219
   88MOL    C9822892   1.026   4.848   4.519  1.0784 -0.2199 -0.3375
   88MOL    H9922893   1.106   4.651   4.503  1.1175  0.0643  1.0377
   88MOL   H10022894   1.278   4.861   4.621 -0.6055  0.7349 -1.0262
   88MOL   H10122895   1.466   4.935   4.486  2.2201  0.5144 -1.7838
   88MOL   H10222896   1.549   4.793   4.553  1.9202  2.9930 -0.4902
   88MOL   H10322897   1.518   4.818   4.379  0.1195 -3.0629 -0.2119
   88MOL   H10422898   0.929   4.807   4.549  0.6925  1.0746  0.2170
   88MOL   H10522899   1.026   4.940   4.578  0.1176 -0.1253 -0.4901
   88MOL   C10622900   1.025   4.881   4.369 -0.7997 -0.8822 -0.5238
   88MOL   N10722901   1.062   4.769   4.279  0.3337 -0.5983  0.1813
   88MOL   C10822902   0.978   4.703   4.205 -0.1076  0.1695  0.2828
   88MOL   O10922903   0.862   4.746   4.187  0.1095 -0.0444 -0.4750
   88MOL   C11022904   1.033   4.572   4.155 -0.0756  0.4958  0.3781
   88MOL   C11122905   1.127   4.998   4.347 -0.0686  0.2887  0.3742
   88MOL   H11222906   0.923   4.916   4.351  0.2394  0.3914 -4.2664
   88MOL   H11322907   1.151   4.725   4.299 -0.1689 -1.0196  1.6180
   88MOL   H11422908   0.973   4.493   4.199  0.2996  0.7173  1.3075
   88MOL   H11522909   1.018   4.578   4.047 -1.9961 -4.3948  0.2566
   88MOL   H11622910   1.140   4.557   4.173 -0.4325 -2.4608  0.2330
   88MOL   H11722911   1.202   4.992   4.426  1.0347 -0.5923 -0.7136
   88MOL   H11822912   1.192   4.985   4.260 -1.3540 -1.6559 -0.3322
   88MOL   C11922913   1.060   5.127   4.353  0.5921 -0.1962 -0.2437
   88MOL   N12022914   0.968   5.151   4.233  0.3056  0.2030 -0.1976
   88MOL   C12122915   0.861   5.229   4.250  0.4412 -0.6240  0.3068
   88MOL   O12222916   0.839   5.301   4.344 -0.1563 -0.1026 -0.4409
   88MOL   C12322917   0.756   5.214   4.143 -0.2044  0.0147 -0.8998
   88MOL   C12422918   1.152   5.250   4.366  0.0686  0.1482 -0.7482
   88MOL   H12522919   1.002   5.123   4.445  1.2015  1.5953  0.2380
   88MOL   H12622920   0.970   5.095   4.149  0.1282 -1.0921  0.6418
   88MOL   H12722921   0.660   5.198   4.192 -0.7028  1.0749 -1.5108
   88MOL   H12822922   0.751   5.301   4.077 -0.8192  1.2017  0.6712
   88MOL   H12922923   0.768   5.120   4.088 -0.4461 -0.5923  0.0704
   88MOL   H13022924   1.215   5.272   4.280 -0.7416 -2.2926 -2.0122
   88MOL   H13122925   1.095   5.343   4.369 -1.9189 -1.0679  0.4177
   88MOL   C13222926   1.252   5.255   4.481 -0.9641 -0.2159 -0.6713
   88MOL   N13322927   1.196   5.221   4.611 -0.2439  0.0521 -0.2975
   88MOL   C13422928   1.229   5.117   4.691  0.2291 -0.2977  0.0424
   88MOL   O13522929   1.318   5.034   4.668  0.6039  0.0396  0.3633
   88MOL   C13622930   1.150   5.102   4.821  0.4456 -0.2493  0.0356
   88MOL   C13722931   1.323   5.391   4.510  0.6680 -0.1301  0.0951
   88MOL   H13822932   1.332   5.181   4.469  0.4918  0.9282  1.5679
   88MOL   H13922933   1.138   5.296   4.646  1.5815  0.8971  0.9924
   88MOL   H14022934   1.139   5.001   4.860  0.6841 -0.4317 -0.3643
   88MOL   H14122935   1.196   5.170   4.892  1.8254 -0.7095 -0.4003
   88MOL   H14222936   1.046   5.135   4.814  1.2519  2.8391  1.8875
   88MOL   H14322937   1.360   5.428   4.415 -0.6788 -1.2479 -0.8788
   88MOL   H14422938   1.257   5.470   4.546 -0.0313 -0.5352 -0.2819
   88MOL   C14522939   1.444   5.389   4.605 -0.2707  0.0803  0.4609
   88MOL   N14622940   1.499   5.524   4.614 -0.4563  0.4453  0.2759
   88MOL   C14722941   1.529   5.598   4.723  0.1946  0.9496 -1.4930
   88MOL   O14822942   1.489   5.566   4.834 -0.4014  0.3140  0.2467
   88MOL   C14922943   1.608   5.726   4.696  0.2858  0.2949 -0.3410
   88MOL   C15022944   1.567   5.293   4.572  0.5691  0.4470 -0.2087
   88MOL   H15122945   1.416   5.352   4.703  1.2580 -1.9941  0.1623
   88MOL   H15222946   1.540   5.560   4.529 -1.1031  0.5130 -0.0108
   88MOL   H15322947   1.552   5.813   4.730  0.1363  0.1365 -0.1802
   88MOL   H15422948   1.690   5.708   4.766 -0.2219  1.2064  0.4890
   88MOL   H15522949   1.646   5.737   4.595  0.9899 -0.2176 -0.1455
   88MOL   H15622950   1.615   5.266   4.666  0.2094  0.1602 -0.1042
   88MOL   H15722951   1.546   5.196   4.527 -0.8091 -0.5302  2.4280
   88MOL   C15822952   1.690   5.353   4.489  0.8354  0.3619 -0.8814
   88MOL   N15922953   1.665   5.383   4.344 -0.4088 -0.0479 -0.0580
   88MOL   C16022954   1.626   5.510   4.306 -0.7503 -0.4703 -0.6841
   88MOL   O16122955   1.626   5.604   4.381 -0.3763 -0.1152 -0.1295
   88MOL   C16222956   1.564   5.522   4.167 -0.0896  0.2934 -0.2003
   88MOL   C16322957   1.813   5.260   4.475  0.0992  0.1742  0.2215
   88MOL   H16422958   1.725   5.443   4.538 -0.2236  0.2136  0.1968
   88MOL   H16522959   1.656   5.306   4.279  0.2777 -1.4182  1.4145
   88MOL   H16622960   1.603   5.462   4.084  1.0105  1.2132 -0.3706
   88MOL   H16722961   1.461   5.488   4.170  0.0059 -0.0626 -0.8209
   88MOL   H16822962   1.568   5.625   4.132 -1.5675  0.7536  0.9708
   88MOL   H16922963   1.764   5.163   4.477  3.0223 -1.3284  3.4590
   88MOL   H17022964   1.866   5.271   4.381  0.5114 -0.4092  0.3855
   88MOL   C17122965   1.923   5.258   4.582 -0.3229  0.6685 -0.0105
   88MOL   N17222966   1.979   5.391   4.600  0.2320  0.0006  0.3645
   88MOL   C17322967   1.953   5.474   4.705  0.2743 -0.4342  1.0757
   88MOL   O17422968   1.896   5.445   4.807  0.2729  0.7286 -0.4889
   88MOL   C17522969   2.006   5.620   4.685  0.0640  0.1282  0.0526
   88MOL   C17622970   2.030   5.158   4.551 -0.4404 -0.1565 -0.1053
   88MOL   H17722971   1.882   5.225   4.678  0.6168  1.9258  0.8472
   88MOL   H17822972   2.039   5.416   4.522 -0.6863 -1.0952 -0.7113
   88MOL   H17922973   1.944   5.701   4.723  0.7840  0.8705 -0.3296
   88MOL   H18022974   2.098   5.626   4.742 -0.1622  0.7339  0.3610
   88MOL   H18122975   2.038   5.645   4.584  1.3805  2.3962  0.9927
   88MOL   H18222976   2.060   5.170   4.446 -2.6317  1.0835 -0.6194
   88MOL   H18322977   2.118   5.175   4.613 -1.1996 -1.1988  1.2663
   88MOL   C18422978   2.011   5.013   4.581 -0.7681  1.1234 -0.4638
   88MOL   N18522979   1.952   4.978   4.716 -0.1313  0.1749  0.0158
   88MOL   C18622980   1.837   4.913   4.737 -0.0139 -0.5569  0.2218
   88MOL   O18722981   1.788   4.847   4.651  0.2431  0.0932 -0.7724
   88MOL   C18822982   1.780   4.922   4.880 -0.1433  0.8114 -0.4797
   88MOL   C18922983   2.147   4.936   4.558 -0.7935 -0.2795  0.0097
   88MOL   H19022984   1.937   4.977   4.511  1.4291 -0.8984 -1.8173
   88MOL   H19122985   1.989   5.032   4.793 -0.2968  2.6988 -1.6194
   88MOL   H19222986   1.754   4.821   4.912 -0.3523 -0.9001 -5.6378
   88MOL   H19322987   1.848   4.967   4.952 -0.3837 -0.8128  0.8017
   88MOL   H19422988   1.679   4.965   4.881 -0.3884  0.2859 -1.8105
   88MOL   H19522989   2.231   4.981   4.611  0.8189  1.2143 -3.6491
   88MOL   H19622990   2.137   4.835   4.598 -0.2731 -0.4663 -0.3264
   88MOL   C19722991   2.179   4.914   4.404  0.6645 -0.1808 -0.1098
   88MOL   N19822992   2.193   4.774   4.366 -0.1569 -0.9090  0.2976
   88MOL   C19922993   2.269   4.679   4.418  1.0122  0.0756  0.2190
   88MOL   O20022994   2.356   4.710   4.500  0.5330 -0.3126  0.0511
   88MOL   C20122995   2.249   4.536   4.362 -0.7342  0.0702 -0.0924
   88MOL   C20222996   2.289   5.004   4.343 -0.2567  0.3974 -0.0380
   88MOL   H20322997   2.087   4.941   4.352  0.0222 -1.9078  0.0831
   88MOL   H20422998   2.130   4.753   4.289 -2.2483 -0.8991  1.9682
   88MOL   H20522999   2.141   4.528   4.345 -0.4836  0.5910 -1.9329
   88MOL   H20623000   2.305   4.528   4.269  0.7479  4.6469  0.3012
   88MOL   H20723001   2.282   4.464   4.437 -1.6269  0.5669  0.7947
   88MOL   H20823002   2.252   5.103   4.369  1.6096  1.0021  0.3740
   88MOL   H20923003   2.385   4.986   4.392  0.7305  1.5559 -1.5021
   88MOL   C21023004   2.309   5.005   4.186  0.3625  0.2991  0.1573
   88MOL   N21123005   2.383   4.886   4.149 -0.3656  0.1296 -0.4549
   88MOL   C21223006   2.388   4.838   4.026 -0.2493 -0.4954  0.4918
   88MOL   O21323007   2.465   4.742   4.002  0.2109 -0.8157  0.4576
   88MOL   C21423008   2.287   4.888   3.924 -0.3182  0.2962 -0.2921
   88MOL   C21523009   2.388   5.128   4.136  0.1783  0.2407 -0.3251
   88MOL   H21623010   2.208   5.013   4.146 -0.8734 -1.8769  2.6624
   88MOL   H21723011   2.427   4.841   4.228 -0.7001  0.8682  0.1545
   88MOL   H21823012   2.186   4.880   3.964 -0.1390 -0.0338  0.1043
   88MOL   H21923013   2.311   4.992   3.901  0.4636  0.2338  0.2019
   88MOL   H22023014   2.289   4.826   3.835  2.6601 -1.4250  0.9191
   88MOL   H22123015   2.465   5.155   4.208  0.9698 -0.4095 -0.9151
   88MOL   H22223016   2.436   5.107   4.041 -0.1278 -1.6248 -0.0955
   88MOL   C22323017   2.295   5.252   4.102  0.1437  0.2281 -0.5788
   88MOL   N22423018   2.199   5.237   3.990 -0.2721  0.2145 -0.0297
   88MOL   C22523019   2.066   5.222   3.997  0.0792 -0.1480  0.0777
   88MOL   O22623020   1.999   5.201   4.100  0.4817  0.0804 -0.0606
   88MOL   C22723021   1.998   5.221   3.871 -0.0125 -0.0833 -0.2515
   88MOL   C22823022   2.383   5.382   4.096  0.3554 -0.2192  0.3981
   88MOL   H22923023   2.236   5.259   4.193  0.5134 -1.6869 -0.1686
   88MOL   H23023024   2.230   5.243   3.894 -2.8411 -1.8135 -1.0462
   88MOL   H23123025   1.899   5.263   3.884  0.6224  2.4769 -3.1384
   88MOL   H23223026   2.046   5.279   3.791  1.7051  0.2254  0.9667
   88MOL   H23323027   1.967   5.121   3.840  0.7326 -0.0175 -1.2460
   88MOL   H23423028   2.484   5.366   4.133  0.4476  2.1565  1.2242
   88MOL   H23523029   2.385   5.400   3.989 -0.5590 -6.2064 -0.8420
   88MOL   C23623030   2.321   5.499   4.179 -0.5767 -0.3528 -0.8167
   88MOL   N23723031   2.180   5.529   4.144  0.3494  0.1938 -0.1240
   88MOL   C23823032   2.078   5.517   4.225  0.3728  0.0263  0.3241
   88MOL   O23923033   2.087   5.479   4.337  0.2549  0.1548  0.3869
   88MOL   C24023034   1.949   5.560   4.164  0.0450 -0.1582 -0.1932
   88MOL   C24123035   2.412   5.629   4.178 -0.0557  0.4614 -0.4885
   88MOL   H24223036   2.325   5.455   4.279  2.4294 -0.8291 -1.1199
   88MOL   H24323037   2.162   5.554   4.048 -0.2833 -1.8758 -0.5636
   88MOL   H24423038   1.900   5.467   4.138  1.0649 -0.6402 -0.4148
   88MOL   H24523039   1.881   5.613   4.231  0.1059 -2.2211  1.5450
   88MOL   H24623040   1.971   5.625   4.079  0.3150  1.5631  1.1541
   88MOL   H24723041   2.402   5.667   4.280  1.3828 -0.1438 -0.1222
   88MOL   H24823042   2.516   5.598   4.176  0.2391  1.4203 -0.1776
   88MOL   C24923043   2.381   5.732   4.072 -0.2640  0.6699  0.4131
   88MOL   N25023044   2.390   5.668   3.941 -0.0586  0.0269  0.1020
   88MOL   C25123045   2.307   5.670   3.841  0.0196  0.0093  0.5747
   88MOL   O25223046   2.212   5.754   3.835  0.4114  0.5583 -0.4561
   88MOL   C25323047   2.336   5.571   3.726 -0.4185  0.0403 -0.0206
   88MOL   C25423048   2.478   5.854   4.064 -0.2903 -0.4840  0.0868
   88MOL   H25523049   2.281   5.773   4.088 -1.2791 -0.9651 -1.5430
   88MOL   H25623050   2.469   5.606   3.932 -0.1839 -0.4041  1.7656
   88MOL   H25723051   2.332   5.469   3.763  0.8124  0.1419  0.4389
   88MOL   H25823052   2.266   5.572   3.643 -2.2463  3.9110  1.4150
   88MOL   H25923053   2.437   5.582   3.686 -0.8741 -0.2197 -1.2688
   88MOL   H26023054   2.452   5.921   3.983  1.2743  0.7660  0.5815
   88MOL   H26123055   2.459   5.915   4.153  0.0701  0.7656 -0.6815
   88MOL   H26223056   2.583   5.826   4.066 -0.4177 -1.0380 -0.7501
   89MOL     C123057   0.931   1.488   4.744  0.2201 -0.5002  0.1518
   89MOL     N223058   0.846   1.611   4.751  0.2834  0.5889 -0.0811
   89MOL     C323059   0.876   1.727   4.812  0.0992 -0.8995 -0.0645
   89MOL     O423060   0.974   1.745   4.887  0.1157 -0.6185  0.6224
   89MOL     C523061   0.789   1.845   4.772 -0.0415 -1.1590 -0.0428
   89MOL     C623062   0.971   1.455   4.600 -0.1519  0.0223 -0.1948
   89MOL     H723063   1.021   1.492   4.804 -1.0885  1.5583  2.0506
   89MOL     H823064   0.754   1.605   4.710  0.0535 -3.7014  0.8850
   89MOL     H923065   0.735   1.844   4.677 -1.9393  0.6946  0.9639
   89MOL    H1023066   0.715   1.868   4.849 -0.9146  0.9180 -1.4534
   89MOL    H1123067   0.847   1.936   4.764 -1.6484  0.1252  2.2409
   89MOL    H1223068   0.887   1.439   4.532 -1.1192  0.0518  0.9777
   89MOL    H1323069   1.008   1.552   4.566  1.7795 -0.5344  0.2504
   89MOL    H1423070   0.882   1.401   4.788  0.2451  1.3975  4.1127
   89MOL    C1523071   1.086   1.356   4.566  0.0392  0.1793 -0.0434
   89MOL    N1623072   1.076   1.234   4.641 -0.1953  0.4321  0.8847
   89MOL    C1723073   0.973   1.162   4.678 -0.2528 -0.2917  0.6464
   89MOL    O1823074   0.863   1.177   4.629 -0.5630  0.3076 -0.3230
   89MOL    C1923075   1.010   1.059   4.782  0.4323 -0.0273  0.2532
   89MOL    C2023076   1.226   1.411   4.594 -0.7759 -0.1816  0.4817
   89MOL    H2123077   1.074   1.334   4.460 -0.5792 -0.9582  0.2606
   89MOL    H2223078   1.162   1.204   4.684  0.7781 -0.9012 -1.8727
   89MOL    H2323079   1.104   1.009   4.760 -0.2410 -1.6639  0.9787
   89MOL    H2423080   0.998   1.093   4.885  0.2950  0.8154 -0.0326
   89MOL    H2523081   0.939   0.977   4.770 -1.8612  1.9435 -0.0481
   89MOL    H2623082   1.235   1.441   4.698 -0.5210 -0.1821  0.4605
   89MOL    H2723083   1.288   1.322   4.578  0.8775  0.7629  1.5037
   89MOL    C2823084   1.274   1.520   4.495  0.2177 -0.2607 -0.0123
   89MOL    N2923085   1.339   1.467   4.374 -0.9372 -0.6143  0.0747
   89MOL    C3023086   1.283   1.459   4.251  0.2713  0.5945  0.2834
   89MOL    O3123087   1.162   1.469   4.223 -0.0283 -0.7265 -0.3730
   89MOL    C3223088   1.387   1.444   4.137 -0.2988 -0.4749  0.7059
   89MOL    C3323089   1.370   1.624   4.561  0.0502 -0.3511 -0.1695
   89MOL    H3423090   1.190   1.582   4.462  0.2931  0.2148  0.6627
   89MOL    H3523091   1.439   1.455   4.369 -0.8094  0.7129 -0.7034
   89MOL    H3623092   1.377   1.357   4.073  0.3427 -0.0596  0.0438
   89MOL    H3723093   1.357   1.519   4.064  1.3757  0.0701  0.5654
   89MOL    H3823094   1.488   1.466   4.172 -0.1988 -0.2054  0.2425
   89MOL    H3923095   1.463   1.580   4.598  1.7961  2.9306 -0.5265
   89MOL    H4023096   1.401   1.692   4.482  0.3618  1.5866  1.5993
   89MOL    C4123097   1.323   1.706   4.684  0.1453 -0.1046  0.1378
   89MOL    N4223098   1.211   1.791   4.658  0.2192 -0.1219 -0.0717
   89MOL    C4323099   1.202   1.904   4.591  0.4448 -0.6968  0.5663
   89MOL    O4423100   1.271   1.913   4.489 -0.8015 -0.3271  0.2799
   89MOL    C4523101   1.113   2.017   4.648  0.2569  0.1756  0.6324
   89MOL    C4623102   1.442   1.782   4.755 -1.3241  0.1329  0.1119
   89MOL    H4723103   1.296   1.636   4.763  0.1755 -0.1416  0.1151
   89MOL    H4823104   1.139   1.787   4.729 -0.3536 -0.5494 -0.6683
   89MOL    H4923105   1.102   2.013   4.757  0.2834 -1.2983  0.5901
   89MOL    H5023106   1.156   2.114   4.623  0.4688 -0.6823 -2.4437
   89MOL    H5123107   1.009   2.019   4.616  0.5998  1.8366 -0.4118
   89MOL    H5223108   1.492   1.843   4.680  0.0210 -0.7105  0.2997
   89MOL    H5323109   1.404   1.857   4.824 -0.0542 -0.4869  1.5116
   89MOL    C5423110   1.545   1.695   4.832  0.5495  0.3952  0.5557
   89MOL    N5523111   1.567   1.759   4.960 -0.3387 -0.0948  0.1662
   89MOL    C5623112   1.591   1.702   5.077  0.2956  1.0018  0.4556
   89MOL    O5723113   1.579   1.580   5.101 -0.3681 -0.0981  0.2323
   89MOL    C5823114   1.641   1.784   5.193 -0.7299  0.2203  0.1950
   89MOL    C5923115   1.682   1.681   4.760  0.3899 -0.4894  0.2345
   89MOL    H6023116   1.494   1.599   4.843  0.9539  0.3299  1.9938
   89MOL    H6123117   1.573   1.859   4.963  0.3682 -0.0392 -2.1834
   89MOL    H6223118   1.566   1.862   5.206 -0.5399  0.7187 -1.5350
   89MOL    H6323119   1.658   1.719   5.279 -1.0677  0.6502  0.5945
   89MOL    H6423120   1.733   1.838   5.171 -0.2321 -0.5469  0.3827
   89MOL    H6523121   1.683   1.748   4.674  1.5117 -1.6176 -0.6485
   89MOL    H6623122   1.758   1.735   4.817 -1.2864  0.9048  1.2078
   89MOL    C6723123   1.732   1.541   4.724  0.6458 -0.1379 -0.1504
   89MOL    N6823124   1.730   1.455   4.839  0.5616 -0.0696  0.7186
   89MOL    C6923125   1.669   1.335   4.840  0.1994 -0.0968  0.5060
   89MOL    O7023126   1.580   1.306   4.756 -0.1688  0.7402 -0.5107
   89MOL    C7123127   1.693   1.241   4.960  0.0564 -0.4061  0.3106
   89MOL    C7223128   1.868   1.531   4.652 -0.1252  0.2653 -0.5820
   89MOL    H7323129   1.656   1.531   4.647  2.2943  1.6547 -2.0599
   89MOL    H7423130   1.785   1.489   4.916 -0.8989 -0.0722  1.7985
   89MOL    H7523131   1.622   1.265   5.039  1.8832 -0.6993  2.0834
   89MOL    H7623132   1.704   1.136   4.935  0.9630  0.2544 -2.2408
   89MOL    H7723133   1.785   1.277   5.007  0.2361 -2.1176  1.2892
   89MOL    H7823134   1.918   1.623   4.682 -0.4117 -0.3792  2.0749
   89MOL    H7923135   1.928   1.447   4.686  0.7093  0.8969 -0.4820
   89MOL    C8023136   1.874   1.535   4.498  0.4491 -0.1855 -0.1133
   89MOL    N8123137   1.812   1.412   4.436 -1.1348 -0.8755  0.1442
   89MOL    C8223138   1.694   1.417   4.377 -0.3121 -0.1552 -1.1534
   89MOL    O8323139   1.624   1.517   4.366  0.1796  0.7831 -0.3601
   89MOL    C8423140   1.641   1.283   4.331  0.4550 -1.0826  0.0996
   89MOL    C8523141   2.019   1.557   4.443 -0.0118  0.5242 -0.2579
   89MOL    H8623142   1.812   1.619   4.465  0.1625 -0.7082 -0.9380
   89MOL    H8723143   1.858   1.322   4.439  0.1048 -0.2705 -0.3647
   89MOL    H8823144   1.574   1.246   4.408 -1.9823  0.5359 -1.1700
   89MOL    H8923145   1.578   1.287   4.242  1.6262 -1.7508 -0.7686
   89MOL    H9023146   1.714   1.207   4.305  0.7041 -1.1142  0.8703
   89MOL    H9123147   2.050   1.653   4.485  1.8807  1.5830 -3.8873
   89MOL    H9223148   2.074   1.475   4.490 -0.6212  0.7002  0.7947
   89MOL    C9323149   2.046   1.563   4.285 -0.0979 -0.2496 -0.9683
   89MOL    N9423150   2.186   1.542   4.256  0.3035 -0.0315 -0.9434
   89MOL    C9523151   2.295   1.602   4.304 -0.0078 -0.2317  0.7731
   89MOL    O9623152   2.301   1.699   4.384 -0.5540  0.0080  0.1470
   89MOL    C9723153   2.433   1.547   4.262  0.2828  0.1327  0.4592
   89MOL    C9823154   1.975   1.678   4.203  0.5313 -0.2001 -0.7917
   89MOL    H9923155   2.012   1.471   4.237 -1.8787 -1.3972  2.3591
   89MOL   H10023156   2.203   1.468   4.189  2.1178 -2.2922  1.8931
   89MOL   H10123157   2.434   1.457   4.200  1.0023  0.1428  0.4595
   89MOL   H10223158   2.495   1.621   4.211 -1.4359  1.4965  0.3069
   89MOL   H10323159   2.494   1.533   4.351 -0.9177 -1.5983  1.0442
   89MOL   H10423160   1.925   1.741   4.278  1.0721  0.5482 -1.0572
   89MOL   H10523161   2.042   1.753   4.162 -0.0564 -0.6667 -2.6572
   89MOL   C10623162   1.863   1.646   4.098  0.4797  0.1466 -0.3016
   89MOL   N10723163   1.891   1.543   4.006 -0.2647  0.2652  0.1100
   89MOL   C10823164   1.814   1.441   3.967 -0.8274  0.3862  0.0253
   89MOL   O10923165   1.719   1.401   4.022  0.6402  0.1236  0.4129
   89MOL   C11023166   1.845   1.383   3.829  0.0678  0.0475  0.3681
   89MOL   C11123167   1.816   1.772   4.021  0.0068  0.6674  0.1692
   89MOL   H11223168   1.778   1.614   4.159  1.0271  1.0664  0.9600
   89MOL   H11323169   1.968   1.565   3.944 -0.9018  1.4854 -0.2555
   89MOL   H11423170   1.931   1.430   3.782 -1.2410  0.9337 -1.2227
   89MOL   H11523171   1.854   1.275   3.831 -1.4260 -0.0758  1.0709
   89MOL   H11623172   1.756   1.412   3.772  0.4464 -1.4463 -1.0008
   89MOL   H11723173   1.865   1.863   4.057  0.6378  0.3709  0.0794
   89MOL   H11823174   1.851   1.764   3.918  1.2845  0.2702  0.6207
   89MOL   C11923175   1.663   1.803   4.019 -0.1372  0.7074  0.1963
   89MOL   N12023176   1.622   1.881   3.906  0.7386 -0.7420 -0.6336
   89MOL   C12123177   1.659   2.008   3.869 -0.2441  0.1077  0.1965
   89MOL   O12223178   1.751   2.069   3.919  0.6768 -0.1758 -0.4616
   89MOL   C12323179   1.588   2.065   3.751 -0.2608 -0.3521  0.0106
   89MOL   C12423180   1.615   1.850   4.169  0.0728 -0.2267 -0.0514
   89MOL   H12523181   1.608   1.710   4.003 -0.9295  1.2017  0.0372
   89MOL   H12623182   1.550   1.836   3.850 -1.0482 -2.6611  3.0438
   89MOL   H12723183   1.493   2.106   3.785 -1.1202 -2.0988 -0.2017
   89MOL   H12823184   1.643   2.148   3.707  1.0155 -1.4274 -0.4673
   89MOL   H12923185   1.564   1.988   3.678 -1.5510 -0.0002  0.0410
   89MOL   H13023186   1.595   1.761   4.229 -0.9974  0.9397  1.3412
   89MOL   H13123187   1.685   1.922   4.211  0.9385 -1.1759  0.1539
   89MOL   C13223188   1.472   1.916   4.174  0.2028  0.4108 -0.2722
   89MOL   N13323189   1.459   1.982   4.301 -0.2629 -0.4846 -0.5469
   89MOL   C13423190   1.509   2.105   4.329  0.3728  0.9350 -0.5145
   89MOL   O13523191   1.570   2.174   4.248  0.4995  0.1825 -0.0839
   89MOL   C13623192   1.487   2.164   4.463 -0.5223 -0.2537  0.1231
   89MOL   C13723193   1.352   1.819   4.159 -0.1073 -0.4043 -0.3591
   89MOL   H13823194   1.461   1.996   4.101  0.8813  0.9209  0.1860
   89MOL   H13923195   1.402   1.946   4.376 -1.0347 -1.1273 -1.4378
   89MOL   H14023196   1.547   2.254   4.475  0.1948 -0.6433 -0.4930
   89MOL   H14123197   1.388   2.201   4.489 -0.2739  0.4462  0.0809
   89MOL   H14223198   1.534   2.090   4.529 -0.6827  0.9157  1.5768
   89MOL   H14323199   1.374   1.743   4.084  0.8372 -0.4566 -0.0319
   89MOL   H14423200   1.340   1.771   4.257  1.1531  3.5145  1.8344
   89MOL   C14523201   1.227   1.892   4.107  0.6396 -0.7597 -0.2376
   89MOL   N14623202   1.171   1.974   4.218 -0.5412 -0.2682  0.1817
   89MOL   C14723203   1.109   2.092   4.195 -0.4185  0.0611  0.6258
   89MOL   O14823204   1.093   2.134   4.081 -0.5709  0.0055 -0.6740
   89MOL   C14923205   1.074   2.175   4.316 -0.2273  0.0949 -0.3240
   89MOL   C15023206   1.119   1.795   4.053  0.0711  0.1626  0.0588
   89MOL   H15123207   1.250   1.955   4.022  1.5732  1.3116  1.5016
   89MOL   H15223208   1.195   1.952   4.314  1.3948 -0.1206 -0.2560
   89MOL   H15323209   1.161   2.199   4.377  1.2803 -0.4296 -2.2238
   89MOL   H15423210   1.042   2.276   4.288  1.8218  1.5277  2.2637
   89MOL   H15523211   0.999   2.124   4.377  1.4620 -2.3751 -0.2702
   89MOL   H15623212   1.100   1.718   4.128 -0.8285 -0.1661 -0.4970
   89MOL   H15723213   1.025   1.847   4.035  0.1708 -0.3172 -1.9845
   89MOL   C15823214   1.151   1.735   3.913 -0.1353  0.5703  0.1735
   89MOL   N15923215   1.179   1.843   3.820  0.2201 -0.4908 -0.8081
   89MOL   C16023216   1.290   1.839   3.737  0.4553  0.9052 -0.0086
   89MOL   O16123217   1.389   1.772   3.763 -0.1773  0.1127 -0.2113
   89MOL   C16223218   1.298   1.940   3.617  0.3146  0.3725  0.3835
   89MOL   C16323219   1.038   1.652   3.854 -0.1453  0.3915 -0.4249
   89MOL   H16423220   1.243   1.678   3.930 -0.5082  0.0665  0.5388
   89MOL   H16523221   1.102   1.905   3.798 -0.6398 -1.3880 -0.3679
   89MOL   H16623222   1.299   2.040   3.659  0.2198 -0.7548  3.1470
   89MOL   H16723223   1.393   1.943   3.564  0.4278 -1.2713  0.4540
   89MOL   H16823224   1.216   1.938   3.545 -0.1003  0.2577  0.8561
   89MOL   H16923225   0.942   1.686   3.893 -0.8690  0.8661 -2.5346
   89MOL   H17023226   1.035   1.665   3.746  1.1310  0.6785 -0.4312
   89MOL   C17123227   1.043   1.503   3.888 -0.9455  0.2160  0.1557
   89MOL   N17223228   1.175   1.442   3.876  0.1368 -0.9654 -0.2560
   89MOL   C17323229   1.245   1.443   3.761  0.1074 -0.4053 -0.2326
   89MOL   O17423230   1.204   1.472   3.648  0.8756 -0.0095 -0.5730
   89MOL   C17523231   1.393   1.427   3.777  0.4781  0.4084  0.2390
   89MOL   C17623232   0.935   1.422   3.812 -0.9221 -0.1109 -0.4216
   89MOL   H17723233   1.012   1.509   3.992 -0.4249  1.6974  0.2371
   89MOL   H17823234   1.223   1.419   3.962  3.0220 -1.4806 -1.9494
   89MOL   H17923235   1.438   1.518   3.817  0.3434  0.6212 -0.0967
   89MOL   H18023236   1.406   1.342   3.845 -2.8915 -0.1349  0.2860
   89MOL   H18123237   1.442   1.395   3.685  0.0213 -1.5259  0.6404
   89MOL   H18223238   0.954   1.427   3.705  0.1016 -2.8335 -0.4293
   89MOL   H18323239   0.948   1.316   3.838 -0.6539 -0.5013 -2.0777
   89MOL   C18423240   0.794   1.446   3.844  0.8480  0.2432 -0.6246
   89MOL   N18523241   0.768   1.425   3.991 -0.3232 -0.2239 -0.5440
   89MOL   C18623242   0.767   1.521   4.091 -0.4234 -0.2000 -0.1242
   89MOL   O18723243   0.781   1.641   4.064  0.6076 -0.5735  0.1255
   89MOL   C18823244   0.749   1.463   4.225  0.3766 -0.0398  0.8632
   89MOL   C18923245   0.698   1.353   3.753  0.1010  0.9142 -0.6367
   89MOL   H19023246   0.761   1.549   3.830  0.3171 -0.0693 -1.7193
   89MOL   H19123247   0.730   1.335   4.016 -0.3233 -0.0666  0.0211
   89MOL   H19223248   0.675   1.383   4.221  0.1703  0.2718 -2.5011
   89MOL   H19323249   0.844   1.431   4.268  1.8494  2.2743 -0.5801
   89MOL   H19423250   0.701   1.539   4.287 -1.1614 -1.3803  1.3438
   89MOL   H19523251   0.742   1.354   3.653  0.8333 -2.8380 -0.4496
   89MOL   H19623252   0.702   1.249   3.786 -0.5663  1.3290  0.7518
   89MOL   C19723253   0.551   1.395   3.745  0.4140 -0.3228  0.2938
   89MOL   N19823254   0.491   1.281   3.668  0.1401  0.5978  0.8602
   89MOL   C19923255   0.380   1.220   3.707  0.1521 -0.7698  0.1823
   89MOL   O20023256   0.312   1.258   3.802 -0.0441  0.4102  0.1001
   89MOL   C20123257   0.335   1.101   3.629 -0.0561 -0.1129  0.4440
   89MOL   C20223258   0.523   1.524   3.673  0.0588 -0.5459  0.4730
   89MOL   H20323259   0.516   1.403   3.847  0.0210 -0.8488  0.1992
   89MOL   H20423260   0.542   1.245   3.589 -0.2751  1.7879  0.0328
   89MOL   H20523261   0.326   1.010   3.688 -2.0897 -1.3753 -1.7446
   89MOL   H20623262   0.237   1.119   3.585  0.0359  2.0954  1.0653
   89MOL   H20723263   0.416   1.079   3.560 -0.9627  1.3535 -1.1018
   89MOL   H20823264   0.572   1.603   3.729  0.2438  0.5388 -1.2175
   89MOL   H20923265   0.566   1.531   3.574 -0.8124  2.5504  0.2830
   89MOL   C21023266   0.379   1.564   3.662  0.3791 -0.0684  0.2085
   89MOL   N21123267   0.374   1.686   3.579  0.1369 -0.6674  0.7166
   89MOL   C21223268   0.353   1.690   3.444 -0.2720 -0.0963 -0.1821
   89MOL   O21323269   0.374   1.594   3.372 -0.5825  0.0257 -0.2962
   89MOL   C21423270   0.322   1.826   3.383 -0.2457 -0.1355  0.1677
   89MOL   C21523271   0.318   1.602   3.799 -0.2913 -0.1973  0.1623
   89MOL   H21623272   0.322   1.483   3.618  1.4996 -0.6121 -0.2671
   89MOL   H21723273   0.379   1.778   3.620  0.9067 -0.0744 -0.6641
   89MOL   H21823274   0.401   1.854   3.314  1.0048 -2.1974  0.7344
   89MOL   H21923275   0.224   1.821   3.334  0.0332 -0.4733 -0.3555
   89MOL   H22023276   0.321   1.896   3.466 -1.7080 -0.7896  0.7241
   89MOL   H22123277   0.342   1.535   3.882  1.3428 -0.0525 -0.1828
   89MOL   H22223278   0.376   1.689   3.830 -1.4391  0.2945  0.9732
   89MOL   C22323279   0.172   1.648   3.791 -0.3493  0.8801  0.0701
   89MOL   N22423280   0.136   1.737   3.899 -0.3554 -0.0326 -0.1634
   89MOL   C22523281   0.021   1.803   3.908  0.0173  0.1802 -0.6883
   89MOL   O22623282   7.760   1.777   3.847 -0.1236 -0.4572 -0.3079
   89MOL   C22723283   0.011   1.912   4.021 -0.2287  0.1945  0.2598
   89MOL   C22823284   0.079   1.522   3.791  0.4332  0.3836 -0.4334
   89MOL   H22923285   0.145   1.707   3.704  0.7196  0.3952 -0.6054
   89MOL   H23023286   0.207   1.763   3.966 -2.7072  0.3194  2.2724
   89MOL   H23123287   7.782   1.875   4.097  0.4575 -1.4431  0.0911
   89MOL   H23223288   0.103   1.929   4.077  0.7934 -2.4867 -0.5564
   89MOL   H23323289   7.815   2.007   3.981  1.2467  0.3558 -0.7310
   89MOL   H23423290   0.139   1.436   3.821  0.7529  1.1782  1.3070
   89MOL   H23523291   7.836   1.530   3.862 -0.4597  1.8748 -1.6452
   89MOL   C23623292   0.015   1.488   3.652  0.2049 -0.1619 -0.1644
   89MOL   N23723293   7.773   1.602   3.616  0.3170 -0.2968  0.3608
   89MOL   C23823294   7.774   1.662   3.496 -0.2871 -0.1481  0.1259
   89MOL   O23923295   0.006   1.625   3.408  0.7017  0.2571 -0.1931
   89MOL   C24023296   7.698   1.793   3.482 -0.1183 -0.1484 -0.2287
   89MOL   C24123297   7.768   1.368   3.665  0.3207 -0.1512 -0.5955
   89MOL   H24223298   0.099   1.459   3.588  1.6884 -1.1290  2.1476
   89MOL   H24323299   7.703   1.633   3.683 -0.0173 -0.4232  0.0680
   89MOL   H24423300   7.721   1.859   3.565 -1.5266 -0.0722  0.1193
   89MOL   H24523301   7.709   1.847   3.388 -0.8019  1.4132  0.5620
   89MOL   H24623302   7.594   1.758   3.481  0.3260 -1.4830 -1.1984
   89MOL   H24723303   7.830   1.294   3.715  0.9338 -0.3280 -1.6228
   89MOL   H24823304   7.683   1.394   3.729  0.1429  1.8184 -1.6000
   89MOL   C24923305   7.710   1.321   3.534  0.0785 -0.2716 -0.2618
   89MOL   N25023306   7.582   1.245   3.557 -0.1706 -0.2971  0.4720
   89MOL   C25123307   7.474   1.313   3.597 -0.7493 -0.7274 -0.9354
   89MOL   O25223308   7.471   1.439   3.614  0.4445  0.2015 -0.6437
   89MOL   C25323309   7.352   1.231   3.635  0.2944  0.6075  0.0088
   89MOL   C25423310   7.817   1.227   3.469 -1.2236  0.1736  0.4742
   89MOL   H25523311   7.682   1.402   3.467 -1.2847 -0.4251  0.0938
   89MOL   H25623312   7.576   1.145   3.550 -0.5746 -0.1256 -2.4061
   89MOL   H25723313   7.383   1.129   3.660 -1.1955  0.0923 -0.1883
   89MOL   H25823314   7.289   1.274   3.712 -0.0868  1.9549 -1.0309
   89MOL   H25923315   7.283   1.226   3.551 -0.3066 -0.5021  0.5590
   89MOL   H26023316   0.009   1.131   3.512  2.3180 -0.1423 -2.5670
   89MOL   H26123317   7.787   1.198   3.368 -1.9268  1.7777  0.2183
   89MOL   H26223318   0.067   1.286   3.450  0.0176 -1.3201  1.5467
   90MOL     C123319   1.850   1.585   2.973  0.0650 -0.7721  0.5918
   90MOL     N223320   1.892   1.587   2.827 -0.3283  0.2787  0.6978
   90MOL     C323321   1.968   1.689   2.767  0.3072  0.0703 -0.3949
   90MOL     O423322   2.008   1.789   2.827  0.2107 -0.2035  0.0996
   90MOL     C523323   1.989   1.679   2.616 -0.2968  0.2209 -0.7636
   90MOL     C623324   1.708   1.517   2.978 -0.5565  0.1801 -0.9183
   90MOL     H723325   1.924   1.536   3.036 -1.2988 -1.5771  1.5823
   90MOL     H823326   1.848   1.518   2.768 -0.1127 -0.6061  1.5552
   90MOL     H923327   2.094   1.700   2.596 -0.2491  0.9677  0.2510
   90MOL    H1023328   1.970   1.575   2.587  0.4191 -0.8352  2.3788
   90MOL    H1123329   1.921   1.756   2.580 -0.6283 -0.5771 -1.8935
   90MOL    H1223330   1.638   1.575   2.918 -1.6523 -1.3293 -1.1341
   90MOL    H1323331   1.704   1.415   2.939  1.0303 -0.3732  0.2953
   90MOL    H1423332   1.845   1.689   3.004 -0.4117 -0.0063 -1.9493
   90MOL    C1523333   1.645   1.522   3.117 -0.2608 -0.3579  0.4533
   90MOL    N1623334   1.654   1.659   3.170 -0.2604 -0.6376 -0.2124
   90MOL    C1723335   1.577   1.757   3.125  0.2421  0.0334 -0.7120
   90MOL    O1823336   1.494   1.740   3.037 -0.2325  0.3042 -0.3527
   90MOL    C1923337   1.599   1.895   3.179 -0.2096  0.2401  0.5939
   90MOL    C2023338   1.709   1.422   3.224 -0.8348 -0.2973  0.6290
   90MOL    H2123339   1.543   1.482   3.110  0.6594 -2.4093 -1.9456
   90MOL    H2223340   1.724   1.689   3.235 -1.2039 -0.5407  0.7697
   90MOL    H2323341   1.696   1.933   3.147  0.4372  1.2540  3.5560
   90MOL    H2423342   1.517   1.956   3.141 -0.5187 -0.6936 -0.2621
   90MOL    H2523343   1.592   1.892   3.288 -0.6236 -0.1464  0.5564
   90MOL    H2623344   1.714   1.316   3.196 -0.3637 -0.6395  1.9605
   90MOL    H2723345   1.811   1.453   3.246 -1.0543  2.0571 -1.4438
   90MOL    C2823346   1.633   1.428   3.366 -0.7709 -0.4327 -0.4951
   90MOL    N2923347   1.722   1.486   3.468  0.3002 -0.9566 -0.3595
   90MOL    C3023348   1.691   1.592   3.544 -0.2424  0.6500  0.0068
   90MOL    O3123349   1.758   1.616   3.640 -0.8431 -0.4416 -0.7034
   90MOL    C3223350   1.566   1.679   3.527 -0.2128 -0.0824 -0.0151
   90MOL    C3323351   1.594   1.288   3.414 -0.1387  0.3131 -0.2386
   90MOL    H3423352   1.541   1.486   3.356 -0.4992 -0.3891 -3.2975
   90MOL    H3523353   1.802   1.433   3.499 -0.0624 -1.5550 -0.4421
   90MOL    H3623354   1.566   1.760   3.601 -2.7581  0.9006 -1.0421
   90MOL    H3723355   1.559   1.719   3.426  0.8111  2.4241  0.8549
   90MOL    H3823356   1.480   1.614   3.543  1.4777 -1.5461  3.5544
   90MOL    H3923357   1.674   1.215   3.411  0.9547  1.3964  1.8473
   90MOL    H4023358   1.577   1.288   3.522 -1.9054  0.9754 -0.4938
   90MOL    C4123359   1.471   1.230   3.348 -0.1204  0.0659  0.1981
   90MOL    N4223360   1.348   1.308   3.377  0.4785  0.2773 -0.3091
   90MOL    C4323361   1.271   1.354   3.281 -0.0751 -0.3926  0.3570
   90MOL    O4423362   1.295   1.338   3.166 -0.3425 -0.1471  0.4594
   90MOL    C4523363   1.160   1.451   3.319  0.1822  0.1791  0.5450
   90MOL    C4623364   1.445   1.081   3.389 -0.3659  0.6859 -0.5207
   90MOL    H4723365   1.482   1.220   3.240 -0.6311 -0.6876  0.2041
   90MOL    H4823366   1.325   1.327   3.473 -0.8332 -0.8774 -0.3816
   90MOL    H4923367   1.078   1.414   3.381  2.0893  0.8260  3.5805
   90MOL    H5023368   1.197   1.535   3.378 -0.2464  1.8572 -1.5209
   90MOL    H5123369   1.115   1.491   3.228  1.1245  1.6530  0.7129
   90MOL    H5223370   1.431   1.083   3.498 -1.6338 -0.0714 -0.6576
   90MOL    H5323371   1.348   1.049   3.351 -0.1786  1.6339 -1.7830
   90MOL    C5423372   1.555   0.970   3.358 -1.0260  0.8133  0.2781
   90MOL    N5523373   1.582   0.973   3.214  0.2827  0.0246 -0.1575
   90MOL    C5623374   1.693   1.025   3.157 -0.0920 -1.0723  0.0222
   90MOL    O5723375   1.794   1.056   3.213  0.2495  0.3088 -0.2013
   90MOL    C5823376   1.692   1.045   3.003 -0.8659 -0.4252  0.1441
   90MOL    C5923377   1.526   0.827   3.413 -0.0894  0.0389 -0.5798
   90MOL    H6023378   1.641   1.015   3.409 -0.3043  0.5991 -0.7422
   90MOL    H6123379   1.496   0.950   3.166  0.1130 -0.5492  0.4097
   90MOL    H6223380   1.742   1.134   2.965  1.6952 -1.3480  1.2034
   90MOL    H6323381   1.756   0.964   2.968 -1.1231 -0.3508 -0.5060
   90MOL    H6423382   1.594   1.038   2.956 -0.7715 -1.3499  0.0750
   90MOL    H6523383   1.496   0.829   3.518 -1.8029  2.5420 -1.0592
   90MOL    H6623384   1.437   0.786   3.365 -1.4958 -0.6254  2.4749
   90MOL    C6723385   1.642   0.728   3.404 -0.9829 -0.1998  0.3561
   90MOL    N6823386   1.609   0.602   3.342 -0.0990 -0.1859 -0.4066
   90MOL    C6923387   1.597   0.573   3.209  0.9331  0.3963  0.2675
   90MOL    O7023388   1.637   0.642   3.114 -0.3180 -0.1797  0.3014
   90MOL    C7123389   1.523   0.445   3.179  0.9980 -0.1128 -0.3787
   90MOL    C7223390   1.694   0.702   3.539 -0.3126  0.1511  0.1152
   90MOL    H7323391   1.719   0.777   3.345 -0.1267 -0.6530  1.0889
   90MOL    H7423392   1.598   0.521   3.402  1.1632 -0.8425 -1.0493
   90MOL    H7523393   1.573   0.365   3.233 -1.0495 -1.0844  0.1465
   90MOL    H7623394   1.422   0.451   3.221 -0.1935  0.1939 -3.1657
   90MOL    H7723395   1.513   0.425   3.073 -2.7878  1.6823 -0.4505
   90MOL    H7823396   1.612   0.650   3.587 -0.3948 -0.8443 -1.0742
   90MOL    H7923397   1.767   0.622   3.528 -1.4972 -0.8937 -0.2438
   90MOL    C8023398   1.739   0.823   3.620 -0.1231  0.2255  0.3952
   90MOL    N8123399   1.849   0.904   3.569 -0.4466  0.0611  0.4489
   90MOL    C8223400   1.859   1.034   3.573  0.1580 -0.0058  0.3515
   90MOL    O8323401   1.775   1.103   3.635 -0.0263 -0.4098  0.1986
   90MOL    C8423402   1.974   1.096   3.503  0.0359  0.2723 -0.3909
   90MOL    C8523403   1.772   0.775   3.764 -0.0663 -0.3659  0.2193
   90MOL    H8623404   1.659   0.894   3.639 -1.0467 -0.5570 -0.5426
   90MOL    H8723405   1.934   0.860   3.537 -0.2653 -1.0347  2.3624
   90MOL    H8823406   2.071   1.069   3.545 -0.5282  0.2559  0.9222
   90MOL    H8923407   1.957   1.072   3.398 -0.5151 -0.4443 -0.1417
   90MOL    H9023408   1.966   1.205   3.510 -0.4161  0.1166  1.7080
   90MOL    H9123409   1.849   0.697   3.764 -0.6894 -0.9823 -0.5734
   90MOL    H9223410   1.819   0.845   3.832 -1.5251  0.5883  0.2477
   90MOL    C9323411   1.643   0.724   3.847 -1.0164  0.3216  0.1694
   90MOL    N9423412   1.609   0.805   3.958 -0.4326 -0.0542  0.1414
   90MOL    C9523413   1.682   0.834   4.067  0.0782 -0.2417 -0.0496
   90MOL    O9623414   1.797   0.787   4.091 -0.1701 -0.4099 -0.3916
   90MOL    C9723415   1.610   0.919   4.166  0.5646 -0.1480  0.5861
   90MOL    C9823416   1.646   0.574   3.889 -0.2809 -0.5274 -0.0970
   90MOL    H9923417   1.560   0.738   3.778 -0.6767 -1.3400 -0.6152
   90MOL   H10023418   1.518   0.848   3.955 -0.0571  0.7626  0.3055
   90MOL   H10123419   1.608   1.021   4.128  0.5777  0.4386  2.1347
   90MOL   H10223420   1.514   0.873   4.190  0.3362 -1.5137 -2.6616
   90MOL   H10323421   1.658   0.920   4.264  0.4467 -0.5125  0.6485
   90MOL   H10423422   1.739   0.576   3.945 -0.2526  1.3049 -0.1923
   90MOL   H10523423   1.565   0.559   3.961 -0.5353 -1.2350 -0.5247
   90MOL   C10623424   1.660   0.461   3.784 -0.8356  1.1119 -0.3793
   90MOL   N10723425   1.535   0.457   3.703 -0.5684  0.4569 -0.4266
   90MOL   C10823426   1.523   0.412   3.575 -0.6562  0.2340 -0.0863
   90MOL   O10923427   1.622   0.368   3.513  0.0249  0.3253  0.1074
   90MOL   C11023428   1.388   0.425   3.508 -0.2553  0.2592 -0.5596
   90MOL   C11123429   1.678   0.319   3.841  0.5597  0.0234  0.5912
   90MOL   H11223430   1.750   0.479   3.725  1.1109  1.5997  2.6313
   90MOL   H11323431   1.452   0.506   3.735  0.1893  0.9536  0.8027
   90MOL   H11423432   1.312   0.414   3.584 -0.3248 -0.8230 -0.7861
   90MOL   H11523433   1.384   0.524   3.462  1.2657  0.4430 -0.3432
   90MOL   H11623434   1.379   0.369   3.415  0.3166 -0.1344 -0.3812
   90MOL   H11723435   1.610   0.299   3.924 -1.0716  1.9615 -0.2443
   90MOL   H11823436   1.649   0.247   3.763  0.8110  0.0791  0.4459
   90MOL   C11923437   1.823   0.282   3.881  0.4915  0.3450 -0.2615
   90MOL   N12023438   1.914   0.288   3.761  0.4890 -0.0681  0.7013
   90MOL   C12123439   2.031   0.341   3.770 -0.3382 -0.2895  0.1138
   90MOL   O12223440   2.082   0.381   3.874  0.1290 -0.2678 -0.3067
   90MOL   C12323441   2.116   0.350   3.643  0.0587 -0.3968  0.9413
   90MOL   C12423442   1.839   0.161   3.972  0.5738 -0.1605 -0.0142
   90MOL   H12523443   1.852   0.361   3.950 -0.5154  0.7029 -0.2395
   90MOL   H12623444   1.878   0.266   3.669 -0.8119  2.6321  0.5072
   90MOL   H12723445   2.083   0.285   3.562  4.0229 -1.0954 -0.2365
   90MOL   H12823446   2.097   0.449   3.602 -0.9718 -1.1029 -0.3260
   90MOL   H12923447   2.223   0.328   3.654  1.0425  2.4842 -2.0316
   90MOL   H13023448   1.812   0.072   3.917 -0.8409 -0.3535  0.9557
   90MOL   H13123449   1.947   0.149   3.987  0.0088 -0.8895  4.1605
   90MOL   C13223450   1.784   0.164   4.114  0.0752  0.1124 -0.0526
   90MOL   N13323451   1.819   0.284   4.191 -0.3124 -0.0349  0.0809
   90MOL   C13423452   1.729   0.379   4.226  0.3438  0.3381  0.1436
   90MOL   O13523453   1.606   0.361   4.211 -0.3839 -0.2622  0.4627
   90MOL   C13623454   1.782   0.513   4.275 -0.3868  0.6937  0.4624
   90MOL   C13723455   1.836   0.038   4.193 -0.1918 -0.3033  0.1633
   90MOL   H13823456   1.675   0.157   4.112  0.1275 -0.5990 -0.6465
   90MOL   H13923457   1.918   0.300   4.190 -0.2263 -0.5506  0.1268
   90MOL   H14023458   1.796   0.503   4.383  1.8881 -0.2083  0.1078
   90MOL   H14123459   1.874   0.537   4.222 -0.4956 -0.1675 -0.1346
   90MOL   H14223460   1.706   0.591   4.270 -1.0248  0.0843  0.4716
   90MOL   H14323461   1.778   7.793   4.154  3.1711 -1.8711 -1.7121
   90MOL   H14423462   1.940   0.015   4.169  0.4843  1.7457  1.0561
   90MOL   C14523463   1.821   0.031   4.345  0.4823  0.4925  0.1006
   90MOL   N14623464   1.888   7.752   4.392  0.8264 -0.7573 -0.6561
   90MOL   C14723465   1.989   7.738   4.481  0.2811 -0.3584  0.2802
   90MOL   O14823466   2.031   7.834   4.542  0.0796 -0.3408  0.0068
   90MOL   C14923467   2.058   7.602   4.503 -0.0700  0.5520  0.0050
   90MOL   C15023468   1.672   0.034   4.382 -0.2804  0.0435 -0.2725
   90MOL   H15123469   1.878   0.116   4.383 -0.7761  0.4735  2.1450
   90MOL   H15223470   1.859   7.659   4.366 -0.9965  0.0439 -1.6046
   90MOL   H15323471   1.978   7.530   4.516 -0.3351  0.7618 -0.4379
   90MOL   H15423472   2.110   7.563   4.415 -0.1106 -1.0199  0.6577
   90MOL   H15523473   2.123   7.594   4.590  0.8912 -0.3357 -0.7733
   90MOL   H15623474   1.639   0.135   4.358  1.8413  0.2299 -2.4538
   90MOL   H15723475   1.620   7.795   4.327  1.2672 -1.2924  0.1413
   90MOL   C15823476   1.644   0.022   4.537 -0.6268  0.0770 -1.0422
   90MOL   N15923477   1.654   7.721   4.572 -0.1204 -0.6192  0.5816
   90MOL   C16023478   1.708   7.675   4.686 -1.0040  0.4970  0.4116
   90MOL   O16123479   1.763   7.751   4.765 -0.0429  0.7518  0.0928
   90MOL   C16223480   1.707   7.533   4.718 -0.0311 -0.5875  0.4993
   90MOL   C16323481   1.501   0.068   4.575  0.2770  0.2041 -0.0745
   90MOL   H16423482   1.723   0.079   4.587 -2.7777  0.9013  1.5171
   90MOL   H16523483   1.621   7.658   4.501 -2.3358  0.5988  0.4924
   90MOL   H16623484   1.630   7.521   4.794 -0.0719  1.0377  0.7251
   90MOL   H16723485   1.672   7.460   4.644 -0.6583  1.1590 -0.9591
   90MOL   H16823486   1.798   7.493   4.764  0.0152 -2.3469 -1.0347
   90MOL   H16923487   1.446   0.040   4.485  1.2536 -2.1791  0.0347
   90MOL   H17023488   1.452   0.001   4.645 -1.9260  1.0760 -0.7500
   90MOL   C17123489   1.493   0.212   4.616 -0.1876 -0.2127 -0.7705
   90MOL   N17223490   1.578   0.222   4.731 -0.4931  0.3594 -0.0944
   90MOL   C17323491   1.666   0.317   4.771  0.0047  1.2180  0.4021
   90MOL   O17423492   1.677   0.424   4.711  0.1322  0.6969 -0.2375
   90MOL   C17523493   1.756   0.298   4.887  0.2664  0.7705  0.2527
   90MOL   C17623494   1.350   0.260   4.652 -0.1739  0.4390 -0.5458
   90MOL   H17723495   1.532   0.272   4.533 -0.8396  1.4880  0.1307
   90MOL   H17823496   1.564   0.153   4.803  0.9616 -1.9391 -1.9562
   90MOL   H17923497   1.806   0.202   4.877  1.8087  1.7053 -1.5112
   90MOL   H18023498   1.835   0.374   4.885  1.4928 -0.5069 -0.8564
   90MOL   H18123499   1.706   0.290   4.983  1.0263 -2.2676  0.4526
   90MOL   H18223500   1.287   0.178   4.688 -1.1751  0.8394 -1.3693
   90MOL   H18323501   1.364   0.328   4.736 -2.3329 -0.2523  0.4092
   90MOL   C18423502   1.281   0.347   4.543 -0.6454 -0.1340 -0.2142
   90MOL   N18523503   1.131   0.362   4.582  0.3631  0.1734 -0.1072
   90MOL   C18623504   1.093   0.443   4.680 -0.0052 -1.0491  0.2230
   90MOL   O18723505   1.167   0.490   4.771  0.7453  0.0253 -0.4932
   90MOL   C18823506   0.945   0.466   4.686 -0.4186  0.4907  0.0938
   90MOL   C18923507   1.291   0.293   4.403 -0.0382 -0.5293  0.4176
   90MOL   H19023508   1.325   0.446   4.536  0.1259 -0.3026  1.8745
   90MOL   H19123509   1.060   0.324   4.522 -1.1584 -0.3503  1.9626
   90MOL   H19223510   0.923   0.519   4.593 -1.6942  0.8031  0.5649
   90MOL   H19323511   0.897   0.369   4.677  1.7862 -0.6806  0.4947
   90MOL   H19423512   0.919   0.518   4.778  3.2808  1.3036  0.7827
   90MOL   H19523513   1.397   0.292   4.375  0.0622 -0.5231  0.7996
   90MOL   H19623514   1.253   0.192   4.388 -0.2382  0.0807 -4.0265
   90MOL   C19723515   1.210   0.368   4.287 -0.3225 -0.1266  1.1006
   90MOL   N19823516   1.264   0.314   4.160 -0.6169  0.7342 -0.6024
   90MOL   C19923517   1.200   0.237   4.069  0.1623 -0.2064  0.3023
   90MOL   O20023518   1.078   0.210   4.077  0.1498  0.6426 -0.8371
   90MOL   C20123519   1.275   0.184   3.944  0.4391 -0.0531 -0.0201
   90MOL   C20223520   1.247   0.520   4.287 -1.1498  0.5546 -0.5658
   90MOL   H20323521   1.105   0.341   4.288 -0.5274  0.5508 -0.1270
   90MOL   H20423522   1.363   0.329   4.147  0.0116 -0.8185  1.9274
   90MOL   H20523523   1.265   0.261   3.867 -1.4234 -0.0539  0.2011
   90MOL   H20623524   1.379   0.162   3.967  0.8854 -1.5367 -3.2219
   90MOL   H20723525   1.225   0.094   3.907 -1.7242  2.1193 -2.6269
   90MOL   H20823526   1.228   0.555   4.388 -0.6588 -0.7679  0.0023
   90MOL   H20923527   1.354   0.535   4.277 -0.8236 -0.3892  1.2812
   90MOL   C21023528   1.156   0.613   4.199  0.6029 -0.2535 -0.0007
   90MOL   N21123529   1.010   0.603   4.231 -0.1371 -0.2732  0.0848
   90MOL   C21223530   0.928   0.704   4.253  0.3362 -0.2372 -0.0330
   90MOL   O21323531   0.966   0.820   4.234  0.4403 -0.1108  0.7709
   90MOL   C21423532   0.792   0.663   4.294 -0.1545 -0.1783  0.3006
   90MOL   C21523533   1.177   0.595   4.047 -0.2526  0.0211 -0.5199
   90MOL   H21623534   1.182   0.713   4.234 -0.9342 -0.6903  2.4853
   90MOL   H21723535   0.963   0.514   4.232 -2.0732  0.6912 -1.0685
   90MOL   H21823536   0.721   0.739   4.263  0.9343  1.0811  0.8267
   90MOL   H21923537   0.769   0.570   4.240  1.8209 -1.0664  0.9185
   90MOL   H22023538   0.785   0.657   4.402  0.9688 -0.3917  0.3672
   90MOL   H22123539   1.273   0.553   4.018 -0.1440  0.9722 -1.5704
   90MOL   H22223540   1.108   0.520   4.006 -1.7915  1.2037 -0.1632
   90MOL   C22323541   1.150   0.730   3.972  0.0171  0.4296 -0.0746
   90MOL   N22423542   1.129   0.710   3.826  0.2552 -0.9779 -0.6985
   90MOL   C22523543   1.199   0.653   3.731  0.8064 -0.1139  0.0122
   90MOL   O22623544   1.299   0.591   3.754  0.6131  0.3822  0.1235
   90MOL   C22723545   1.143   0.676   3.584 -0.0225 -0.0225  0.0075
   90MOL   C22823546   1.272   0.824   3.987  0.1622  0.6243 -0.5559
   90MOL   H22923547   1.065   0.789   4.007  1.1497  2.5700 -0.8596
   90MOL   H23023548   1.052   0.766   3.790  0.2107 -0.3668  0.3282
   90MOL   H23123549   1.125   0.574   3.551  1.1735 -0.7534  1.5369
   90MOL   H23223550   1.060   0.746   3.594  0.1160  0.3964 -1.6986
   90MOL   H23323551   1.217   0.716   3.516 -0.9080 -2.2673 -2.3491
   90MOL   H23423552   1.308   0.838   4.089 -0.9487 -0.1594 -0.0509
   90MOL   H23523553   1.358   0.771   3.946 -0.9487 -0.5606 -1.3888
   90MOL   C23623554   1.262   0.961   3.916 -0.1616  0.1744 -0.3126
   90MOL   N23723555   1.389   1.033   3.935  0.4068  0.1511  0.0192
   90MOL   C23823556   1.470   1.057   3.839 -0.3546 -0.6871  0.5075
   90MOL   O23923557   1.445   1.023   3.722  0.4908  0.4728  0.0603
   90MOL   C24023558   1.590   1.133   3.872 -0.8394 -0.1876 -0.2222
   90MOL   C24123559   1.135   1.048   3.955  0.4185 -0.2340  0.2643
   90MOL   H24223560   1.242   0.938   3.811  1.2446 -0.7690 -0.3885
   90MOL   H24323561   1.408   1.078   4.024  0.8163  0.1119 -0.0502
   90MOL   H24423562   1.585   1.202   3.956 -0.7659  0.2891 -0.6153
   90MOL   H24523563   1.682   1.077   3.889  0.5894  1.4950 -2.2371
   90MOL   H24623564   1.610   1.205   3.794 -2.4168 -0.1657 -0.6232
   90MOL   H24723565   1.127   1.126   3.880  0.6415 -2.2965 -1.9470
   90MOL   H24823566   1.046   0.987   3.943  0.5018 -0.7503  2.1223
   90MOL   C24923567   1.138   1.122   4.089 -0.3199 -0.9534  0.2236
   90MOL   N25023568   1.158   1.031   4.205 -0.4452  0.4334  0.2785
   90MOL   C25123569   1.251   1.050   4.302 -0.0734 -0.6859 -0.5749
   90MOL   O25223570   1.340   1.135   4.293 -0.0082  0.4077  0.0157
   90MOL   C25323571   1.251   0.948   4.409 -0.1088 -0.7111 -0.5082
   90MOL   C25423572   0.997   1.188   4.112 -0.5577  0.0724 -0.3938
   90MOL   H25523573   1.202   1.210   4.088 -1.8085  0.1533 -1.3626
   90MOL   H25623574   1.095   0.955   4.225 -1.0944  1.0801  0.7566
   90MOL   H25723575   1.326   0.975   4.484 -1.2881  3.0267 -0.5582
   90MOL   H25823576   1.154   0.945   4.460  0.5077 -1.7582  0.6271
   90MOL   H25923577   1.282   0.859   4.356 -0.3838  0.6059 -2.9608
   90MOL   H26023578   0.973   1.210   4.216 -1.1235  1.9598 -0.9043
   90MOL   H26123579   0.990   1.280   4.054 -0.4333  0.3185 -0.0142
   90MOL   H26223580   0.914   1.129   4.074 -0.3674 -0.7247  0.4147
   91MOL     C123581   3.190   7.830   0.248  0.0481 -0.2785  0.1623
   91MOL     N223582   3.177   0.069   0.123  0.3723  0.1679  0.2457
   91MOL     C323583   3.072   0.080   0.046  0.6981 -0.3601  0.0028
   91MOL     O423584   2.964   0.032   0.077 -0.1309 -0.2527  0.5053
   91MOL     C523585   3.086   0.141   7.755 -0.2839  0.2419  0.3625
   91MOL     C623586   3.262   0.086   0.345  0.5562  0.2630 -0.2242
   91MOL     H723587   3.089   7.799   0.277  0.6390 -1.9038  0.5319
   91MOL     H823588   3.259   0.119   0.093  0.5373  1.1940  2.3130
   91MOL     H923589   3.110   0.248   7.761  1.7447 -0.2335  0.9453
   91MOL    H1023590   3.174   0.092   7.715  0.4614  1.2666  0.7218
   91MOL    H1123591   3.004   0.130   7.683  0.1313  2.3801 -0.4829
   91MOL    H1223592   3.364   0.105   0.311  0.7165  1.2434  0.7748
   91MOL    H1323593   3.210   0.182   0.349  0.3763  0.1166  0.8803
   91MOL    H1423594   3.249   7.739   0.236 -0.1491 -0.4669  0.5766
   91MOL    C1523595   3.271   0.051   0.494  0.5726 -0.1822 -0.8663
   91MOL    N1623596   3.144   0.003   0.546 -0.4892 -0.0303 -0.2417
   91MOL    C1723597   3.113   7.714   0.562 -0.3202  0.4505 -0.8260
   91MOL    O1823598   3.187   7.624   0.531 -0.2858 -0.2134 -0.0217
   91MOL    C1923599   2.978   7.685   0.619  0.3131  0.2057  0.5431
   91MOL    C2023600   3.319   0.182   0.567  0.5841 -0.0097 -0.4816
   91MOL    H2123601   3.348   7.815   0.506 -0.0296 -0.3435  2.1780
   91MOL    H2223602   3.084   0.067   0.597  1.0621 -0.1508  1.7889
   91MOL    H2323603   2.976   7.692   0.728  0.5960  1.3743  0.4813
   91MOL    H2423604   2.897   7.750   0.586  1.1754  0.5775 -0.8468
   91MOL    H2523605   2.949   7.583   0.593  0.9366  0.6076 -1.7719
   91MOL    H2623606   3.422   0.200   0.533  1.0255 -1.9115 -0.1903
   91MOL    H2723607   3.248   0.259   0.537 -2.9221 -1.8750  2.7175
   91MOL    C2823608   3.339   0.187   0.717 -0.2057 -0.0476  0.4483
   91MOL    N2923609   3.346   0.327   0.753 -0.2203  0.2175 -0.2217
   91MOL    C3023610   3.329   0.384   0.873  0.0673 -0.1573 -0.2748
   91MOL    O3123611   3.339   0.311   0.971  0.2048  0.6082 -0.0473
   91MOL    C3223612   3.319   0.535   0.880 -0.0579 -0.2268 -0.8551
   91MOL    C3323613   3.462   0.102   0.766  0.5919  0.0975  0.4285
   91MOL    H3423614   3.250   0.137   0.755 -1.2468  3.2222  2.5173
   91MOL    H3523615   3.351   0.395   0.679  1.0446  1.6767  1.1871
   91MOL    H3623616   3.232   0.551   0.943 -1.4181  0.3509 -2.8617
   91MOL    H3723617   3.403   0.574   0.938  0.4025 -2.5572  0.0752
   91MOL    H3823618   3.326   0.594   0.788  0.1461  0.2712 -0.5242
   91MOL    H3923619   3.532   0.086   0.685 -1.6942 -0.8110 -1.4281
   91MOL    H4023620   3.523   0.165   0.832  0.4546  0.0527  0.5985
   91MOL    C4123621   3.438   7.802   0.823 -0.2113 -0.2099 -0.4241
   91MOL    N4223622   3.359   7.831   0.941  0.2291  0.0614 -0.4503
   91MOL    C4323623   3.246   7.769   0.983  0.5926 -0.8666 -0.0805
   91MOL    O4423624   3.197   7.677   0.923  0.5375  0.5884  0.4901
   91MOL    C4523625   3.167   7.828   1.096 -0.0041 -0.0664 -0.2271
   91MOL    C4623626   3.572   7.718   0.847  0.2557  0.3758 -0.1605
   91MOL    H4723627   3.384   7.743   0.750  1.1611  0.7419 -2.2270
   91MOL    H4823628   3.368   0.086   0.975 -4.3888  1.0953 -1.7328
   91MOL    H4923629   3.092   7.755   1.127  0.9654 -1.6408 -1.5174
   91MOL    H5023630   3.235   0.017   1.176 -2.0586  2.2730  0.7461
   91MOL    H5123631   3.127   0.083   1.060 -0.7118 -0.1824  0.2454
   91MOL    H5223632   3.652   7.745   0.778 -1.0233  0.7306 -1.5184
   91MOL    H5323633   3.616   7.740   0.945  0.1743 -1.1012  0.2261
   91MOL    C5423634   3.552   7.566   0.825 -0.1874  0.1034 -0.1666
   91MOL    N5523635   3.656   7.485   0.899  0.0303  0.4084 -0.1042
   91MOL    C5623636   3.786   7.466   0.878 -0.0154  0.3823  0.3781
   91MOL    O5723637   3.839   7.513   0.777  0.8151 -0.0637 -0.3419
   91MOL    C5823638   3.865   7.402   0.991  0.3802  0.1506  0.0518
   91MOL    C5923639   3.538   7.523   0.677 -0.8783 -0.1019  0.2891
   91MOL    H6023640   3.462   7.529   0.874  0.1538 -0.5545 -0.0378
   91MOL    H6123641   3.626   7.437   0.982 -0.2450 -0.8472 -0.9101
   91MOL    H6223642   3.845   7.295   0.989 -1.1665  0.4346 -0.5061
   91MOL    H6323643   3.968   7.434   0.972 -0.0574  0.9643 -0.9916
   91MOL    H6423644   3.830   7.444   1.086  0.0708  1.2800 -0.5511
   91MOL    H6523645   3.443   7.562   0.638 -0.3288  0.2990 -0.6799
   91MOL    H6623646   3.610   7.569   0.609  0.0716  0.9603  2.0015
   91MOL    C6723647   3.547   7.375   0.640  0.0190 -0.2381  0.1669
   91MOL    N6823648   3.522   7.368   0.493 -0.0912  0.8512  0.2499
   91MOL    C6923649   3.580   7.295   0.403 -0.4849  0.5882 -1.0358
   91MOL    O7023650   3.679   7.230   0.435 -0.5126  0.1306 -0.1107
   91MOL    C7123651   3.518   7.289   0.260 -1.2155 -0.2325 -0.4394
   91MOL    C7223652   3.432   7.288   0.701  0.2842  0.3777 -0.0373
   91MOL    H7323653   3.644   7.332   0.667  1.7008  1.8509 -2.1987
   91MOL    H7423654   3.443   7.416   0.452 -2.0015 -1.7218  0.7659
   91MOL    H7523655   3.515   7.186   0.226  0.6937  0.6297 -3.3901
   91MOL    H7623656   3.411   7.312   0.259 -1.2682 -0.4194  0.5695
   91MOL    H7723657   3.559   7.363   0.191 -0.0158  0.3731  0.8942
   91MOL    H7823658   3.395   7.351   0.782  0.9517  0.7666 -0.0309
   91MOL    H7923659   3.341   7.279   0.642  1.2958 -0.3361 -1.5183
   91MOL    C8023660   3.474   7.146   0.753  0.6045  0.2522  0.3853
   91MOL    N8123661   3.521   7.065   0.635 -0.1716 -0.2171  0.2727
   91MOL    C8223662   3.606   6.964   0.646 -0.6731  0.0648 -0.4435
   91MOL    O8323663   3.654   6.933   0.752 -0.2696 -0.2538  0.4945
   91MOL    C8423664   3.659   6.899   0.516 -0.2491  0.0117  0.2127
   91MOL    C8523665   3.349   7.074   0.818 -0.7651  0.1587 -1.0100
   91MOL    H8623666   3.556   7.154   0.824  2.3977 -1.6794 -1.3571
   91MOL    H8723667   3.493   7.103   0.545  0.2792 -0.5795 -0.0227
   91MOL    H8823668   3.619   6.958   0.433 -1.3577 -2.2761 -0.9247
   91MOL    H8923669   3.768   6.895   0.510 -0.1139  1.3368  1.4886
   91MOL    H9023670   3.610   6.802   0.506  0.3627 -0.1083 -1.8453
   91MOL    H9123671   3.263   7.076   0.750  0.5987  0.4791 -2.7479
   91MOL    H9223672   3.366   6.966   0.829  2.9150  0.7119 -0.8050
   91MOL    C9323673   3.301   7.121   0.953 -0.2051 -0.0599 -0.8251
   91MOL    N9423674   3.396   7.082   1.055  0.7348 -0.2457  0.6183
   91MOL    C9523675   3.503   7.151   1.095 -0.4050 -0.0270 -0.6812
   91MOL    O9623676   3.538   7.263   1.066 -0.0518  0.1657 -1.0060
   91MOL    C9723677   3.607   7.073   1.186 -0.2033  0.2710  0.4462
   91MOL    C9823678   3.160   7.072   1.009 -0.3126  0.2226  0.7270
   91MOL    H9923679   3.286   7.228   0.942  1.0418  0.1944 -0.2150
   91MOL   H10023680   3.391   6.989   1.093  3.3546 -0.5512  0.2994
   91MOL   H10123681   3.574   7.093   1.288 -1.7040 -0.1285  0.0465
   91MOL   H10223682   3.611   6.969   1.153  1.6965 -0.3115  2.3821
   91MOL   H10323683   3.705   7.117   1.169 -0.7123  1.9960  1.8841
   91MOL   H10423684   3.116   7.024   0.922  3.9131  0.9170 -1.9732
   91MOL   H10523685   3.160   7.007   1.096 -1.7378  0.4550  0.9197
   91MOL   C10623686   3.068   7.188   1.056 -0.4852 -0.6478  0.0973
   91MOL   N10723687   2.962   7.134   1.145 -0.0527 -0.1506 -0.3147
   91MOL   C10823688   2.978   7.113   1.277  0.3252 -0.0686 -0.2157
   91MOL   O10923689   3.079   7.155   1.336  0.2077 -1.0338  0.2306
   91MOL   C11023690   2.858   7.067   1.353  0.9539 -0.1841 -0.0155
   91MOL   C11123691   3.002   7.281   0.941 -0.1593 -0.3764  0.6962
   91MOL   H11223692   3.135   7.258   1.106 -0.5958 -1.3759  1.2707
   91MOL   H11323693   2.890   7.083   1.095 -0.2006 -0.6791  0.4174
   91MOL   H11423694   2.792   7.140   1.399  0.9067 -0.4370  0.3241
   91MOL   H11523695   2.786   7.015   1.290  0.7150 -0.7106  0.6854
   91MOL   H11623696   2.880   6.988   1.425  1.6122 -0.8055 -0.8857
   91MOL   H11723697   2.998   7.385   0.975 -0.6811 -0.4464  0.8558
   91MOL   H11823698   3.064   7.289   0.852 -0.0957 -2.7144  0.5003
   91MOL   C11923699   2.859   7.248   0.889 -0.3688 -0.2776 -0.0752
   91MOL   N12023700   2.859   7.114   0.833 -0.5071  0.1506 -0.2592
   91MOL   C12123701   2.813   7.003   0.884 -0.2310 -0.4188 -0.3764
   91MOL   O12223702   2.768   6.993   0.997  0.1330  0.1158  0.3526
   91MOL   C12323703   2.793   6.884   0.787  0.1999  0.1049  0.0933
   91MOL   C12423704   2.817   7.349   0.783  0.1635 -0.0680  0.0966
   91MOL   H12523705   2.790   7.256   0.974  0.1843 -0.7286  0.4245
   91MOL   H12623706   2.879   7.123   0.735  2.4930 -0.1484  0.2674
   91MOL   H12723707   2.692   6.874   0.749  0.1453 -0.7287  0.4534
   91MOL   H12823708   2.858   6.896   0.700  1.2221 -1.0630  0.6833
   91MOL   H12923709   2.820   6.786   0.825 -0.3408 -0.1286 -0.1234
   91MOL   H13023710   2.837   7.450   0.817 -0.8598  0.3706 -0.6125
   91MOL   H13123711   2.855   7.322   0.685  0.1348  1.3945 -0.3190
   91MOL   C13223712   2.664   7.364   0.768  0.0908 -0.6584  0.4704
   91MOL   N13323713   2.595   7.233   0.734 -0.1262 -0.2536  0.1739
   91MOL   C13423714   2.627   7.157   0.629 -0.4978  0.5418 -0.0032
   91MOL   O13523715   2.740   7.155   0.580  0.6015 -0.3024  0.5117
   91MOL   C13623716   2.525   7.063   0.567  0.2877 -0.1932  0.6357
   91MOL   C13723717   2.630   7.478   0.671 -0.0940 -0.2213  0.1022
   91MOL   H13823718   2.625   7.394   0.865 -0.1063  0.6301  0.0035
   91MOL   H13923719   2.499   7.225   0.764  0.2505 -0.8011  1.2731
   91MOL   H14023720   2.433   7.049   0.624 -1.1576  1.7592 -1.1204
   91MOL   H14123721   2.487   7.110   0.476  0.9383  1.3689  1.1483
   91MOL   H14223722   2.566   6.963   0.557  0.0850 -0.2359  0.2206
   91MOL   H14323723   2.667   7.571   0.716 -0.2056  0.1466 -0.5633
   91MOL   H14423724   2.685   7.466   0.578 -1.0496 -0.3001 -0.4615
   91MOL   C14523725   2.484   7.500   0.639 -0.6589 -0.6639  0.0039
   91MOL   N14623726   2.455   7.583   0.523  0.1499  0.0763 -0.0817
   91MOL   C14723727   2.455   7.713   0.509 -0.0082  0.3765 -0.2658
   91MOL   O14823728   2.496   7.784   0.597 -0.1518  0.0505 -0.0177
   91MOL   C14923729   2.401   7.759   0.370 -0.2329  0.3761 -0.0841
   91MOL   C15023730   2.408   7.555   0.761  0.8621  0.1334 -0.2223
   91MOL   H15123731   2.448   7.401   0.612  0.6745 -0.8433 -1.1390
   91MOL   H15223732   2.449   7.523   0.442 -0.1952 -3.0973  2.1694
   91MOL   H15323733   2.301   7.724   0.343  0.2042 -1.7336  0.9141
   91MOL   H15423734   2.395   0.028   0.372 -0.0054  0.4153 -1.0140
   91MOL   H15523735   2.473   7.731   0.293 -0.2138  0.0380  0.0534
   91MOL   H15623736   2.470   7.623   0.820  2.2883  0.7091 -2.3273
   91MOL   H15723737   2.333   7.626   0.727 -0.4553 -1.7389 -1.2972
   91MOL   C15823738   2.334   7.450   0.851  0.4520 -0.0362  0.3665
   91MOL   N15923739   2.244   7.367   0.770 -0.1226 -0.4063  0.3385
   91MOL   C16023740   2.228   7.235   0.763  0.1917 -0.5878 -0.3853
   91MOL   O16123741   2.304   7.165   0.825 -0.1150 -0.3554  0.2874
   91MOL   C16223742   2.107   7.185   0.692  0.1114  0.6244  0.0529
   91MOL   C16323743   2.242   7.513   0.955  0.3837  0.2265 -0.1286
   91MOL   H16423744   2.411   7.383   0.890  0.9018 -0.1085 -0.6236
   91MOL   H16523745   2.194   7.425   0.705  1.3561  0.4607 -0.0577
   91MOL   H16623746   2.009   7.192   0.739  0.9617  2.6869  1.6341
   91MOL   H16723747   2.106   7.245   0.601  1.0764  0.3739 -0.1343
   91MOL   H16823748   2.123   7.086   0.649 -1.5041  1.2419 -2.0155
   91MOL   H16923749   2.182   7.580   0.893  1.5081  1.6383  0.2842
   91MOL   H17023750   2.176   7.435   0.994 -0.4427 -0.0791 -2.0737
   91MOL   C17123751   2.311   7.586   1.069 -0.3635 -0.5399  0.0144
   91MOL   N17223752   2.367   7.481   1.156  0.3479 -0.0819 -0.1502
   91MOL   C17323753   2.492   7.434   1.149  0.2453 -0.2670 -0.5185
   91MOL   O17423754   2.580   7.494   1.085 -0.4241 -0.1331  0.8782
   91MOL   C17523755   2.520   7.303   1.226  0.0226 -0.3414 -0.0916
   91MOL   C17623756   2.224   7.677   1.166 -0.0016  0.4708  0.4645
   91MOL   H17723757   2.390   7.649   1.027 -2.4492  1.5498 -0.9283
   91MOL   H17823758   2.303   7.427   1.212 -0.8599  1.5658  0.0920
   91MOL   H17923759   2.559   7.225   1.161 -1.7860 -0.6382 -0.8424
   91MOL   H18023760   2.585   7.322   1.312 -0.6007  0.7610  0.1528
   91MOL   H18123761   2.421   7.280   1.266 -0.3344 -0.2559 -0.9216
   91MOL   H18223762   2.132   7.625   1.191 -0.9593  1.7369 -0.3802
   91MOL   H18323763   2.287   7.709   1.249 -0.4756 -0.1962  1.0969
   91MOL   C18423764   2.183   7.804   1.087  0.3545 -0.5866 -0.9046
   91MOL   N18523765   2.303   0.048   1.071  0.4696  0.1594  0.1733
   91MOL   C18623766   2.346   0.118   0.963  0.8216  0.2278  0.3876
   91MOL   O18723767   2.439   0.192   0.972  0.8466 -0.3106 -0.5072
   91MOL   C18823768   2.280   0.099   0.827  0.5873 -0.0529 -0.3230
   91MOL   C18923769   2.066   0.052   1.145  0.4041 -0.0695 -0.7072
   91MOL   H19023770   2.142   7.765   0.994 -1.1428  0.4558 -0.7177
   91MOL   H19123771   2.345   0.095   1.150  0.3011 -0.3075  0.5420
   91MOL   H19223772   2.352   0.138   0.756  0.0862  2.2930  0.4127
   91MOL   H19323773   2.256   7.836   0.799 -2.1827  0.5571 -0.3124
   91MOL   H19423774   2.193   0.165   0.831 -0.5441 -1.3708 -2.2214
   91MOL   H19523775   2.091   0.107   1.236  1.7443  0.8510 -1.6136
   91MOL   H19623776   2.054   0.141   1.082  0.5074 -1.2791 -2.4688
   91MOL   C19723777   1.923   7.822   1.162  0.2833  0.1252 -0.0263
   91MOL   N19823778   1.901   7.749   1.037 -0.0426  0.7374  0.0575
   91MOL   C19923779   1.877   7.618   1.026 -0.4539  0.4601  0.1317
   91MOL   O20023780   1.876   7.547   1.118 -0.1207  0.0577  0.0516
   91MOL   C20123781   1.860   7.564   0.882 -0.7303 -0.0451 -0.2942
   91MOL   C20223782   1.814   0.082   1.197 -0.1715  0.6824  0.0856
   91MOL   H20323783   1.935   7.756   1.248 -0.9328  1.1305  0.9340
   91MOL   H20423784   1.899   7.797   0.948 -2.2726  2.5727  1.0302
   91MOL   H20523785   1.819   7.463   0.884 -1.2805  0.1983  1.4324
   91MOL   H20623786   1.799   7.628   0.819 -1.6367  0.6026  1.2070
   91MOL   H20723787   1.962   7.566   0.842 -0.2962 -0.3461  0.7749
   91MOL   H20823788   1.737   0.021   1.245  0.2334 -1.1713 -1.5558
   91MOL   H20923789   1.845   0.151   1.276 -0.2424 -0.5679  1.2434
   91MOL   C21023790   1.740   0.150   1.085  0.0258  0.2836 -0.9208
   91MOL   N21123791   1.822   0.254   1.026 -0.1627 -0.8240  0.6686
   91MOL   C21223792   1.866   0.259   0.903  0.2914 -0.2602 -0.0666
   91MOL   O21323793   1.845   0.177   0.815  0.2562  0.4403 -0.4452
   91MOL   C21423794   1.946   0.381   0.864  0.2340 -0.1124 -0.2508
   91MOL   C21523795   1.612   0.230   1.125  0.2238 -0.1229  0.1988
   91MOL   H21623796   1.713   0.085   1.002 -0.7009 -1.2939  0.5199
   91MOL   H21723797   1.822   0.345   1.071  0.5341  0.9432 -2.7584
   91MOL   H21823798   1.879   0.466   0.852 -1.7836 -1.6792 -0.3793
   91MOL   H21923799   2.018   0.403   0.942  0.8334 -1.8819 -0.2749
   91MOL   H22023800   1.990   0.364   0.765 -1.2201 -1.3043 -0.7241
   91MOL   H22123801   1.575   0.277   1.034  0.1445  0.7574  0.6770
   91MOL   H22223802   1.546   0.145   1.147 -1.2366  0.9444  0.0036
   91MOL   C22323803   1.620   0.332   1.242  0.0645  0.5018 -0.2025
   91MOL   N22423804   1.616   0.268   1.376  0.2232 -0.7406  0.5501
   91MOL   C22523805   1.673   0.319   1.492 -0.4777  0.3877 -0.2525
   91MOL   O22623806   1.760   0.404   1.494 -0.4941  0.7345 -0.3541
   91MOL   C22723807   1.607   0.261   1.618  0.1504  0.3317  0.7242
   91MOL   C22823808   1.523   0.450   1.231 -0.0444 -0.4308 -0.0725
   91MOL   H22923809   1.722   0.370   1.243  0.4158 -0.3693 -1.2189
   91MOL   H23023810   1.535   0.209   1.393 -0.2191 -0.2727  0.0982
   91MOL   H23123811   1.638   0.314   1.709 -1.3114 -0.7390  1.8621
   91MOL   H23223812   1.498   0.260   1.622  0.1613  2.8806  3.8082
   91MOL   H23323813   1.653   0.163   1.631  1.8298  0.9409 -0.4408
   91MOL   H23423814   1.422   0.413   1.213 -0.5448  2.2988 -3.2863
   91MOL   H23523815   1.521   0.513   1.320 -2.6790 -1.3060  0.5328
   91MOL   C23623816   1.545   0.545   1.104 -0.2483 -0.0964 -0.6215
   91MOL   N23723817   1.640   0.646   1.146  0.0324  0.1214  0.2843
   91MOL   C23823818   1.777   0.646   1.128 -0.2130  0.1659 -0.1937
   91MOL   O23923819   1.830   0.545   1.078  0.2072  0.4551 -0.0507
   91MOL   C24023820   1.860   0.768   1.160  0.0326 -0.7116 -0.2591
   91MOL   C24123821   1.413   0.608   1.050 -0.1173  0.2901 -0.1769
   91MOL   H24223822   1.595   0.492   1.023 -2.0144  0.3313 -2.0225
   91MOL   H24323823   1.596   0.723   1.196 -1.5780  1.0989 -2.5261
   91MOL   H24423824   1.895   0.819   1.071 -2.9747 -0.1795 -1.1901
   91MOL   H24523825   1.796   0.840   1.212 -0.1718 -1.7256  0.9427
   91MOL   H24623826   1.942   0.744   1.228  1.5169 -0.3025 -1.8986
   91MOL   H24723827   1.342   0.529   1.027  2.1852 -1.7509 -0.3949
   91MOL   H24823828   1.362   0.664   1.128  0.6591 -0.9234  1.2219
   91MOL   C24923829   1.425   0.715   0.939 -0.4036 -0.7868 -0.1494
   91MOL   N25023830   1.290   0.743   0.894  0.1700  0.1626 -0.5259
   91MOL   C25123831   1.206   0.834   0.948  0.6293 -0.1370 -0.1353
   91MOL   O25223832   1.251   0.914   1.026 -0.0599 -0.0969 -0.2704
   91MOL   C25323833   1.056   0.818   0.922  0.2770 -0.0006  0.1628
   91MOL   C25423834   1.516   0.678   0.820  0.3944 -0.4016 -0.3541
   91MOL   H25523835   1.475   0.792   0.998 -3.5587  0.3425  1.2051
   91MOL   H25623836   1.248   0.674   0.834 -0.1263  2.4873 -3.0715
   91MOL   H25723837   1.017   0.900   0.863  2.5769  1.3224  0.4160
   91MOL   H25823838   1.047   0.724   0.868  1.5083 -0.4615  0.7368
   91MOL   H25923839   1.003   0.823   1.018  0.4382  0.3006  0.2368
   91MOL   H26023840   1.621   0.689   0.849  0.4124  1.0554 -0.9182
   91MOL   H26123841   1.504   0.575   0.788  2.2768 -0.5948 -0.5205
   91MOL   H26223842   1.492   0.749   0.741 -0.3282  1.1112  1.1790
   92MOL     C123843   3.284   3.623   7.497  0.2005  0.2062  0.1291
   92MOL     N223844   3.264   3.511   7.593  0.3815 -0.5456  0.0041
   92MOL     C323845   3.306   3.508   7.720  0.6204 -0.4988  0.0287
   92MOL     O423846   3.352   3.608   7.775  0.4772  0.0149  0.6212
   92MOL     C523847   3.289   3.396   7.811  0.3231  0.1585  0.1124
   92MOL     C623848   3.290   3.566   7.359 -0.7898 -0.6182  0.4853
   92MOL     H723849   3.201   3.693   7.499 -0.7485 -0.8657 -0.8859
   92MOL     H823850   3.200   3.435   7.577 -0.0567 -0.2522  0.3354
   92MOL     H923851   3.182   3.381   7.827  0.4365 -0.4884  0.2950
   92MOL    H1023852   3.354   3.312   7.785 -0.9212 -0.5947 -0.6127
   92MOL    H1123853   3.325   3.425   0.070 -0.1532 -2.1503  0.9900
   92MOL    H1223854   3.334   3.467   7.371 -1.4629 -0.7072  2.3221
   92MOL    H1323855   3.187   3.553   7.326 -0.6072 -1.7561  0.3301
   92MOL    H1423856   3.377   3.673   7.523  0.4352 -0.9517  1.5831
   92MOL    C1523857   3.363   3.656   7.261 -0.3285 -0.3399 -0.0182
   92MOL    N1623858   3.330   3.799   7.287  0.2547 -0.4333  0.3321
   92MOL    C1723859   3.210   3.858   7.285 -0.6597 -0.1478  0.1885
   92MOL    O1823860   3.113   3.809   7.242 -0.0842  0.1538 -0.3499
   92MOL    C1923861   3.213   4.000   7.346 -0.0514  0.6279  0.8599
   92MOL    C2023862   3.344   3.631   7.107 -0.2959  0.5292 -0.4184
   92MOL    H2123863   3.468   3.647   7.287  0.5128  1.6184 -2.5231
   92MOL    H2223864   3.410   3.856   7.313 -0.3348  0.0552  1.0820
   92MOL    H2323865   3.195   4.068   7.263  1.1371 -1.4053 -1.1252
   92MOL    H2423866   3.128   4.007   7.414 -2.0644 -1.0788 -1.3675
   92MOL    H2523867   3.306   4.022   7.397 -0.1988  1.5186  0.7548
   92MOL    H2623868   3.240   3.608   7.080 -0.7115  0.0844  1.5253
   92MOL    H2723869   3.367   3.721   7.051 -0.6802 -0.0623 -1.5528
   92MOL    C2823870   3.428   3.521   7.040  0.4089 -0.0787 -0.0398
   92MOL    N2923871   3.379   3.387   7.056 -0.4976  0.6507  0.1694
   92MOL    C3023872   3.273   3.336   6.995  0.1908  0.1364 -0.9251
   92MOL    O3123873   3.195   3.401   6.926 -0.0385  0.0611  0.2528
   92MOL    C3223874   3.234   3.187   7.032  0.0549 -0.3329 -0.0086
   92MOL    C3323875   3.574   3.537   7.083 -0.1643  0.6771  0.8032
   92MOL    H3423876   3.429   3.536   6.932  1.4968 -0.7525 -0.1329
   92MOL    H3523877   3.426   3.324   7.121 -1.9690  0.1858  0.7967
   92MOL    H3623878   3.126   3.182   7.039 -0.1084  0.1244 -2.0667
   92MOL    H3723879   3.267   3.110   6.962  0.7148 -0.8849  0.8860
   92MOL    H3823880   3.274   3.152   7.127  1.0637  1.1182  0.1259
   92MOL    H3923881   3.586   3.523   7.190 -0.8424  0.3850  0.8475
   92MOL    H4023882   3.636   3.457   7.043  1.5831  1.7420  1.3294
   92MOL    C4123883   3.639   3.677   7.048 -0.2598 -0.0194  0.4194
   92MOL    N4223884   3.651   3.714   6.905 -0.1451 -0.5054 -0.2921
   92MOL    C4323885   3.604   3.818   6.836  0.6631 -0.2381 -0.0769
   92MOL    O4423886   3.548   3.917   6.890  0.0520  0.2275 -0.2652
   92MOL    C4523887   3.622   3.825   6.684 -0.1160  0.5788  0.6427
   92MOL    C4623888   3.786   3.669   7.095 -0.2308  0.1647  0.9731
   92MOL    H4723889   3.584   3.757   7.096 -0.4200  1.2537 -1.8150
   92MOL    H4823890   3.699   3.644   6.851 -0.1592 -0.1249 -0.8045
   92MOL    H4923891   3.664   3.735   6.639  0.9733  0.7123  1.3814
   92MOL    H5023892   3.525   3.828   6.633  0.9952 -0.9653 -1.6542
   92MOL    H5123893   3.691   3.903   6.652 -0.2084 -0.3285 -1.9240
   92MOL    H5223894   3.822   3.567   7.097  1.4450  0.5478 -3.4917
   92MOL    H5323895   3.854   3.725   7.031 -2.1527 -1.6975 -2.8853
   92MOL    C5423896   3.794   3.722   7.242 -0.0499 -0.3557 -0.0830
   92MOL    N5523897   3.799   3.861   7.239 -0.4430  0.2709  0.0572
   92MOL    C5623898   3.710   3.941   7.296  0.4589  0.0633 -0.3828
   92MOL    O5723899   3.632   3.900   7.381 -0.0202 -0.0765 -0.0961
   92MOL    C5823900   3.719   4.085   7.262 -0.2481  0.3796  0.3002
   92MOL    C5923901   3.916   3.654   7.319  0.3475  0.1183  0.2095
   92MOL    H6023902   3.696   3.692   7.278 -1.4196  2.5557 -1.2160
   92MOL    H6123903   3.880   3.906   7.198  0.0965 -0.2433  0.5473
   92MOL    H6223904   3.686   4.119   7.163 -1.6357  0.6281  0.8287
   92MOL    H6323905   3.657   4.131   7.339 -2.1844 -0.9626 -0.4199
   92MOL    H6423906   3.816   4.128   7.287  0.0816  0.2330 -0.6965
   92MOL    H6523907   3.891   3.674   7.423 -1.0746 -1.8647  0.2776
   92MOL    H6623908   3.906   3.546   7.307  0.6732  0.1288 -0.1438
   92MOL    C6723909   4.065   3.710   7.295 -0.6207  0.2949 -0.0357
   92MOL    N6823910   4.101   3.734   7.155 -0.2174  0.1553 -0.1275
   92MOL    C6923911   4.103   3.644   7.062  0.0161 -0.4339  0.3052
   92MOL    O7023912   4.088   3.521   7.090 -0.1446  0.1117  0.2959
   92MOL    C7123913   4.146   3.686   6.929  0.9723  0.7006  0.1754
   92MOL    C7223914   4.165   3.624   7.378  0.4367 -0.5275  0.2743
   92MOL    H7323915   4.083   3.809   7.338  0.1135  0.9512 -1.8090
   92MOL    H7423916   4.134   3.826   7.131 -1.6360  0.9518  0.9140
   92MOL    H7523917   4.143   3.604   6.857  0.8617  0.5405  0.3651
   92MOL    H7623918   4.073   3.756   6.890 -0.7565 -1.0850  0.1659
   92MOL    H7723919   4.242   3.739   6.922  1.6505 -0.8252 -3.1835
   92MOL    H7823920   4.153   3.524   7.337  1.4120 -0.2934 -0.5813
   92MOL    H7923921   4.263   3.664   7.352  0.0629 -0.8550 -1.7221
   92MOL    C8023922   4.127   3.614   7.528 -0.0064  0.4002  0.0026
   92MOL    N8123923   4.070   3.728   7.595  0.1377  0.2812  0.4680
   92MOL    C8223924   4.121   3.846   7.641  0.5124 -0.2847  0.5731
   92MOL    O8323925   4.243   3.867   7.640  0.0172  0.3707 -0.2176
   92MOL    C8423926   4.015   3.942   7.707 -0.0554  0.3565 -0.4077
   92MOL    C8523927   4.238   3.551   7.610 -0.7829 -0.1041  0.2595
   92MOL    H8623928   4.040   3.550   7.532 -0.4921  0.7981 -2.7824
   92MOL    H8723929   3.977   3.710   7.631  0.8914 -1.7342  1.5313
   92MOL    H8823930   3.911   3.921   7.682  0.7712 -2.7167 -1.4824
   92MOL    H8923931   4.026   3.943   7.815  0.4382  1.6088 -0.4717
   92MOL    H9023932   4.036   4.045   7.678  1.8343  0.1684  0.2276
   92MOL    H9123933   4.329   3.611   7.607  0.2262 -1.6347  0.2149
   92MOL    H9223934   4.205   3.557   7.714  0.1975  0.0178  0.5685
   92MOL    C9323935   4.278   3.404   7.584  0.1160 -0.3531  0.8751
   92MOL    N9423936   4.179   3.306   7.632  0.1347  0.0200  0.4573
   92MOL    C9523937   4.085   3.239   7.553 -0.1552  0.0608 -0.0212
   92MOL    O9623938   4.056   3.278   7.440  0.1423 -0.1422 -0.4638
   92MOL    C9723939   4.009   3.129   7.618  0.4350  0.0226 -0.4331
   92MOL    C9823940   4.421   3.367   7.636 -0.3982  0.8547  0.4332
   92MOL    H9923941   4.279   3.398   7.476  1.2786 -0.0095  0.8625
   92MOL   H10023942   4.202   3.265   7.721  0.1105 -1.0851 -0.0353
   92MOL   H10123943   3.974   3.057   7.544 -1.8894 -0.8978  1.4965
   92MOL   H10223944   4.072   3.082   7.694 -0.2789 -0.0736  0.1076
   92MOL   H10323945   3.920   3.176   7.660  1.1653  2.0422 -1.0602
   92MOL   H10423946   4.494   3.432   7.589 -1.2232  2.3997  1.2667
   92MOL   H10523947   4.425   3.406   7.737 -1.0953 -0.9515  1.1919
   92MOL   C10623948   4.455   3.217   7.646 -0.1886  0.0490  0.0070
   92MOL   N10723949   4.479   3.174   7.783  0.3591 -0.4479  0.5243
   92MOL   C10823950   4.395   3.131   0.038  0.4077 -0.6208 -0.3557
   92MOL   O10923951   4.272   3.125   0.016  0.4501 -0.3084  0.0794
   92MOL   C11023952   4.457   3.089   0.173  0.0701  0.2946  0.3749
   92MOL   C11123953   4.574   3.186   7.556 -0.1236  0.2178  0.3688
   92MOL   H11223954   4.380   3.150   7.604 -1.8687  1.9935 -0.2127
   92MOL   H11323955   4.573   3.149   7.810  0.7750  0.3849 -0.1261
   92MOL   H11423956   4.393   3.009   0.210  0.1127 -0.1227 -0.4548
   92MOL   H11523957   4.559   3.051   0.164 -0.1276 -0.1823  0.1449
   92MOL   H11623958   4.460   3.166   0.251  0.9206 -1.2644  1.9189
   92MOL   H11723959   4.534   3.201   7.456  2.6932 -3.7062 -1.5062
   92MOL   H11823960   4.652   3.261   7.568  0.8775 -0.1156 -3.3399
   92MOL   C11923961   4.649   3.045   7.571  0.1341  0.0524 -0.5713
   92MOL   N12023962   4.559   2.938   7.549  0.2097 -0.3213 -1.0876
   92MOL   C12123963   4.526   2.882   7.430 -0.2139 -0.0493 -0.6958
   92MOL   O12223964   4.576   2.914   7.318  0.5081 -0.5727 -0.0415
   92MOL   C12323965   4.431   2.755   7.444  0.7362  0.0452  0.3586
   92MOL   C12423966   4.731   3.021   7.694 -0.4733 -0.3064 -0.6838
   92MOL   H12523967   4.722   3.049   7.491 -0.6997 -0.2503 -1.3601
   92MOL   H12623968   4.534   2.891   7.635 -1.1445  0.2129 -1.1804
   92MOL   H12723969   4.487   2.673   7.490 -1.4900 -2.1070 -0.6979
   92MOL   H12823970   4.343   2.785   7.501  1.3153  0.6279  0.9637
   92MOL   H12923971   4.418   2.714   7.344  1.9101  0.6055 -0.0372
   92MOL   H13023972   4.662   3.013   7.778 -2.4191 -0.0643 -2.2221
   92MOL   H13123973   4.777   2.924   7.677 -1.0084 -0.3589 -1.8351
   92MOL   C13223974   4.830   3.138   7.723 -0.2231 -0.8020  0.4390
   92MOL   N13323975   4.922   3.173   7.618 -0.2314 -0.5517  0.5208
   92MOL   C13423976   4.998   3.093   7.540  0.0185  0.3639 -0.2822
   92MOL   O13523977   4.988   2.969   7.533 -0.2267 -0.4815  0.7863
   92MOL   C13623978   5.111   3.167   7.468  0.0335  0.3503  0.0896
   92MOL   C13723979   4.896   3.119   0.022  0.3137  0.7352 -0.1109
   92MOL   H13823980   4.762   3.223   7.730 -0.1234 -0.5706 -1.2161
   92MOL   H13923981   4.948   3.270   7.606  1.1839 -0.8360  1.1897
   92MOL   H14023982   5.199   3.105   7.452 -0.6633 -0.4891 -0.5245
   92MOL   H14123983   5.078   3.213   7.375  0.4789 -1.6292 -1.0697
   92MOL   H14223984   5.162   3.248   7.519 -0.8402  0.3013  1.0575
   92MOL   H14323985   4.832   3.076   0.100 -0.9950  0.0505 -1.5466
   92MOL   H14423986   4.974   3.043   0.014 -0.1156  0.1245  1.3199
   92MOL   C14523987   4.962   3.249   0.085 -0.0195  0.2784  0.0286
   92MOL   N14623988   4.871   3.361   0.061 -0.3986  0.2480  0.2282
   92MOL   C14723989   4.748   3.390   0.104  0.1198  1.2925  0.0300
   92MOL   O14823990   4.684   3.317   0.177 -0.2184  0.8045 -0.5246
   92MOL   C14923991   4.683   3.514   0.049 -0.4971  0.1791 -0.8758
   92MOL   C15023992   5.100   3.277   0.039 -0.6389 -0.5344 -0.2704
   92MOL   H15123993   4.963   3.233   0.193  0.5977  0.2025  0.0159
   92MOL   H15223994   4.910   3.432   0.000  1.8699  1.1224  2.6097
   92MOL   H15323995   4.633   3.561   0.134 -1.1504  1.4434 -1.9485
   92MOL   H15423996   4.751   3.587   0.005  1.0427 -1.3244 -1.0424
   92MOL   H15523997   4.604   3.496   7.816 -1.7472  1.8224  0.0483
   92MOL   H15623998   5.160   3.187   0.047  0.3694 -0.0986 -2.4033
   92MOL   H15723999   5.095   3.311   7.775  0.9486  1.9586  0.4013
   92MOL   C15824000   5.197   3.377   0.106  0.3901  0.2285 -0.2783
   92MOL   N15924001   5.318   3.389   0.018  0.4405  0.7532 -0.2299
   92MOL   C16024002   5.415   3.296   7.837 -1.0703  0.2057 -0.0239
   92MOL   O16124003   5.407   3.187   0.051  0.1983 -0.1221  0.3830
   92MOL   C16224004   5.533   3.334   7.743  0.2038 -0.1843 -1.0804
   92MOL   C16324005   5.248   3.334   0.245  0.4646 -0.6980 -0.5050
   92MOL   H16424006   5.146   3.473   0.109  0.8208  0.4352  0.8295
   92MOL   H16524007   5.340   3.474   7.809  0.2636  1.4179  0.8353
   92MOL   H16624008   5.547   3.442   7.731  0.5396 -0.1855 -0.6997
   92MOL   H16724009   5.627   3.293   7.780  0.8816  1.3619 -1.0183
   92MOL   H16824010   5.502   3.303   7.643  1.7757 -0.7010 -1.4134
   92MOL   H16924011   5.244   3.225   0.247 -0.7027 -0.6598  0.0941
   92MOL   H17024012   5.356   3.343   0.243  0.4026  0.1122 -4.2359
   92MOL   C17124013   5.164   3.396   0.364  0.0740 -0.3331  0.4165
   92MOL   N17224014   5.222   3.524   0.391  0.2922 -0.1205 -0.4441
   92MOL   C17324015   5.340   3.536   0.456  0.3533  0.1699  0.4256
   92MOL   O17424016   5.418   3.450   0.492  0.4790  0.3824  0.4974
   92MOL   C17524017   5.375   3.685   0.475 -0.4448 -0.5715  0.0660
   92MOL   C17624018   5.155   3.303   0.484 -0.1613  0.1003  0.1460
   92MOL   H17724019   5.060   3.401   0.330  0.6752 -2.0012 -1.7400
   92MOL   H17824020   5.167   3.606   0.369  0.2930  0.1430  0.5059
   92MOL   H17924021   5.451   3.702   0.551  0.0942 -1.6537 -0.2335
   92MOL   H18024022   5.417   3.718   0.380 -0.6966  2.1418  0.8561
   92MOL   H18124023   5.297   3.758   0.499  0.7451  0.4833  0.7457
   92MOL   H18224024   5.247   3.245   0.487 -0.1121  0.0050 -1.9638
   92MOL   H18324025   5.150   3.366   0.572  0.7277 -0.7629  0.8241
   92MOL   C18424026   5.039   3.199   0.489  0.0174 -0.1264  0.2471
   92MOL   N18524027   4.905   3.269   0.489 -0.5185  0.3641  0.3288
   92MOL   C18624028   4.785   3.206   0.476 -0.2417  0.7504 -0.1458
   92MOL   O18724029   4.767   3.092   0.431  0.3078  0.0220 -0.3144
   92MOL   C18824030   4.662   3.287   0.517 -0.1228  0.8917  0.3766
   92MOL   C18924031   5.050   3.091   0.607  0.5081  0.2029 -0.3034
   92MOL   H19024032   5.039   3.148   0.392 -1.7211 -2.3466  1.3699
   92MOL   H19124033   4.906   3.357   0.538  0.7670  0.1803  0.6657
   92MOL   H19224034   4.650   3.295   0.625 -0.1099  0.8795  0.3790
   92MOL   H19324035   4.673   3.382   0.465  0.1517  0.7454  0.1629
   92MOL   H19424036   4.570   3.239   0.486  1.4133 -1.2963 -1.0086
   92MOL   H19524037   5.061   3.137   0.705  0.1758  1.2614 -0.7524
   92MOL   H19624038   4.955   3.038   0.614 -1.2645  3.0637 -1.4772
   92MOL   C19724039   5.155   2.978   0.606 -0.5512 -0.5487  0.0835
   92MOL   N19824040   5.110   2.850   0.670 -0.7021  0.0493  0.1772
   92MOL   C19924041   5.049   2.833   0.788 -0.2160 -0.6339 -0.1193
   92MOL   O20024042   5.008   2.927   0.860 -0.4889 -0.0599  0.7462
   92MOL   C20124043   5.024   2.693   0.832  0.8312  0.7658 -0.6201
   92MOL   C20224044   5.288   3.025   0.671  0.3227 -0.2488  0.3764
   92MOL   H20324045   5.172   2.945   0.503  0.2490  0.8179 -0.2482
   92MOL   H20424046   5.126   2.767   0.615 -2.5468 -0.4229  0.3212
   92MOL   H20524047   4.919   2.711   0.856  0.9282  1.9594 -1.0241
   92MOL   H20624048   5.043   2.620   0.753  0.5190  0.5840 -0.5266
   92MOL   H20724049   5.078   2.669   0.923  0.8700  1.2114 -0.5235
   92MOL   H20824050   5.289   3.134   0.663  1.0172 -0.1718  1.4089
   92MOL   H20924051   5.289   2.991   0.774  2.5294 -0.2905  0.3615
   92MOL   C21024052   5.407   2.974   0.594 -0.4260 -0.2365 -0.0408
   92MOL   N21124053   5.419   2.825   0.599 -0.1268  0.0373 -0.0704
   92MOL   C21224054   5.434   2.735   0.503  0.1971 -0.3701 -0.2965
   92MOL   O21324055   5.429   2.757   0.382  0.3975 -0.1322 -0.3077
   92MOL   C21424056   5.434   2.595   0.553 -0.4192  0.3132  0.0314
   92MOL   C21524057   5.542   3.032   0.631 -0.9274 -0.4742 -0.3157
   92MOL   H21624058   5.396   2.999   0.488 -1.8569 -0.2749  0.0864
   92MOL   H21724059   5.428   2.789   0.693 -2.1417 -0.4112 -0.0221
   92MOL   H21824060   5.500   2.577   0.637  1.7835 -0.2547 -1.7809
   92MOL   H21924061   5.335   2.569   0.590 -0.3446 -1.6796 -1.1361
   92MOL   H22024062   5.470   2.532   0.472 -0.1706  1.3600 -0.6952
   92MOL   H22124063   5.522   3.138   0.649 -2.7062 -1.0138  0.9899
   92MOL   H22224064   5.574   3.018   0.734  1.9554  0.9688 -0.9741
   92MOL   C22324065   5.659   3.032   0.531 -0.3925 -0.5363 -0.1190
   92MOL   N22424066   5.764   3.112   0.586  0.1795  0.4436 -0.2308
   92MOL   C22524067   5.821   3.111   0.705 -0.7823  0.3511  0.6333
   92MOL   O22624068   5.808   3.012   0.780 -0.1729  0.2245  0.5950
   92MOL   C22724069   5.896   3.232   0.745 -1.0132  0.3475  0.0953
   92MOL   C22824070   5.623   3.077   0.387  0.1728 -0.1441 -0.0973
   92MOL   H22924071   5.690   2.928   0.522 -2.2722 -1.6007  4.0306
   92MOL   H23024072   5.790   3.195   0.534  1.0055 -0.3629 -1.1205
   92MOL   H23124073   5.906   3.215   0.852  0.4977 -0.1666 -0.1142
   92MOL   H23224074   5.996   3.243   0.702 -2.5670  1.1890 -3.5035
   92MOL   H23324075   5.823   3.311   0.727 -0.0955  1.2106  0.0717
   92MOL   H23424076   5.565   2.992   0.353 -1.2013  1.0149 -0.7241
   92MOL   H23524077   5.546   3.151   0.410 -0.8193 -0.8018 -1.2642
   92MOL   C23624078   5.732   3.134   0.290  0.1303 -1.0036  0.1535
   92MOL   N23724079   5.686   3.267   0.248  0.7165  0.7000  0.0087
   92MOL   C23824080   5.715   3.382   0.311 -1.1619 -0.5172 -0.0637
   92MOL   O23924081   5.801   3.397   0.402 -0.0920 -0.4345 -0.1144
   92MOL   C24024082   5.640   3.501   0.250  0.4156  0.2109  0.0445
   92MOL   C24124083   5.750   3.050   0.174  0.0845  0.2025 -0.4589
   92MOL   H24224084   5.827   3.148   0.342  0.8394 -1.9543 -0.8542
   92MOL   H24324085   5.615   3.265   0.176 -0.6708 -2.7866  1.3738
   92MOL   H24424086   5.533   3.489   0.268  0.0462 -1.1361 -2.7106
   92MOL   H24524087   5.679   3.594   0.290  2.4260  0.8431 -3.2224
   92MOL   H24624088   5.659   3.522   0.144  0.9426  0.1480  0.1298
   92MOL   H24724089   5.764   2.947   0.207  0.6579  0.1838 -0.7511
   92MOL   H24824090   5.655   3.052   0.121 -0.1781  1.9847  0.0270
   92MOL   C24924091   5.845   3.075   0.063 -0.0625  0.0705 -0.2003
   92MOL   N25024092   5.858   2.957   7.810  0.7471 -0.1368 -0.2025
   92MOL   C25124093   5.817   2.959   7.681  0.0987  0.1805 -0.6906
   92MOL   O25224094   5.782   3.068   7.628 -0.2945 -0.1084 -0.1090
   92MOL   C25324095   5.819   2.831   7.601 -0.4814  0.2199  0.9026
   92MOL   C25424096   5.984   3.105   0.106  0.2827  0.7567 -0.2982
   92MOL   H25524097   5.801   3.161   0.013 -2.4373 -1.5928 -1.0918
   92MOL   H25624098   5.893   2.871   0.008  0.7225 -0.9670 -2.0262
   92MOL   H25724099   5.912   2.800   7.555 -0.1975  1.4080  0.6715
   92MOL   H25824100   5.783   2.750   7.665  2.0409 -0.1931  1.8333
   92MOL   H25924101   5.743   2.844   7.524  0.7466  3.8256  0.2392
   92MOL   H26024102   6.000   3.043   0.195  1.6867  2.0931  0.4088
   92MOL   H26124103   6.062   3.057   0.046  1.2491 -1.9663  2.9527
   92MOL   H26224104   5.992   3.210   0.134 -0.6698  0.4065  1.3492
   93MOL     C124105   1.219   7.174   2.322 -0.9165 -0.2092 -0.3491
   93MOL     N224106   1.122   7.099   2.398  0.1659 -0.3496  0.0427
   93MOL     C324107   1.148   7.008   2.494 -0.0628 -0.5823  0.1635
   93MOL     O424108   1.264   6.992   2.532  0.2187 -0.3417 -0.9973
   93MOL     C524109   1.036   6.932   2.560  0.1543  0.1913  0.5241
   93MOL     C624110   1.154   7.234   2.200  0.0643 -0.3593  1.1552
   93MOL     H724111   1.249   7.259   2.383 -1.7401 -0.8634  0.9863
   93MOL     H824112   1.023   7.104   2.377  0.0049  1.6807  1.1015
   93MOL     H924113   0.936   6.970   2.538  0.0475 -1.0992 -1.4057
   93MOL    H1024114   1.039   6.828   2.525  0.3752  0.0576  0.9439
   93MOL    H1124115   1.058   6.929   2.667 -0.7463  0.5128  0.7243
   93MOL    H1224116   1.107   7.158   2.137 -1.0974  1.6827 -0.5049
   93MOL    H1324117   1.068   7.292   2.235 -1.4040 -1.4296 -0.5754
   93MOL    H1424118   1.309   7.117   2.300 -0.1972  1.0608 -0.7187
   93MOL    C1524119   1.262   7.312   2.115  0.0706  0.2409 -0.2711
   93MOL    N1624120   1.313   7.422   2.190 -0.4016  0.3341 -0.2885
   93MOL    C1724121   1.434   7.431   2.253  0.9821  0.7612 -0.0211
   93MOL    O1824122   1.502   7.332   2.271 -0.2501 -0.1242 -0.2644
   93MOL    C1924123   1.483   7.572   2.272  0.4806  0.3263 -0.0548
   93MOL    C2024124   1.219   7.350   1.977 -0.5618  0.1888 -0.6993
   93MOL    H2124125   1.344   7.242   2.106  0.5470  0.9375 -1.5411
   93MOL    H2224126   1.256   7.506   2.186 -0.0697  0.5384 -0.8248
   93MOL    H2324127   1.505   7.624   2.178  3.9703  1.0259  1.0587
   93MOL    H2424128   1.407   7.628   2.327 -2.2429 -1.6075 -1.7243
   93MOL    H2524129   1.580   7.573   2.322  0.6526  4.2024 -0.2651
   93MOL    H2624130   1.142   7.278   1.948 -1.3089  0.9418 -0.5990
   93MOL    H2724131   1.171   7.447   1.970 -1.1116 -0.1362 -1.4946
   93MOL    C2824132   1.335   7.352   1.870 -0.1070 -0.5577  0.2273
   93MOL    N2924133   1.421   7.469   1.866 -0.8062  0.0387 -0.0320
   93MOL    C3024134   1.553   7.475   1.878  0.0198  0.3694 -0.3611
   93MOL    O3124135   1.621   7.381   1.918 -0.1688 -0.3023 -0.6847
   93MOL    C3224136   1.620   7.604   1.835 -0.1369  0.0496  0.3243
   93MOL    C3324137   1.266   7.338   1.729  0.2366  0.1452  0.0076
   93MOL    H3424138   1.400   7.268   1.893  2.3136  1.3576  0.5172
   93MOL    H3524139   1.378   7.559   1.856  1.4785  1.5985  3.2233
   93MOL    H3624140   1.567   7.692   1.870  0.6173  1.1996 -1.3507
   93MOL    H3724141   1.724   7.622   1.861 -0.7226  1.4004  1.8270
   93MOL    H3824142   1.608   7.591   1.727 -1.2177 -1.2104  0.5808
   93MOL    H3924143   1.223   7.238   1.725 -0.7445  0.3370  3.5882
   93MOL    H4024144   1.178   7.401   1.734 -0.2511 -0.6004  1.2707
   93MOL    C4124145   1.356   7.360   1.604  0.2073  0.7334 -0.6918
   93MOL    N4224146   1.276   7.345   1.477  0.1928  0.2208 -0.0053
   93MOL    C4324147   1.196   7.443   1.435 -1.2877 -0.4030  0.3186
   93MOL    O4424148   1.159   7.540   1.498 -0.1838 -0.4572  0.4502
   93MOL    C4524149   1.130   7.419   1.299  0.4673  0.6260 -0.1268
   93MOL    C4624150   1.478   7.266   1.587  0.3613 -0.0579 -0.4803
   93MOL    H4724151   1.396   7.461   1.600 -0.0124  0.7988 -1.2851
   93MOL    H4824152   1.315   7.284   1.406 -2.0073 -0.6328 -0.5294
   93MOL    H4924153   1.207   7.365   1.243  0.1690  1.3456 -1.2521
   93MOL    H5024154   1.036   7.365   1.296  0.7081  0.1890  0.2265
   93MOL    H5124155   1.119   7.506   1.233 -2.0143  1.9342  1.9404
   93MOL    H5224156   1.501   7.224   1.685  1.3857  0.7402 -0.3752
   93MOL    H5324157   1.456   7.176   1.529  0.9436 -0.1993 -0.4853
   93MOL    C5424158   1.602   7.343   1.544 -0.4218  0.4724 -1.2312
   93MOL    N5524159   1.584   7.397   1.411  0.4297  0.0779 -0.5608
   93MOL    C5624160   1.622   7.521   1.365  0.6623 -0.5614 -0.3757
   93MOL    O5724161   1.704   7.593   1.423 -0.3116  0.0345  0.1841
   93MOL    C5824162   1.566   7.567   1.235 -0.5085 -0.1023 -0.7142
   93MOL    C5924163   1.731   7.263   1.546 -0.1345 -0.4265 -0.1893
   93MOL    H6024164   1.631   7.427   1.606 -1.7021 -1.1205  1.6245
   93MOL    H6124165   1.515   7.342   1.361  0.5786 -1.2641  0.6798
   93MOL    H6224166   1.458   7.555   1.244 -0.4196 -0.5727 -0.2484
   93MOL    H6324167   1.605   7.669   1.231  1.3679 -0.8131 -1.0728
   93MOL    H6424168   1.599   7.523   1.141 -0.0473 -0.7181 -0.2668
   93MOL    H6524169   1.821   7.324   1.545  2.2167 -3.7397 -1.8787
   93MOL    H6624170   1.728   7.221   1.647  1.9195  2.4928  1.1561
   93MOL    C6724171   1.735   7.151   1.438  0.0070 -0.5677 -0.0287
   93MOL    N6824172   1.796   7.032   1.498 -0.4767 -0.7921  0.2711
   93MOL    C6924173   1.818   6.919   1.432 -0.1949 -0.4058  0.2166
   93MOL    O7024174   1.778   6.896   1.319 -0.1702 -0.1530  0.0372
   93MOL    C7124175   1.882   6.812   1.516  0.1252 -0.8809  0.0752
   93MOL    C7224176   1.785   7.193   1.296 -0.3214 -0.1351  0.9522
   93MOL    H7324177   1.632   7.126   1.416 -0.8435  1.2985  1.6807
   93MOL    H7424178   1.794   7.034   1.599 -0.9645 -1.7623  0.2862
   93MOL    H7524179   1.806   6.786   1.589 -0.2591 -0.3801 -0.1481
   93MOL    H7624180   1.893   6.719   1.459 -0.4326 -1.3552  0.7419
   93MOL    H7724181   1.967   6.849   1.574 -2.0548  0.4875  2.4703
   93MOL    H7824182   1.751   7.113   1.230 -0.2243 -0.3856  1.2041
   93MOL    H7924183   1.729   7.278   1.259 -0.3608  0.9281  3.3620
   93MOL    C8024184   1.934   7.222   1.277  0.0933  1.0952 -0.1867
   93MOL    N8124185   1.964   7.341   1.338  0.5724  0.0654 -0.3262
   93MOL    C8224186   2.082   7.391   1.367  0.1112  0.6001 -1.0531
   93MOL    O8324187   2.188   7.340   1.341 -0.2885  0.2080 -0.3937
   93MOL    C8424188   2.075   7.513   1.452 -0.5055  1.0817  0.1036
   93MOL    C8524189   1.965   7.223   1.122 -0.4158 -0.2479  0.3327
   93MOL    H8624190   1.987   7.137   1.320 -2.5098  0.2784  1.4938
   93MOL    H8724191   1.884   7.392   1.375 -0.3742 -1.5285 -0.1258
   93MOL    H8824192   2.170   7.567   1.457  0.4265 -0.5797  0.7259
   93MOL    H8924193   1.994   7.577   1.417 -0.9339  0.3867 -0.1830
   93MOL    H9024194   2.061   7.485   1.557  4.4637  1.8917  1.1021
   93MOL    H9124195   1.871   7.249   1.074  0.0164 -2.1195 -1.6430
   93MOL    H9224196   2.039   7.299   1.098 -0.6866 -0.7126 -2.1875
   93MOL    C9324197   2.009   7.094   1.058  0.6079  0.1477  0.3835
   93MOL    N9424198   1.909   6.984   1.060  0.0784 -0.0707 -0.4555
   93MOL    C9524199   1.831   6.939   0.959 -0.5731  0.2820  0.5363
   93MOL    O9624200   1.847   6.987   0.845  0.0943 -0.0475  0.5455
   93MOL    C9724201   1.749   6.810   0.983 -0.0651  0.4640 -0.2993
   93MOL    C9824202   2.141   7.034   1.121 -0.2136  0.5200  0.2307
   93MOL    H9924203   2.023   7.109   0.951  0.0519  1.7758  0.5151
   93MOL   H10024204   1.909   6.926   1.143 -2.4147 -2.3401 -1.9592
   93MOL   H10124205   1.768   6.739   0.903 -1.0295  1.3658 -1.3576
   93MOL   H10224206   1.763   6.763   1.081 -0.9160 -0.9220 -0.8240
   93MOL   H10324207   1.642   6.830   0.978 -0.5951 -2.1590 -0.2718
   93MOL   H10424208   2.218   7.111   1.114  0.5048 -0.3896 -2.1063
   93MOL   H10524209   2.125   7.009   1.226  2.0826 -1.4664  0.1555
   93MOL   C10624210   2.198   6.910   1.047  0.2700  0.9184  0.8881
   93MOL   N10724211   2.127   6.783   1.076  0.5453  0.2722 -0.2501
   93MOL   C10824212   2.129   6.712   1.186  0.0257 -0.0496  0.6432
   93MOL   O10924213   2.173   6.758   1.292  0.5164 -0.5755 -0.3682
   93MOL   C11024214   2.052   6.579   1.202  0.3814 -0.1097 -0.0820
   93MOL   C11124215   2.349   6.903   1.063  0.7188  0.0978  0.0997
   93MOL   H11224216   2.180   6.926   0.941  0.9650 -4.6199 -0.2290
   93MOL   H11324217   2.077   6.737   1.002  1.9371 -2.8877  0.6816
   93MOL   H11424218   1.981   6.578   1.284  0.2217  0.7053 -0.2081
   93MOL   H11524219   1.989   6.544   1.120 -0.7192 -0.7734  1.0290
   93MOL   H11624220   2.131   6.506   1.219 -0.0931 -0.0366  2.6673
   93MOL   H11724221   2.401   6.997   1.045  0.4999 -0.3665 -3.2670
   93MOL   H11824222   2.370   6.890   1.170 -0.0575  0.8230  0.3481
   93MOL   C11924223   2.419   6.775   0.998 -0.0254  0.1349 -0.1866
   93MOL   N12024224   2.562   6.778   1.033  0.1880  0.7416 -0.4395
   93MOL   C12124225   2.634   6.673   1.069 -0.0689 -0.7677 -0.0277
   93MOL   O12224226   2.598   6.558   1.052  0.1013  0.0939 -0.2666
   93MOL   C12324227   2.776   6.696   1.131 -0.0208  0.1321  0.0752
   93MOL   C12424228   2.396   6.775   0.844 -0.1011  0.0360 -0.1787
   93MOL   H12524229   2.372   6.689   1.045 -2.2833  1.9886  1.0443
   93MOL   H12624230   2.606   6.869   1.037  1.8303 -0.0716  0.7709
   93MOL   H12724231   2.790   6.628   1.215  0.7218 -1.4809 -1.3237
   93MOL   H12824232   2.844   6.672   1.050 -0.9929 -1.0221 -0.4109
   93MOL   H12924233   2.782   6.800   1.165 -2.5165  0.4853 -0.4270
   93MOL   H13024234   2.289   6.783   0.823 -0.3783  0.5985  1.3494
   93MOL   H13124235   2.448   6.860   0.802 -0.6420 -0.2010 -1.3640
   93MOL   C13224236   2.449   6.653   0.767  0.5578  0.6707 -0.8105
   93MOL   N13324237   2.465   6.683   0.623 -0.1433 -0.0385 -0.3430
   93MOL   C13424238   2.548   6.618   0.538 -0.1104 -0.5674 -0.0963
   93MOL   O13524239   2.633   6.538   0.578 -0.5026  0.5299  0.2718
   93MOL   C13624240   2.522   6.636   0.384  0.6471 -0.7184 -0.3460
   93MOL   C13724241   2.364   6.525   0.789 -0.1759  0.8492  0.1143
   93MOL   H13824242   2.544   6.611   0.800 -0.9677 -2.0088  0.3126
   93MOL   H13924243   2.394   6.743   0.583  0.5183  0.5495 -0.6576
   93MOL   H14024244   2.511   6.740   0.353  0.3329 -0.5394  0.3431
   93MOL   H14124245   2.614   6.606   0.334  2.2210  1.0903  1.3405
   93MOL   H14224246   2.433   6.584   0.350  1.1738 -0.3381 -2.3649
   93MOL   H14324247   2.418   6.440   0.747  1.3227  1.0727  1.5202
   93MOL   H14424248   2.370   6.501   0.895 -2.2398 -1.2332 -0.2072
   93MOL   C14524249   2.214   6.519   0.744 -0.5820 -0.9030  0.3449
   93MOL   N14624250   2.129   6.435   0.827  0.0436  0.4770  0.0250
   93MOL   C14724251   2.003   6.457   0.866 -0.8330 -0.3826  0.7724
   93MOL   O14824252   1.952   6.568   0.857 -0.3863 -0.2678  0.6104
   93MOL   C14924253   1.927   6.338   0.926  0.0526  0.1288  0.4298
   93MOL   C15024254   2.194   6.486   0.589 -0.2436 -0.1623  0.0659
   93MOL   H15124255   2.186   6.625   0.745  1.1578 -0.4128 -0.3628
   93MOL   H15224256   2.165   6.343   0.848 -1.7760 -0.2169  0.2430
   93MOL   H15324257   1.926   6.344   1.034 -1.3365 -0.8075  0.4773
   93MOL   H15424258   1.820   6.343   0.906  0.0921  1.7632  0.5890
   93MOL   H15524259   1.962   6.238   0.897 -1.1064 -0.2363  0.2786
   93MOL   H15624260   2.289   6.506   0.540  0.0769  0.8231  1.0771
   93MOL   H15724261   2.183   6.378   0.593 -1.0573 -0.0832  0.1096
   93MOL   C15824262   2.082   6.549   0.515 -0.1581  0.0200  0.4579
   93MOL   N15924263   2.056   6.489   0.384 -0.5490 -0.8114  0.2712
   93MOL   C16024264   1.989   6.379   0.361  0.3032 -0.1789  0.5393
   93MOL   O16124265   1.955   6.302   0.449  0.0609  0.4656  0.2936
   93MOL   C16224266   1.959   6.345   0.214 -0.1241 -0.1485 -0.1183
   93MOL   C16324267   2.108   6.702   0.486  0.2927 -0.2218 -0.0236
   93MOL   H16424268   1.997   6.540   0.583  0.2285  0.3771  0.9926
   93MOL   H16524269   2.061   6.548   0.302  0.0326 -0.4102  0.5902
   93MOL   H16624270   1.854   6.318   0.208 -0.0319 -1.1862  2.5314
   93MOL   H16724271   1.962   6.434   0.150 -1.4645 -0.2407 -0.3095
   93MOL   H16824272   2.016   6.260   0.176 -1.7511 -1.3324  0.0436
   93MOL   H16924273   2.143   6.752   0.577 -0.6084 -1.5080  1.0468
   93MOL   H17024274   2.189   6.707   0.413 -0.4034  0.5805 -0.7388
   93MOL   C17124275   1.976   6.769   0.447  0.3228  0.2414 -0.6055
   93MOL   N17224276   1.989   6.859   0.326 -0.9212 -1.0435 -0.2801
   93MOL   C17324277   2.000   6.817   0.202 -0.3445  0.7356  0.1519
   93MOL   O17424278   2.003   6.698   0.172  0.0852  0.7557 -0.1221
   93MOL   C17524279   2.010   6.922   0.091 -0.3192  0.3197 -0.0637
   93MOL   C17624280   1.911   6.855   0.562 -0.1313  0.0257  0.0294
   93MOL   H17724281   1.902   6.698   0.410  1.4924 -1.0201 -0.5374
   93MOL   H17824282   1.974   6.957   0.343 -2.4457 -1.7918  3.3067
   93MOL   H17924283   1.993   7.023   0.130 -2.5997 -0.3432  0.7145
   93MOL   H18024284   2.111   6.918   0.050  0.5528 -0.6052  2.1051
   93MOL   H18124285   1.935   6.908   0.013  0.5405 -2.4083 -0.4509
   93MOL   H18224286   1.906   6.793   0.651 -0.3274 -0.3486 -0.2387
   93MOL   H18324287   1.976   6.935   0.597 -0.3366 -0.2670  1.0814
   93MOL   C18424288   1.772   6.918   0.529 -0.3230 -0.0916  0.1437
   93MOL   N18524289   1.769   7.055   0.577 -0.3135 -0.0122 -0.3642
   93MOL   C18624290   1.745   7.165   0.508  0.8682  0.2906 -0.1380
   93MOL   O18724291   1.734   7.168   0.383  0.5971  0.3880 -0.0814
   93MOL   C18824292   1.726   7.296   0.586  0.0750  0.1489  0.2503
   93MOL   C18924293   1.657   6.835   0.580  0.1601 -0.8319 -0.5235
   93MOL   H19024294   1.738   6.912   0.426 -1.2234 -1.5111  0.5102
   93MOL   H19124295   1.777   7.059   0.677 -0.6717  1.6356 -0.3827
   93MOL   H19224296   1.713   7.289   0.694 -1.0306  2.0196  0.2598
   93MOL   H19324297   1.794   7.379   0.570 -0.6402  1.1257  2.1979
   93MOL   H19424298   1.638   7.351   0.551 -0.1805 -0.7464 -0.5561
   93MOL   H19524299   1.654   6.741   0.525 -1.2926  0.8445 -3.4660
   93MOL   H19624300   1.685   6.803   0.680 -2.1735 -1.9756 -0.1805
   93MOL   C19724301   1.515   6.899   0.592 -0.1414  0.2057  0.4789
   93MOL   N19824302   1.431   6.805   0.660  0.4306  0.5126  0.2132
   93MOL   C19924303   1.402   6.816   0.791  0.5283 -0.0228  0.5867
   93MOL   O20024304   1.437   6.911   0.865  0.1020 -0.4232 -0.0621
   93MOL   C20124305   1.313   6.714   0.859 -0.4781 -0.2215  0.1920
   93MOL   C20224306   1.453   6.953   0.461 -0.1199  0.0787 -0.1685
   93MOL   H20324307   1.544   6.988   0.648  1.6540  0.3099 -0.5982
   93MOL   H20424308   1.380   6.740   0.601 -0.6210  0.3198  1.3175
   93MOL   H20524309   1.367   6.622   0.881  0.1482  0.1148  0.0866
   93MOL   H20624310   1.270   6.749   0.953  0.3756 -1.0225  0.8953
   93MOL   H20724311   1.235   6.687   0.788 -0.8620 -1.0621  0.9304
   93MOL   H20824312   1.523   7.015   0.406 -1.9759 -0.0894 -2.8121
   93MOL   H20924313   1.442   6.869   0.392  1.6220 -1.2721  1.1433
   93MOL   C21024314   1.320   7.030   0.471 -0.2312  0.3900 -0.7960
   93MOL   N21124315   1.196   6.960   0.432 -0.4919 -0.1162 -0.0894
   93MOL   C21224316   1.091   6.923   0.507  0.0927  0.2311 -0.3680
   93MOL   O21324317   0.996   6.867   0.464  0.0765  0.7877 -0.5181
   93MOL   C21424318   1.081   6.953   0.651  0.3284  0.2337 -0.0388
   93MOL   C21524319   1.331   7.159   0.388  1.1914  0.3529 -0.2338
   93MOL   H21624320   1.300   7.068   0.571  0.6454  0.9435 -0.8280
   93MOL   H21724321   1.193   6.925   0.337  0.0459  0.3231 -0.2654
   93MOL   H21824322   1.022   6.873   0.696  1.0705 -1.0794 -1.3656
   93MOL   H21924323   1.168   6.975   0.712  1.1162 -0.6867 -0.8133
   93MOL   H22024324   1.014   7.038   0.660 -0.3942 -0.2802 -0.4173
   93MOL   H22124325   1.429   7.197   0.416  0.6502  0.8499  1.0081
   93MOL   H22224326   1.337   7.145   0.280  0.9704  0.6494 -0.2855
   93MOL   C22324327   1.212   7.259   0.394  0.0174 -0.2094  0.5985
   93MOL   N22424328   1.158   7.292   0.531 -0.2949 -0.1333  0.0841
   93MOL   C22524329   1.227   7.342   0.636 -0.9792  0.2419  0.2427
   93MOL   O22624330   1.349   7.378   0.627  0.1847 -0.6849  0.4633
   93MOL   C22724331   1.155   7.337   0.773 -0.4809 -0.9197  0.2500
   93MOL   C22824332   1.090   7.219   0.305  0.3601 -0.2577 -0.4156
   93MOL   H22924333   1.249   7.353   0.352  1.1857  0.1651  2.4308
   93MOL   H23024334   1.061   7.271   0.551 -0.2412 -1.5799 -1.0858
   93MOL   H23124335   1.127   7.430   0.822 -0.7317 -0.8244 -0.0691
   93MOL   H23224336   1.060   7.285   0.761 -0.3373 -0.9905 -0.6909
   93MOL   H23324337   1.205   7.290   0.857  0.5916  0.6331  0.4970
   93MOL   H23424338   1.037   7.134   0.348 -1.0741  1.5773  1.5447
   93MOL   H23524339   1.023   7.305   0.316  0.4192 -0.4848  1.9261
   93MOL   C23624340   1.116   7.204   0.150 -0.0017  0.2945  0.3412
   93MOL   N23724341   1.144   7.327   0.090 -0.3747 -0.5669 -0.1670
   93MOL   C23824342   1.258   7.374   0.047 -0.0713 -0.8329  0.1932
   93MOL   O23924343   1.364   7.309   0.064  0.3841  0.3282 -0.6755
   93MOL   C24024344   1.255   7.499   7.809 -0.5448 -0.4872 -0.2145
   93MOL   C24124345   0.991   7.141   0.087  0.0396 -0.0692 -0.7486
   93MOL   H24224346   1.195   7.134   0.123 -3.8794 -4.4256  0.4504
   93MOL   H24324347   1.059   7.367   0.052 -0.5949 -0.3808  0.5225
   93MOL   H24424348   1.182   7.571   0.009 -1.2584  0.4392 -3.1116
   93MOL   H24524349   1.354   7.543   7.818 -0.8197  0.0426  0.2693
   93MOL   H24624350   1.233   7.481   7.704 -0.3588  0.0750 -0.3558
   93MOL   H24724351   0.966   7.048   0.138 -3.4871  0.6918 -1.0009
   93MOL   H24824352   0.911   7.206   0.123 -0.5837 -0.1847 -1.8981
   93MOL   C24924353   0.993   7.128   7.773 -0.2107  0.0286 -0.9010
   93MOL   N25024354   0.869   7.083   7.716 -0.1259  0.0073 -0.4027
   93MOL   C25124355   0.764   7.159   7.685 -0.7024 -0.1908 -0.1616
   93MOL   O25224356   0.751   7.275   7.725  0.7572  0.4142  0.2890
   93MOL   C25324357   0.651   7.094   7.612  0.4640 -0.1950 -0.1203
   93MOL   C25424358   1.103   7.041   7.717  0.6746 -0.0452  0.1361
   93MOL   H25524359   1.010   7.223   7.723 -0.6488 -0.2277 -1.5529
   93MOL   H25624360   0.851   6.984   7.707  0.4926 -0.1848  0.4016
   93MOL   H25724361   0.558   7.146   7.633  1.4758  1.4498  0.4265
   93MOL   H25824362   0.674   7.107   7.506 -1.0140 -0.6417 -0.4996
   93MOL   H25924363   0.630   6.993   7.647  0.5757 -0.2016 -0.0715
   93MOL   H26024364   1.103   7.030   7.608 -0.6111 -2.0609  0.3166
   93MOL   H26124365   1.195   7.098   7.732  1.1095 -1.3065  2.6148
   93MOL   H26224366   1.105   6.935   7.744  0.0885  0.2874  1.5131
   94MOL     C124367   4.508   5.188   0.729 -0.4000  0.6638 -0.4685
   94MOL     N224368   4.597   5.209   0.617  0.0691  0.5049 -0.0096
   94MOL     C324369   4.708   5.150   0.585  0.0176 -0.4966  0.1922
   94MOL     O424370   4.759   5.065   0.654  0.0868  0.1394 -0.1997
   94MOL     C524371   4.763   5.177   0.448 -0.1869 -0.3620  0.1808
   94MOL     C624372   4.571   5.197   0.871 -0.1757 -0.1604 -0.6090
   94MOL     H724373   4.420   5.252   0.720 -2.2097 -1.9955 -2.2116
   94MOL     H824374   4.556   5.251   0.534  0.4110 -0.9809 -0.9519
   94MOL     H924375   4.763   5.285   0.439  0.3557 -0.3205  0.6625
   94MOL    H1024376   4.862   5.134   0.431 -1.2817 -2.1823 -1.8960
   94MOL    H1124377   4.685   5.143   0.380  0.9126 -0.2058 -1.1799
   94MOL    H1224378   4.496   5.189   0.950 -0.4478  1.4161 -0.6908
   94MOL    H1324379   4.626   5.103   0.877  1.5283  0.8015 -0.7568
   94MOL    H1424380   4.464   5.089   0.721  1.6374 -0.3889  1.0899
   94MOL    C1524381   4.667   5.315   0.905 -0.2156 -0.6896 -0.2589
   94MOL    N1624382   4.744   5.302   1.031  0.4717 -0.1831  0.2838
   94MOL    C1724383   4.705   5.253   1.151 -0.8193  0.2931 -0.2614
   94MOL    O1824384   4.586   5.234   1.177  0.1762  0.3137  0.0328
   94MOL    C1924385   4.814   5.225   1.256  0.6269 -0.0904  0.2169
   94MOL    C2024386   4.594   5.451   0.899  0.1807 -0.1349 -0.4227
   94MOL    H2124387   4.741   5.310   0.825  0.2318  1.6120 -0.0159
   94MOL    H2224388   4.843   5.312   1.016  0.0293 -0.1805 -3.1306
   94MOL    H2324389   4.907   5.282   1.248  1.8477 -2.1768 -0.6946
   94MOL    H2424390   4.794   5.254   1.359  0.6506  1.9047 -0.3184
   94MOL    H2524391   4.833   5.118   1.251  3.0805  0.3707 -1.1474
   94MOL    H2624392   4.537   5.456   0.806  1.5798 -2.7431 -1.4897
   94MOL    H2724393   4.521   5.460   0.979 -0.0903  0.0416 -0.6855
   94MOL    C2824394   4.680   5.582   0.925 -0.7120  0.9397 -0.5533
   94MOL    N2924395   4.592   5.700   0.904  0.5378  0.0325  0.5668
   94MOL    C3024396   4.595   5.816   0.968 -0.0829 -0.0541 -0.1137
   94MOL    O3124397   4.672   5.837   1.065 -0.1398 -0.1876  0.4926
   94MOL    C3224398   4.508   5.926   0.928  0.3237 -0.2047 -0.2147
   94MOL    C3324399   4.810   5.603   0.840  0.1660  0.1369 -0.2864
   94MOL    H3424400   4.706   5.585   1.031  1.0731  1.5547 -0.9917
   94MOL    H3524401   4.533   5.689   0.822 -0.0032  0.6625  0.8691
   94MOL    H3624402   4.490   5.991   1.013  1.5685 -0.1320 -0.0066
   94MOL    H3724403   4.528   5.968   0.829 -0.4129 -1.0779 -0.7446
   94MOL    H3824404   4.407   5.886   0.913 -0.1369  0.9942 -0.3349
   94MOL    H3924405   4.859   5.698   0.864 -0.2948  0.2224  0.3248
   94MOL    H4024406   4.878   5.524   0.870  2.2961  2.4524  1.2334
   94MOL    C4124407   4.802   5.591   0.686 -0.0776  0.6160  0.3834
   94MOL    N4224408   4.934   5.589   0.624 -0.2010  0.3424  0.6303
   94MOL    C4324409   5.012   5.477   0.611 -0.7807 -0.5236  0.7512
   94MOL    O4424410   4.978   5.369   0.658  0.6398  0.0135 -0.3378
   94MOL    C4524411   5.147   5.497   0.539  0.6969 -0.8278  0.0393
   94MOL    C4624412   4.717   5.697   0.621  0.2317 -0.0159  0.2713
   94MOL    H4724413   4.756   5.495   0.662 -1.0676  1.2306 -0.1903
   94MOL    H4824414   4.981   5.677   0.604 -0.6054  0.5059  0.4034
   94MOL    H4924415   5.195   5.588   0.577 -4.1743  2.0732 -0.2886
   94MOL    H5024416   5.202   5.406   0.559  0.0739 -1.1994  0.0926
   94MOL    H5124417   5.130   5.513   0.433 -0.2392  0.0649  0.3081
   94MOL    H5224418   4.617   5.690   0.662 -0.0845  1.0645 -0.3077
   94MOL    H5324419   4.754   5.794   0.655 -1.7631  0.8603 -0.0357
   94MOL    C5424420   4.720   5.701   0.467 -0.6824  0.1482 -0.5581
   94MOL    N5524421   4.812   5.806   0.426  0.3216  0.1572 -0.4439
   94MOL    C5624422   4.865   5.818   0.300 -0.1365 -0.2563 -0.8304
   94MOL    O5724423   4.836   5.739   0.209 -0.9158  0.1868  0.5124
   94MOL    C5824424   4.953   5.939   0.262  0.4479  0.6820  0.1544
   94MOL    C5924425   4.587   5.738   0.413  0.0239  0.9699  0.3392
   94MOL    H6024426   4.749   5.606   0.420 -0.2512  0.7123 -1.4419
   94MOL    H6124427   4.828   5.877   0.496 -2.3073  0.6788 -0.3393
   94MOL    H6224428   5.037   5.953   0.330  1.8337 -3.7382 -0.5119
   94MOL    H6324429   4.984   5.931   0.158 -0.6415 -0.9727 -0.0566
   94MOL    H6424430   4.882   6.022   0.271  0.5695  0.9560 -1.2356
   94MOL    H6524431   4.534   5.809   0.477 -1.0148  0.4453  0.0741
   94MOL    H6624432   4.591   5.784   0.314 -0.2500 -0.9917 -0.6104
   94MOL    C6724433   4.499   5.616   0.402 -0.0168 -0.0524  0.0849
   94MOL    N6824434   4.551   5.547   0.290 -0.1176 -0.0638 -0.5226
   94MOL    C6924435   4.554   5.414   0.269 -0.3121 -0.3156  0.6879
   94MOL    O7024436   4.501   5.336   0.351  0.3213 -0.4746  0.5320
   94MOL    C7124437   4.640   5.366   0.152  0.4983  0.0382  0.0833
   94MOL    C7224438   4.346   5.647   0.373 -0.6669  0.2762 -0.6913
   94MOL    H7324439   4.498   5.554   0.491  2.0371  1.1357  0.9641
   94MOL    H7424440   4.609   5.597   0.225 -1.1241  1.0676 -0.5663
   94MOL    H7524441   4.740   5.406   0.169 -0.2502  1.7698  0.5287
   94MOL    H7624442   4.633   5.257   0.145  1.1510 -0.0305  0.4304
   94MOL    H7724443   4.607   5.413   0.059  1.5495 -0.1958 -0.4100
   94MOL    H7824444   4.350   5.705   0.280  2.7887  1.7873  0.3257
   94MOL    H7924445   4.297   5.553   0.347 -1.5161  0.5207 -0.0131
   94MOL    C8024446   4.274   5.711   0.491  0.3051 -0.7490 -0.1637
   94MOL    N8124447   4.225   5.615   0.585  0.2364 -0.0931 -0.3444
   94MOL    C8224448   4.288   5.587   0.700 -0.3872 -0.8845  0.2626
   94MOL    O8324449   4.387   5.653   0.735  0.1780  0.2828 -0.3994
   94MOL    C8424450   4.238   5.482   0.791  0.7015  0.5233 -0.8014
   94MOL    C8524451   4.159   5.800   0.446 -0.6345 -0.0086  0.1517
   94MOL    H8624452   4.340   5.783   0.539  1.1116  0.2958 -2.7889
   94MOL    H8724453   4.138   5.573   0.557  1.7361 -1.7329 -2.6753
   94MOL    H8824454   4.158   5.418   0.753 -2.5664  2.3607  2.6060
   94MOL    H8924455   4.316   5.414   0.824 -0.4498 -0.8990 -0.9541
   94MOL    H9024456   4.199   5.525   0.883  1.9434 -4.3657  2.2078
   94MOL    H9124457   4.089   5.741   0.388  0.4423  0.0619 -1.2367
   94MOL    H9224458   4.096   5.824   0.532  1.8581 -0.2613  2.1250
   94MOL    C9324459   4.195   5.927   0.367 -0.2437  0.1020 -0.1405
   94MOL    N9424460   4.310   5.993   0.429  0.4116 -0.1052 -0.3857
   94MOL    C9524461   4.422   6.035   0.368  0.9466  0.2851 -0.3002
   94MOL    O9624462   4.421   6.038   0.249  0.2144  0.0149  0.0409
   94MOL    C9724463   4.530   6.092   0.451 -0.0282 -0.0926 -0.0819
   94MOL    C9824464   4.077   6.026   0.355  0.1887 -0.5101  0.1606
   94MOL    H9924465   4.233   5.894   0.270 -0.2494 -2.7690  0.7955
   94MOL   H10024466   4.296   5.995   0.529  1.1308 -0.0881 -0.2806
   94MOL   H10124467   4.625   6.040   0.441  0.2997  0.0902  1.9734
   94MOL   H10224468   4.528   6.191   0.405 -0.0032 -1.2047 -2.5785
   94MOL   H10324469   4.501   6.085   0.556 -0.2689 -1.4181 -0.2195
   94MOL   H10424470   4.024   6.036   0.450 -0.0587 -1.9289  0.1786
   94MOL   H10524471   4.112   6.129   0.341 -3.5166  1.0520  1.6322
   94MOL   C10624472   3.961   5.997   0.256 -0.8916  0.4549 -0.0521
   94MOL   N10724473   4.009   5.982   0.117  0.1121 -0.3000 -0.5550
   94MOL   C10824474   4.028   5.868   0.057  0.3481 -0.1998 -1.4874
   94MOL   O10924475   4.012   5.756   0.115 -0.1337 -0.2300 -0.0257
   94MOL   C11024476   4.061   5.878   7.753 -0.2598  0.4890  0.7857
   94MOL   C11124477   3.857   6.114   0.253 -0.1169 -0.6601  0.2235
   94MOL   H11224478   3.914   5.902   0.280 -0.2674 -0.0168 -0.6869
   94MOL   H11324479   4.010   6.063   0.056  0.4352  0.9638  1.1156
   94MOL   H11424480   4.095   5.785   7.709  0.4915  1.4902 -0.8148
   94MOL   H11524481   3.987   5.923   7.687  0.3278 -0.5297 -0.5699
   94MOL   H11624482   4.148   5.942   7.736  1.0923 -1.5074  0.0427
   94MOL   H11724483   3.901   6.208   0.220 -1.4781  0.2011  0.8704
   94MOL   H11824484   3.793   6.083   0.171  1.5688 -1.7454 -0.7390
   94MOL   C11924485   3.778   6.142   0.388 -0.3649  0.1468  0.2350
   94MOL   N12024486   3.716   6.009   0.427 -0.7457  0.2617 -0.0520
   94MOL   C12124487   3.740   5.933   0.529  0.2339 -0.6940  0.7027
   94MOL   O12224488   3.803   5.962   0.632  0.4853 -0.0123 -0.3119
   94MOL   C12324489   3.690   5.788   0.505  0.4123  0.7323  0.3783
   94MOL   C12424490   3.672   6.252   0.367  0.3001  0.3571  0.0015
   94MOL   H12524491   3.851   6.169   0.465  0.4255 -0.5223 -0.2695
   94MOL   H12624492   3.664   5.972   0.349 -1.9557  3.2514 -0.7310
   94MOL   H12724493   3.729   5.738   0.416  0.7967  3.3769 -0.9777
   94MOL   H12824494   3.713   5.734   0.597 -2.4310  1.5060  1.6170
   94MOL   H12924495   3.581   5.792   0.497  0.2822 -1.6512  0.4324
   94MOL   H13024496   3.626   6.226   0.271  0.4274  0.4819 -0.0916
   94MOL   H13124497   3.593   6.241   0.441 -0.4314  0.5508 -0.7375
   94MOL   C13224498   3.738   6.395   0.362  0.4125 -0.5951  0.0938
   94MOL   N13324499   3.718   6.467   0.488  0.0604  0.1066 -0.2751
   94MOL   C13424500   3.801   6.555   0.550  0.5681 -0.0950 -0.0962
   94MOL   O13524501   3.910   6.591   0.507 -0.1822  0.1595 -0.7118
   94MOL   C13624502   3.752   6.619   0.681  0.5512 -0.4836  0.0307
   94MOL   C13724503   3.681   6.487   0.248 -0.2488  0.4056 -0.5454
   94MOL   H13824504   3.845   6.380   0.346  0.6810  1.3147 -0.0243
   94MOL   H13924505   3.635   6.440   0.539  0.1232  1.2439  0.4451
   94MOL   H14024506   3.807   6.568   0.760 -0.8433 -0.5155  0.9904
   94MOL   H14124507   3.786   6.722   0.691  1.0924 -0.6729  0.1576
   94MOL   H14224508   3.644   6.606   0.684  0.5321 -0.2469  0.3651
   94MOL   H14324509   3.578   6.520   0.256  0.6584  3.6063 -1.5291
   94MOL   H14424510   3.734   6.579   0.271 -0.1762  0.7230 -1.9897
   94MOL   C14524511   3.720   6.445   0.106 -0.2238 -0.0033  0.5690
   94MOL   N14624512   3.759   6.563   0.024  0.2998  0.3233 -0.0226
   94MOL   C14724513   3.879   6.614   0.009  0.2789 -0.6434  0.2871
   94MOL   O14824514   3.974   6.571   0.067 -0.3643  0.2271 -0.6429
   94MOL   C14924515   3.891   6.731   7.751  0.1750  0.8618  0.6066
   94MOL   C15024516   3.601   6.377   0.042  0.0441 -0.4754  0.0656
   94MOL   H15124517   3.807   6.383   0.129  1.5890  2.3975  0.2974
   94MOL   H15224518   3.694   6.608   7.801  0.6227  1.7974  0.6741
   94MOL   H15324519   3.990   6.722   7.707 -0.2671  1.0101 -0.4278
   94MOL   H15424520   3.809   6.728   7.679  0.6502 -1.4982  0.1296
   94MOL   H15524521   3.888   6.827   7.803 -1.3170  1.8037 -1.1459
   94MOL   H15624522   3.528   6.351   0.119 -1.8404  1.1506 -1.1152
   94MOL   H15724523   3.548   6.458   7.831  1.4366  0.3376 -0.1018
   94MOL   C15824524   3.616   6.254   7.797 -0.3462  0.7607 -0.6038
   94MOL   N15924525   3.703   6.284   7.686 -0.2708 -0.1669 -0.4068
   94MOL   C16024526   3.835   6.248   7.695  0.0397 -0.7108 -0.5347
   94MOL   O16124527   3.892   6.178   7.786  0.1728 -0.6092  0.5714
   94MOL   C16224528   3.933   6.298   7.585 -0.1123 -0.5371 -0.4874
   94MOL   C16324529   3.489   6.174   7.759 -0.2742 -0.0369 -0.1050
   94MOL   H16424530   3.669   6.188   0.026 -1.7847 -0.6243 -0.8011
   94MOL   H16524531   3.666   6.334   7.606 -0.8082 -1.8960 -1.2672
   94MOL   H16624532   3.879   6.361   7.514  0.7874  0.3389 -0.4073
   94MOL   H16724533   4.001   6.373   7.625  0.4829 -0.2541 -1.9872
   94MOL   H16824534   3.994   6.221   7.539  3.0221  0.3338  2.0230
   94MOL   H16924535   3.413   6.250   7.739 -1.0871 -0.6950  0.4205
   94MOL   H17024536   3.503   6.118   7.666 -0.1710 -2.8398  1.5217
   94MOL   C17124537   3.443   6.074   0.022 -0.2480 -0.5408  1.0185
   94MOL   N17224538   3.523   5.946   0.013 -0.9325 -0.9041  0.0086
   94MOL   C17324539   3.566   5.882   0.116  0.1282 -0.3731 -0.5243
   94MOL   O17424540   3.554   5.916   0.235  0.0261 -0.2314  0.2149
   94MOL   C17524541   3.648   5.754   0.085  0.2692  0.0369  0.0284
   94MOL   C17624542   3.294   6.038   7.829 -0.5259 -0.0447  0.4909
   94MOL   H17724543   3.453   6.121   0.120  0.4851  0.0278  0.6700
   94MOL   H17824544   3.553   5.922   7.759 -0.2938  2.5995 -0.7454
   94MOL   H17924545   3.612   5.670   0.144 -1.1302  0.4548 -0.2286
   94MOL   H18024546   3.646   5.728   7.819  1.0167 -3.1545  0.7550
   94MOL   H18124547   3.750   5.774   0.119  0.5095  2.4550 -2.0044
   94MOL   H18224548   3.235   6.120   7.788 -0.4333 -0.4501 -0.4648
   94MOL   H18324549   3.273   5.972   7.745 -0.6770  1.2321 -0.4944
   94MOL   C18424550   3.208   5.980   0.108 -0.6191 -0.3564 -0.1841
   94MOL   N18524551   3.085   5.919   0.065  0.3163 -0.0705  0.8563
   94MOL   C18624552   3.041   5.796   0.097 -0.2154 -0.1026  0.3861
   94MOL   O18724553   3.110   5.712   0.154 -0.0143  0.5148 -0.3549
   94MOL   C18824554   2.901   5.737   0.045 -0.1313 -0.4029 -0.3674
   94MOL   C18924555   3.179   6.095   0.215 -0.2220  0.0653 -0.6565
   94MOL   H19024556   3.269   5.911   0.166  1.1180  0.7383 -0.6746
   94MOL   H19124557   3.009   5.982   0.045 -0.3043 -1.0547  0.0409
   94MOL   H19224558   2.865   5.642   0.086 -2.0837  0.5860  0.2550
   94MOL   H19324559   2.824   5.808   0.077 -1.2833 -1.5335 -0.5737
   94MOL   H19424560   2.898   5.729   7.776  0.3626  2.2302 -0.6119
   94MOL   H19524561   3.267   6.139   0.261  0.9488 -1.7297 -1.1146
   94MOL   H19624562   3.127   6.171   0.157 -1.3842 -0.2511 -0.0443
   94MOL   C19724563   3.092   6.054   0.347 -0.5293 -0.4302 -0.1173
   94MOL   N19824564   3.036   6.174   0.403 -0.1774  0.2533  0.8908
   94MOL   C19924565   2.920   6.239   0.369  0.0585 -0.2413 -0.0130
   94MOL   O20024566   2.833   6.185   0.304  0.1393 -0.4292  0.0934
   94MOL   C20124567   2.903   6.378   0.441 -0.0952  0.1990 -0.0468
   94MOL   C20224568   3.180   5.989   0.449  0.8171 -0.5198 -0.3427
   94MOL   H20324569   3.010   5.988   0.315 -0.1443 -1.5407  1.1685
   94MOL   H20424570   3.104   6.233   0.449  0.4964 -0.8849  1.3805
   94MOL   H20524571   2.979   6.391   0.519 -0.4321 -0.7039  0.4408
   94MOL   H20624572   2.923   6.454   0.366  2.2906  0.5289  0.8641
   94MOL   H20724573   2.801   6.403   0.468  0.8981  1.0891  3.1486
   94MOL   H20824574   3.235   5.908   0.401  0.7676 -2.1653  2.3431
   94MOL   H20924575   3.261   6.061   0.465 -0.1323  0.7611 -1.1634
   94MOL   C21024576   3.106   5.933   0.579 -0.1311 -0.0173  0.6077
   94MOL   N21124577   3.214   5.864   0.655 -0.5323 -0.1627  0.7713
   94MOL   C21224578   3.283   5.916   0.757  0.8924  0.6118 -0.0022
   94MOL   O21324579   3.246   6.005   0.830 -0.2772  0.0362 -0.1234
   94MOL   C21424580   3.420   5.855   0.786 -0.5864  0.3422 -0.5984
   94MOL   C21524581   2.988   5.843   0.536  0.8506  0.1995  0.1173
   94MOL   H21624582   3.073   6.025   0.627 -2.7917 -1.6078  1.9097
   94MOL   H21724583   3.239   5.777   0.612 -0.1248 -0.3378  1.3410
   94MOL   H21824584   3.409   5.746   0.783 -0.8288  0.3261  0.5743
   94MOL   H21924585   3.481   5.878   0.699 -0.8507  0.1108 -0.8475
   94MOL   H22024586   3.462   5.886   0.882 -0.0485 -3.1622  0.3721
   94MOL   H22124587   2.911   5.892   0.476 -0.1669 -0.7441  0.6243
   94MOL   H22224588   3.031   5.757   0.484 -1.2833 -1.6546  1.3034
   94MOL   C22324589   2.900   5.768   0.642  0.2834  0.2385 -0.1525
   94MOL   N22424590   2.785   5.706   0.580 -0.1795  0.1937  0.6293
   94MOL   C22524591   2.743   5.578   0.570 -0.4726  0.5401 -0.3937
   94MOL   O22624592   2.793   5.480   0.630 -0.1521 -0.2076  0.2930
   94MOL   C22724593   2.633   5.543   0.472  0.0494 -0.1216  0.3012
   94MOL   C22824594   2.856   5.863   0.756 -0.1327  0.0769 -0.0168
   94MOL   H22924595   2.969   5.689   0.670 -0.4006 -0.7234 -1.1289
   94MOL   H23024596   2.740   5.780   0.529 -0.6442  0.6744  1.7356
   94MOL   H23124597   2.597   5.641   0.439 -2.4310 -0.5935  1.4936
   94MOL   H23224598   2.665   5.503   0.375  1.9401  0.2062  0.7746
   94MOL   H23324599   2.561   5.477   0.520  0.1463  0.4022  1.1810
   94MOL   H23424600   2.952   5.904   0.786 -0.0289  0.4145 -0.7874
   94MOL   H23524601   2.803   5.943   0.704 -0.6187  1.0960  2.0203
   94MOL   C23624602   2.774   5.793   0.863  0.6171 -0.8755 -0.3407
   94MOL   N23724603   2.730   5.893   0.965 -0.0381 -0.2062 -0.2441
   94MOL   C23824604   2.605   5.934   0.988  0.1147 -0.2930  0.2389
   94MOL   O23924605   2.509   5.895   0.925 -0.3019  0.1936 -0.2868
   94MOL   C24024606   2.575   6.034   1.103  0.4230 -0.0314 -0.4062
   94MOL   C24124607   2.839   5.669   0.935  0.1899  0.3528  0.3426
   94MOL   H24224608   2.684   5.768   0.807 -0.4637 -1.2214  1.4885
   94MOL   H24324609   2.802   5.942   1.015  2.2921 -2.6554 -1.1118
   94MOL   H24424610   2.569   6.140   1.078  0.0221  0.6849  2.4392
   94MOL   H24524611   2.479   6.017   1.151  1.1939 -0.6859  0.9326
   94MOL   H24624612   2.648   6.016   1.182  0.1457  1.7748  0.2826
   94MOL   H24724613   2.878   5.601   0.859 -0.2254 -1.2746  1.5554
   94MOL   H24824614   2.927   5.696   0.993 -1.5507  1.7769  2.3958
   94MOL   C24924615   2.737   5.587   1.022  0.3150  0.0455  0.0477
   94MOL   N25024616   2.804   5.463   1.063  0.8173 -0.7191 -0.2966
   94MOL   C25124617   2.780   5.392   1.176 -0.0577  0.2234 -0.0045
   94MOL   O25224618   2.708   5.431   1.262 -1.0106  0.1299 -0.2068
   94MOL   C25324619   2.865   5.265   1.206 -0.9885  0.4158 -0.4397
   94MOL   C25424620   2.612   5.542   0.936 -0.2352 -0.6195  0.2517
   94MOL   H25524621   2.700   5.654   1.100 -1.0244  1.2343 -1.5658
   94MOL   H25624622   2.889   5.442   1.013  0.4218  0.8109 -1.6162
   94MOL   H25724623   2.920   5.227   1.120 -0.3838  0.7983 -0.2287
   94MOL   H25824624   2.937   5.294   1.282  0.0107  0.5107 -1.4028
   94MOL   H25924625   2.799   5.185   1.240 -1.0637  0.3288 -0.7824
   94MOL   H26024626   2.551   5.630   0.916  1.5834  0.5032 -0.4170
   94MOL   H26124627   2.633   5.480   0.849 -1.3742 -0.0255 -0.4631
   94MOL   H26224628   2.546   5.488   1.005  0.6044  1.3425  2.6672
   95MOL     C124629   0.414   2.620   6.900 -0.0874 -0.0764  1.2366
   95MOL     N224630   0.435   2.747   6.831 -0.3497  0.7677  0.0122
   95MOL     C324631   0.370   2.779   6.719  0.8080 -0.5461  0.0333
   95MOL     O424632   0.278   2.716   6.668 -0.2417 -0.3323 -0.0298
   95MOL     C524633   0.403   2.911   6.650  0.0125  0.5096 -0.3513
   95MOL     C624634   0.475   2.500   6.819  0.1249  0.4443  0.1829
   95MOL     H724635   0.467   2.614   6.995  2.3481 -1.3955 -0.1527
   95MOL     H824636   0.507   2.809   6.866 -0.2943  0.7147 -0.0092
   95MOL     H924637   0.380   2.921   6.544  2.2703  3.2539 -0.6552
   95MOL    H1024638   0.367   2.992   6.714  2.0862  1.1503  0.0550
   95MOL    H1124639   0.512   2.913   6.652  0.0069  1.0508 -0.4332
   95MOL    H1224640   0.472   2.511   6.711  1.1700  2.3857  0.3279
   95MOL    H1324641   0.577   2.495   6.857 -0.4663 -0.4666  1.7083
   95MOL    H1424642   0.309   2.616   6.929 -1.5984  2.5230 -3.4460
   95MOL    C1524643   0.392   2.372   6.843 -0.3021 -0.5004  0.2294
   95MOL    N1624644   0.393   2.333   6.981  0.0966 -0.2692  0.0619
   95MOL    C1724645   0.291   2.306   7.057  0.1221  0.2000 -0.1935
   95MOL    O1824646   0.173   2.317   7.013  0.0598  0.1097 -0.2009
   95MOL    C1924647   0.316   2.289   7.212  0.0195 -0.5572 -0.1069
   95MOL    C2024648   0.434   2.254   6.746  0.2339  0.1216  0.6320
   95MOL    H2124649   0.293   2.390   6.801 -0.2479 -1.9786 -0.5432
   95MOL    H2224650   0.481   2.307   7.024 -1.0465 -2.6173  1.0365
   95MOL    H2324651   0.336   2.377   7.272 -2.0054 -0.9942  1.2468
   95MOL    H2424652   0.242   2.220   7.252 -1.1369  1.4767  1.3138
   95MOL    H2524653   0.400   2.223   7.232  1.3861  1.9139  2.6821
   95MOL    H2624654   0.433   2.279   6.640 -1.2221  0.4175  0.7045
   95MOL    H2724655   0.541   2.238   6.760  0.3980  2.4209  2.4606
   95MOL    C2824656   0.341   2.122   6.741  0.2227 -0.2420  0.0353
   95MOL    N2924657   0.199   2.167   6.733  0.1167 -0.2449  0.5477
   95MOL    C3024658   0.107   2.139   6.638 -0.5551 -0.5835  0.0633
   95MOL    O3124659   0.140   2.062   6.549  0.2900 -0.3245  0.6087
   95MOL    C3224660   7.814   2.215   6.636  0.1170  0.0007 -0.2317
   95MOL    C3324661   0.357   2.017   6.852  0.0881 -0.7792 -0.1995
   95MOL    H3424662   0.373   2.079   6.646 -0.1233  3.4563 -1.8866
   95MOL    H3524663   0.178   2.226   6.812 -0.2501 -1.1325  1.1181
   95MOL    H3624664   7.832   2.319   6.609  2.7609  1.1877  5.3214
   95MOL    H3724665   7.761   2.167   6.554 -1.3036  1.0355  0.0531
   95MOL    H3824666   7.752   2.184   6.720  0.3897 -2.1066 -0.7958
   95MOL    H3924667   0.378   2.075   6.943 -1.1055  0.3403 -0.6148
   95MOL    H4024668   0.262   1.966   6.871 -1.5059  2.0009 -0.3632
   95MOL    C4124669   0.473   1.915   6.841  0.7118  0.1647 -0.7608
   95MOL    N4224670   0.606   1.973   6.858 -0.3391  0.2724  0.6491
   95MOL    C4324671   0.656   2.050   6.959  0.4152  0.1694 -0.8762
   95MOL    O4424672   0.589   2.101   7.049  0.5480  0.5072 -0.1477
   95MOL    C4524673   0.801   2.076   6.962  0.0559 -0.3629  0.7847
   95MOL    C4624674   0.469   1.819   6.709 -0.2307  0.0804 -0.4337
   95MOL    H4724675   0.463   1.851   6.929 -2.4442 -1.9927 -2.6089
   95MOL    H4824676   0.678   1.939   6.796 -2.6711 -2.4456 -0.7286
   95MOL    H4924677   0.840   2.130   6.876 -0.7509 -1.3876 -0.2286
   95MOL    H5024678   0.831   2.113   7.061  0.4808  0.1025  0.4833
   95MOL    H5124679   0.850   1.979   6.957 -1.1300 -0.8831 -1.1261
   95MOL    H5224680   0.508   1.871   6.621  1.8611  0.7562  0.8455
   95MOL    H5324681   0.543   1.739   6.708  0.2519  0.5221 -0.5163
   95MOL    C5424682   0.340   1.742   6.694  0.2944  0.1278  0.0380
   95MOL    N5524683   0.307   1.676   6.826 -0.6820  0.4197  0.6538
   95MOL    C5624684   0.190   1.647   6.877 -0.4736 -0.1759 -0.5450
   95MOL    O5724685   0.090   1.665   6.813  0.2563  0.0057 -0.0689
   95MOL    C5824686   0.187   1.579   7.012 -0.2244 -0.4011 -0.3222
   95MOL    C5924687   0.341   1.633   6.585  0.4527 -0.0154 -0.2217
   95MOL    H6024688   0.258   1.810   6.673 -0.8777 -1.6648 -1.2511
   95MOL    H6124689   0.390   1.642   6.873 -1.0487 -2.5566 -0.7349
   95MOL    H6224690   0.093   1.608   7.059 -1.8163 -3.3643 -1.5076
   95MOL    H6324691   0.178   1.471   7.010 -1.2992 -0.3523  1.0466
   95MOL    H6424692   0.274   1.611   7.069 -0.4394 -0.0209 -0.2002
   95MOL    H6524693   0.437   1.629   6.532  0.2629 -0.2212 -0.5511
   95MOL    H6624694   0.331   1.540   6.641  0.8601 -0.7248 -1.3183
   95MOL    C6724695   0.230   1.639   6.484  0.0259  0.0604 -0.2646
   95MOL    N6824696   0.220   1.510   6.413 -0.1053  0.2313 -0.3346
   95MOL    C6924697   0.119   1.465   6.335  0.2585  0.2386  0.6707
   95MOL    O7024698   0.010   1.524   6.333 -0.0956  0.3076  0.0018
   95MOL    C7124699   0.138   1.332   6.270 -0.5928 -0.6018  0.0569
   95MOL    C7224700   0.233   1.764   6.387  0.3736  0.4723 -0.1686
   95MOL    H7324701   0.136   1.639   6.539  1.4468 -1.1911  2.2810
   95MOL    H7424702   0.302   1.452   6.423  1.0650  1.9189  0.1919
   95MOL    H7524703   0.045   1.275   6.272 -2.2477  2.0201 -0.0496
   95MOL    H7624704   0.160   1.347   6.164  0.5255  1.0322  0.5056
   95MOL    H7724705   0.210   1.269   6.324 -0.9850  0.0453  1.3411
   95MOL    H7824706   0.154   1.754   6.313  1.3405 -0.5401 -1.0855
   95MOL    H7924707   0.196   1.846   6.450 -0.8183  0.5326 -0.9313
   95MOL    C8024708   0.361   1.784   6.303 -0.1116 -0.0358  0.7816
   95MOL    N8124709   0.387   1.934   6.281  0.2968 -0.3279  0.8411
   95MOL    C8224710   0.483   1.995   6.348 -0.0245 -0.4713 -0.4303
   95MOL    O8324711   0.582   1.938   6.399  0.0852 -0.3896  0.3242
   95MOL    C8424712   0.470   2.146   6.375  0.6295  0.4635  0.1302
   95MOL    C8524713   0.348   1.710   6.169  0.3296 -0.6813 -0.2340
   95MOL    H8624714   0.438   1.742   6.368  1.0422  0.0823 -0.4972
   95MOL    H8724715   0.311   1.988   6.243  0.5919 -1.8212 -1.9351
   95MOL    H8824716   0.494   2.215   6.294  2.3016 -2.1376 -1.6800
   95MOL    H8924717   0.372   2.165   6.419 -0.1353  1.1868 -1.8377
   95MOL    H9024718   0.549   2.157   6.450  0.1374  2.6018  0.3778
   95MOL    H9124719   0.318   1.605   6.177  2.2233 -1.0918  1.9394
   95MOL    H9224720   0.269   1.764   6.117  0.6420 -1.8837 -2.0033
   95MOL    C9324721   0.481   1.715   6.080 -0.4670 -0.1012  0.5995
   95MOL    N9424722   0.456   1.738   5.941  0.2382  0.2206 -0.1026
   95MOL    C9524723   0.394   1.667   5.849 -0.0438  0.4492  0.2842
   95MOL    O9624724   0.330   1.564   5.876 -0.1069 -0.2032  0.6411
   95MOL    C9724725   0.399   1.729   5.705  0.0267  0.2270 -0.1192
   95MOL    C9824726   0.570   1.590   6.102 -0.2450  0.4211 -0.3282
   95MOL    H9924727   0.551   1.796   6.103  0.3130 -0.2049 -1.2830
   95MOL   H10024728   0.503   1.820   5.906  2.6161 -1.0345  0.0507
   95MOL   H10124729   0.303   1.694   5.667  0.7865 -1.9891 -0.0989
   95MOL   H10224730   0.422   1.836   5.707  1.1537 -0.0179  0.9383
   95MOL   H10324731   0.477   1.673   5.653  0.2475 -0.3370  0.8019
   95MOL   H10424732   0.501   1.506   6.094 -0.3555  0.3353  1.3528
   95MOL   H10524733   0.653   1.584   6.032 -0.7777 -2.3834 -0.7741
   95MOL   C10624734   0.620   1.566   6.247 -0.8846  0.0793  0.2725
   95MOL   N10724735   0.694   1.684   6.294  0.5319 -0.8913 -0.4515
   95MOL   C10824736   0.814   1.722   6.243 -0.4809  0.0543  0.4473
   95MOL   O10924737   0.858   1.670   6.139  0.4710 -0.2656  0.1464
   95MOL   C11024738   0.877   1.839   6.315 -0.0015 -0.4294  0.1907
   95MOL   C11124739   0.700   1.432   6.251 -0.4039 -0.1739 -0.6521
   95MOL   H11224740   0.537   1.555   6.317 -0.7990  0.4739  0.4376
   95MOL   H11324741   0.647   1.753   6.351  0.3304  0.7851 -2.5725
   95MOL   H11424742   0.865   1.836   6.423 -1.0588 -2.6260  0.0433
   95MOL   H11524743   0.985   1.832   6.308  0.1549 -0.2281  2.0736
   95MOL   H11624744   0.836   1.932   6.276 -0.0049 -1.0454 -1.3051
   95MOL   H11724745   0.783   1.434   6.180  1.3143 -1.5935  1.2591
   95MOL   H11824746   0.751   1.424   6.347  0.2489  0.4362 -0.9395
   95MOL   C11924747   0.614   1.303   6.232 -0.3238  0.2054 -0.1423
   95MOL   N12024748   0.616   1.217   6.352  0.3863  0.2834 -0.2899
   95MOL   C12124749   0.529   1.240   6.454 -0.9064  0.4898 -0.2596
   95MOL   O12224750   0.439   1.317   6.448 -0.0175  0.4061  0.2741
   95MOL   C12324751   0.539   1.160   6.582  0.0701  0.0954 -0.4361
   95MOL   C12424752   0.642   1.230   6.101  0.2349  0.2198  0.8145
   95MOL   H12524753   0.508   1.328   6.228 -0.6408 -0.7239  1.6222
   95MOL   H12624754   0.697   1.157   6.356  0.9175  1.0746  1.9815
   95MOL   H12724755   0.509   1.217   6.670  1.1825  0.3132 -0.1929
   95MOL   H12824756   0.470   1.076   6.581 -2.7572  2.2129  2.5825
   95MOL   H12924757   0.643   1.130   6.595 -0.5127 -1.0830  1.8699
   95MOL   H13024758   0.652   1.307   6.026 -1.6865 -0.5229 -0.2393
   95MOL   H13124759   0.741   1.184   6.094 -0.7133 -1.6239 -1.0540
   95MOL   C13224760   0.548   1.109   6.063 -0.2405 -0.0006 -0.4102
   95MOL   N13324761   0.617   1.023   5.966 -0.1231  0.7161  0.0076
   95MOL   C13424762   0.630   0.887   5.969  0.5030  0.4687 -0.2306
   95MOL   O13524763   0.586   0.817   6.060 -0.2610 -0.2403 -0.6493
   95MOL   C13624764   0.715   0.826   5.867 -0.8244  0.2494  0.4793
   95MOL   C13724765   0.404   1.150   6.021 -0.6888 -0.3820 -0.0944
   95MOL   H13824766   0.546   1.049   6.154 -1.4036  1.5618  0.6329
   95MOL   H13924767   0.658   1.059   5.881 -2.1640  0.9721 -0.9034
   95MOL   H14024768   0.722   0.717   5.876  3.0914  0.3058 -0.7848
   95MOL   H14124769   0.679   0.842   5.766 -0.4655 -0.2221  0.2732
   95MOL   H14224770   0.815   0.868   5.863 -1.2086  0.9730 -2.2960
   95MOL   H14324771   0.344   1.066   6.053  1.1549 -2.0337 -0.8359
   95MOL   H14424772   0.357   1.236   6.068 -1.3807  0.3733 -2.1141
   95MOL   C14524773   0.387   1.165   5.865  0.1679  0.2898 -0.1233
   95MOL   N14624774   0.453   1.282   5.812 -0.6048  0.4212 -0.2895
   95MOL   C14724775   0.555   1.280   5.723  0.3637  0.3277 -1.0508
   95MOL   O14824776   0.647   1.189   5.718 -0.2526 -0.1118  0.2881
   95MOL   C14924777   0.556   1.384   5.617  0.3340 -0.1888  0.2504
   95MOL   C15024778   0.241   1.178   5.812 -0.1018  0.1450 -0.9321
   95MOL   H15124779   0.433   1.075   5.825  2.1973  0.2687  2.1609
   95MOL   H15224780   0.398   1.367   5.811  0.0110  0.8551  1.2920
   95MOL   H15324781   0.477   1.361   5.546 -1.5204  1.2417  1.8020
   95MOL   H15424782   0.567   1.480   5.668 -1.7424  0.8224 -1.1414
   95MOL   H15524783   0.654   1.382   5.570  0.1359  1.9929 -0.3050
   95MOL   H15624784   0.196   1.264   5.860 -1.2341 -1.2600  0.5735
   95MOL   H15724785   0.246   1.201   5.705  1.3574  0.2486 -0.8452
   95MOL   C15824786   0.151   1.057   5.849  0.0557  0.4601  0.5464
   95MOL   N15924787   0.210   0.929   5.822 -0.8306  0.3757  0.5022
   95MOL   C16024788   0.231   0.832   5.909 -0.2899  0.2900 -0.2029
   95MOL   O16124789   0.201   0.848   6.029  0.0526  0.2359  0.5532
   95MOL   C16224790   0.306   0.715   5.854 -0.4546  0.2693 -0.2028
   95MOL   C16324791   0.013   1.074   5.784  0.0755  0.1084 -0.4169
   95MOL   H16424792   0.139   1.057   5.958 -2.6188 -0.7003  0.2750
   95MOL   H16524793   0.252   0.926   5.730  0.0446  1.7041  0.8419
   95MOL   H16624794   0.256   0.664   5.771  2.2336 -0.1757 -1.6095
   95MOL   H16724795   0.402   0.755   5.822 -1.2357  1.0019 -1.6590
   95MOL   H16824796   0.332   0.659   5.944  0.9750  2.5423  0.8544
   95MOL   H16924797   7.804   1.142   5.853 -3.7745  0.7357 -3.6041
   95MOL   H17024798   0.011   1.117   5.684  0.4650  0.3185 -0.3387
   95MOL   C17124799   7.758   0.944   5.770 -0.2144  0.1249  0.4373
   95MOL   N17224800   7.675   0.959   5.650  0.6254 -0.1561 -0.3720
   95MOL   C17324801   7.692   0.899   5.531  0.0249  0.6683 -0.2469
   95MOL   O17424802   7.787   0.823   5.510  0.3680 -0.4108 -0.3977
   95MOL   C17524803   7.618   0.958   5.409 -0.0412 -0.3088 -0.3800
   95MOL   C17624804   7.672   0.917   5.899  0.3615  0.2354 -0.5958
   95MOL   H17724805   7.818   0.855   5.751  0.4720  0.3315  1.6011
   95MOL   H17824806   7.598   1.024   5.659 -0.5579 -1.6130  0.2247
   95MOL   H17924807   7.511   0.944   5.418 -0.1955  2.1823  2.4100
   95MOL   H18024808   7.627   1.065   5.395  3.6443 -0.3399  1.0156
   95MOL   H18124809   7.649   0.909   5.317 -1.1021 -2.8716  0.5596
   95MOL   H18224810   7.737   0.893   5.983 -0.7770  0.9742  0.5149
   95MOL   H18324811   7.630   1.007   5.944  0.3049 -0.7602  1.4217
   95MOL   C18424812   7.580   0.798   5.875  0.4445  0.6954 -0.2097
   95MOL   N18524813   7.479   0.795   5.980 -0.1501 -0.3434 -0.1440
   95MOL   C18624814   7.354   0.743   5.976  0.1960  0.6514 -0.2327
   95MOL   O18724815   7.296   0.709   5.876  0.6817 -0.3316  0.1200
   95MOL   C18824816   7.277   0.737   6.111  0.1509  0.2383  0.7663
   95MOL   C18924817   7.656   0.663   5.890  0.8989  0.2723  0.0612
   95MOL   H19024818   7.536   0.818   5.777 -0.3948  2.0225  0.4123
   95MOL   H19124819   7.510   0.830   6.069  1.3629 -1.0678 -0.3528
   95MOL   H19224820   7.275   0.834   6.161  1.2961 -0.2651  1.8241
   95MOL   H19324821   7.171   0.715   6.098 -0.0447  2.6310 -2.3464
   95MOL   H19424822   7.335   0.667   6.170 -1.0623  0.1006  1.8206
   95MOL   H19524823   7.761   0.671   5.864  0.8409  1.2636  0.1077
   95MOL   H19624824   7.676   0.642   5.995 -0.0270 -0.9999 -0.0021
   95MOL   C19724825   7.594   0.543   5.825 -0.5786  0.5698  0.3432
   95MOL   N19824826   7.679   0.426   5.865  0.5400 -0.8302  0.5002
   95MOL   C19924827   7.804   0.400   5.820  0.0999  0.5550 -0.1580
   95MOL   O20024828   0.041   0.478   5.770 -0.6320  0.1192 -0.2905
   95MOL   C20124829   0.016   0.256   5.825  0.2218 -0.5674 -0.2535
   95MOL   C20224830   7.561   0.566   5.678 -0.0678 -0.0173  0.4850
   95MOL   H20324831   7.495   0.524   5.866 -0.6519  1.2455  0.4747
   95MOL   H20424832   7.630   0.351   5.910 -0.3048  0.5086  1.8611
   95MOL   H20524833   0.018   0.205   5.921  0.6913 -2.0364 -1.0201
   95MOL   H20624834   7.815   0.191   5.747  0.9414 -1.4793  0.1246
   95MOL   H20724835   0.120   0.264   5.792  0.8449 -1.4237  1.4658
   95MOL   H20824836   7.484   0.643   5.684  1.1974  1.2711  0.6678
   95MOL   H20924837   7.653   0.616   5.646  0.8353 -2.0212 -0.1475
   95MOL   C21024838   7.523   0.452   5.586  0.4235 -0.3268 -0.3422
   95MOL   N21124839   7.592   0.473   5.458  0.4614 -0.6126  0.2421
   95MOL   C21224840   7.578   0.573   5.375 -0.6221 -0.7151 -0.0645
   95MOL   O21324841   7.492   0.661   5.393  0.6187 -0.0714  0.2748
   95MOL   C21424842   7.689   0.579   5.266 -0.4721 -0.1036 -0.1419
   95MOL   C21524843   7.372   0.418   5.572  0.3483  0.0024 -0.1886
   95MOL   H21624844   7.583   0.376   5.635  0.9630  0.3367  0.0483
   95MOL   H21724845   7.659   0.403   5.431  1.5569  0.2405  0.6844
   95MOL   H21824846   7.653   0.656   5.198  0.3462  2.0546  1.8074
   95MOL   H21924847   7.787   0.612   5.300 -1.4157  2.7089 -0.0421
   95MOL   H22024848   7.688   0.482   5.216 -0.4393  0.7100 -1.7378
   95MOL   H22124849   7.325   0.443   5.667  0.3392 -1.5148  0.2133
   95MOL   H22224850   7.318   0.491   5.510 -0.8745  2.2067  3.2876
   95MOL   C22324851   7.334   0.270   5.529 -0.5180 -0.0062 -0.2647
   95MOL   N22424852   7.189   0.264   5.511  0.7345 -0.1668  0.3775
   95MOL   C22524853   7.129   0.183   5.422  0.4187 -0.7485 -0.4190
   95MOL   O22624854   7.184   0.082   5.372  0.3581 -0.1825 -0.0782
   95MOL   C22724855   6.990   0.230   5.369 -0.5452 -0.3711 -0.1101
   95MOL   C22824856   7.388   0.161   5.631  0.0637 -0.1159  0.8959
   95MOL   H22924857   7.383   0.247   5.434  1.4810  4.3789 -0.3994
   95MOL   H23024858   7.147   0.354   5.527  1.0534 -0.4066  2.7071
   95MOL   H23124859   6.921   0.263   5.447  2.5485  0.7547  2.2516
   95MOL   H23224860   7.008   0.311   5.299 -0.2906 -2.0437 -2.0136
   95MOL   H23324861   6.933   0.147   5.327 -0.7348 -0.4064  0.2118
   95MOL   H23424862   7.355   0.062   5.601 -2.3460  1.4803 -1.9643
   95MOL   H23524863   7.496   0.160   5.613  0.1193 -0.2362  1.2320
   95MOL   C23624864   7.365   0.184   5.786  0.1545 -0.3053  0.2422
   95MOL   N23724865   7.450   0.081   5.848  0.9539  0.1882  0.8903
   95MOL   C23824866   7.539   0.094   5.945  0.0432 -0.0854  0.0417
   95MOL   O23924867   7.553   0.198   6.007 -0.3838 -0.2408 -0.1175
   95MOL   C24024868   7.627   7.810   5.982  0.1416 -0.3865 -0.2105
   95MOL   C24124869   7.217   0.175   5.833  0.0222  0.4270  0.0602
   95MOL   H24224870   7.408   0.279   5.815 -1.3510  0.6449 -0.5934
   95MOL   H24324871   7.430   7.825   5.822 -1.3972  0.0952  2.7735
   95MOL   H24424872   7.705   0.016   6.042 -0.6971  2.4106 -1.2140
   95MOL   H24524873   7.579   7.735   6.045 -1.2271 -0.3873 -1.2333
   95MOL   H24624874   7.666   7.750   5.899 -1.0440  1.8216 -2.4052
   95MOL   H24724875   7.151   0.245   5.782  0.7752  0.4354 -0.8950
   95MOL   H24824876   7.177   0.077   5.807  0.1937  0.4713 -0.3689
   95MOL   C24924877   7.193   0.211   5.976  0.0057 -0.0957 -0.0481
   95MOL   N25024878   7.054   0.183   6.009 -0.7063  0.0400  0.2825
   95MOL   C25124879   7.011   0.137   6.128 -0.0503  0.2070 -0.2340
   95MOL   O25224880   7.087   0.122   6.221 -0.2696  0.2915  0.9907
   95MOL   C25324881   6.862   0.105   6.137 -0.1692  0.5028  0.5321
   95MOL   C25424882   7.229   0.351   6.016  0.3236  0.6558 -0.0455
   95MOL   H25524883   7.254   0.142   6.035 -2.3129 -1.3121  1.0414
   95MOL   H25624884   6.982   0.208   5.942 -1.1517 -0.6424  0.5062
   95MOL   H25724885   6.826   0.104   6.239  0.5552  0.3451  0.7927
   95MOL   H25824886   6.800   0.174   6.080  0.7794  0.5663 -0.4481
   95MOL   H25924887   6.840   0.004   6.104 -0.1555  1.0315 -1.2023
   95MOL   H26024888   7.334   0.376   6.006  0.8411 -1.1688  0.7342
   95MOL   H26124889   7.182   0.418   5.944  1.5345  0.2559 -1.2242
   95MOL   H26224890   7.199   0.378   6.118  1.6363  2.8054 -0.1988
   96MOL     C124891   5.619   4.995   7.206 -0.5618 -1.1520 -0.0082
   96MOL     N224892   5.736   5.014   7.120  0.4648  0.1978 -0.0845
   96MOL     C324893   5.854   4.947   7.128 -0.6845 -0.4438 -0.5248
   96MOL     O424894   5.878   4.854   7.208 -0.1342 -0.0221 -0.3291
   96MOL     C524895   5.945   4.966   7.008  0.5546 -0.0734  0.5114
   96MOL     C624896   5.493   4.938   7.132 -0.2629  0.1688  0.0221
   96MOL     H724897   5.639   4.963   7.308  1.7650  2.9872  0.9460
   96MOL     H824898   5.724   5.081   7.045 -1.1277  0.8740  0.7508
   96MOL     H924899   5.880   4.982   6.921  0.0074 -1.5326  0.6398
   96MOL    H1024900   6.019   5.042   7.029  0.1340  0.6563 -0.5976
   96MOL    H1124901   6.000   4.873   6.991 -0.9681 -1.5261  3.2038
   96MOL    H1224902   5.478   4.996   7.041 -1.4342  2.7315  1.7806
   96MOL    H1324903   5.526   4.841   7.095 -0.7196 -0.5626  1.5103
   96MOL    H1424904   5.597   5.100   7.223 -2.3141 -1.5026 -0.0888
   96MOL    C1524905   5.365   4.910   7.219  0.1490 -0.2780  0.2653
   96MOL    N1624906   5.404   4.837   7.343 -0.3885  0.5391  0.6701
   96MOL    C1724907   5.404   4.869   7.471  0.4200  0.2195 -0.0783
   96MOL    O1824908   5.344   4.968   7.509  0.0105 -0.7204 -0.2713
   96MOL    C1924909   5.461   4.773   7.579 -0.0923  0.2328 -0.4283
   96MOL    C2024910   5.241   4.827   7.156 -0.3309  0.0331  0.0390
   96MOL    H2124911   5.331   5.009   7.251 -1.6815 -0.6034 -0.5796
   96MOL    H2224912   5.439   4.742   7.334 -3.9065 -0.6397 -1.9848
   96MOL    H2324913   5.552   4.811   7.626 -0.3833 -0.1866  0.4735
   96MOL    H2424914   5.384   4.736   7.646  1.2687 -0.1558  0.9600
   96MOL    H2524915   5.497   4.681   7.532 -1.6474  0.4665 -2.1103
   96MOL    H2624916   5.270   4.725   7.129 -1.6427 -0.2913 -0.1675
   96MOL    H2724917   5.162   4.812   7.229 -1.6687  0.6984 -1.2410
   96MOL    C2824918   5.168   4.891   7.036  0.6839 -0.0224  0.1053
   96MOL    N2924919   5.127   5.022   7.084 -0.2331  0.7042 -0.0624
   96MOL    C3024920   5.166   5.135   7.027 -0.0394  0.0660 -0.2374
   96MOL    O3124921   5.246   5.143   6.938 -0.5234  0.0165  0.1165
   96MOL    C3224922   5.093   5.266   7.071 -0.6480  0.6865  0.3032
   96MOL    C3324923   5.046   4.814   6.987 -0.8357  0.1636 -0.5259
   96MOL    H3424924   5.234   4.901   6.950 -3.1193  0.8184 -2.8817
   96MOL    H3524925   5.040   5.027   7.137 -0.5877 -3.4122 -0.0805
   96MOL    H3624926   5.116   5.285   7.176  1.4544  0.4510 -0.1038
   96MOL    H3724927   5.119   5.351   7.008  0.9418  0.7353  1.0055
   96MOL    H3824928   4.987   5.245   7.054 -0.3719 -1.0523  0.6701
   96MOL    H3924929   5.003   4.766   7.075  1.8920 -1.8889 -0.2438
   96MOL    H4024930   4.970   4.881   6.948 -0.8179  0.5707  0.1243
   96MOL    C4124931   5.068   4.704   6.876  0.2797  0.5572 -0.1740
   96MOL    N4224932   5.070   4.790   6.757 -0.6046  0.1236 -0.6478
   96MOL    C4324933   5.158   4.799   6.659 -0.4620 -0.2097 -0.3797
   96MOL    O4424934   5.247   4.718   6.648 -0.0436  0.1688  0.6882
   96MOL    C4524935   5.134   4.906   6.562  0.9808 -0.0536 -0.4209
   96MOL    C4624936   4.959   4.595   6.883  0.5180 -0.0147 -0.4376
   96MOL    H4724937   5.159   4.649   6.901 -0.2485 -1.0834 -1.7617
   96MOL    H4824938   4.992   4.855   6.753 -0.4740  0.2379 -1.5658
   96MOL    H4924939   5.091   4.996   6.606 -0.5381 -1.0837  0.2652
   96MOL    H5024940   5.222   4.931   6.503  0.3328  1.4620 -0.7732
   96MOL    H5124941   5.067   4.876   6.481  0.4317 -1.5709  0.5754
   96MOL    H5224942   4.988   4.528   6.964 -1.9145 -0.2498  0.2844
   96MOL    H5324943   4.864   4.633   6.919  0.4292  0.5718 -1.2737
   96MOL    C5424944   4.932   4.509   6.759  0.4759 -0.1497  0.1533
   96MOL    N5524945   5.060   4.494   6.690 -0.1201 -0.2278 -0.4048
   96MOL    C5624946   5.097   4.402   6.606  0.0010 -0.4114  0.2042
   96MOL    O5724947   5.044   4.289   6.599 -0.3607 -0.8239 -0.5720
   96MOL    C5824948   5.216   4.434   6.517 -0.1288 -0.5104  0.3423
   96MOL    C5924949   4.843   4.588   6.656  0.5221 -0.0050 -0.5823
   96MOL    H6024950   4.886   4.412   6.778 -0.0658 -0.0565 -0.6257
   96MOL    H6124951   5.114   4.579   6.689  0.1477 -0.3562  1.1361
   96MOL    H6224952   5.309   4.435   6.575  0.4840 -1.5155 -0.6005
   96MOL    H6324953   5.233   4.348   6.452 -0.1666 -0.4314  0.2286
   96MOL    H6424954   5.220   4.521   6.451  0.7600  0.7700  2.0569
   96MOL    H6524955   4.883   4.687   6.632  1.0935  0.3185  1.6185
   96MOL    H6624956   4.841   4.549   6.554 -1.6954 -2.0407  0.1984
   96MOL    C6724957   4.691   4.604   6.696  0.6763  1.1942 -0.3508
   96MOL    N6824958   4.637   4.480   6.737  0.4197  1.0864 -0.7676
   96MOL    C6924959   4.601   4.447   6.863  0.5412 -0.1616  0.4213
   96MOL    O7024960   4.599   4.534   6.949  0.3934  0.4336  0.1085
   96MOL    C7124961   4.560   4.308   6.882 -0.3316  0.2367  0.2970
   96MOL    C7224962   4.598   4.665   6.586 -0.3141 -0.2927 -0.0600
   96MOL    H7324963   4.691   4.676   6.778  1.1384 -0.6087  1.2696
   96MOL    H7424964   4.634   4.424   6.653  2.6527  0.3820 -0.3981
   96MOL    H7524965   4.579   4.295   6.989  1.0801  1.7577  0.2475
   96MOL    H7624966   4.455   4.305   6.853 -0.1359 -2.4968 -0.2726
   96MOL    H7724967   4.623   4.234   6.833 -0.9782 -0.4074  0.4280
   96MOL    H7824968   4.593   4.608   6.494  0.6681 -1.0090  0.3204
   96MOL    H7924969   4.496   4.643   6.617 -1.4642  0.7508 -2.9288
   96MOL    C8024970   4.623   4.815   6.556 -0.3223  0.8469  0.4150
   96MOL    N8124971   4.581   4.891   6.671  0.1162 -0.4325 -0.1028
   96MOL    C8224972   4.673   4.941   6.754  0.6748 -0.2874 -0.4703
   96MOL    O8324973   4.794   4.937   6.742  0.6244 -0.0515 -0.2791
   96MOL    C8424974   4.617   5.011   6.874 -0.5489 -0.4730  0.7032
   96MOL    C8524975   4.547   4.875   6.438  0.4169 -0.2070  0.0851
   96MOL    H8624976   4.731   4.825   6.547 -0.0682 -2.3299 -0.5703
   96MOL    H8724977   4.487   4.882   6.707  0.1962 -0.4696  0.0972
   96MOL    H8824978   4.541   4.948   6.920 -0.5599 -1.8514 -1.1700
   96MOL    H8924979   4.690   5.040   6.951 -1.3155 -1.4644  1.8242
   96MOL    H9024980   4.565   5.100   6.837  2.1602  1.6329  1.7550
   96MOL    H9124981   4.541   4.805   6.354  1.3527 -0.7236  0.4433
   96MOL    H9224982   4.445   4.895   6.471  0.5477 -1.8881  1.6407
   96MOL    C9324983   4.615   5.005   6.387  0.0520  0.0685 -0.0995
   96MOL    N9424984   4.521   5.109   6.342 -0.1971  0.5198  0.6667
   96MOL    C9524985   4.508   5.231   6.393 -0.1205 -0.4183 -0.6881
   96MOL    O9624986   4.575   5.278   6.486 -0.4840 -0.6171 -0.4675
   96MOL    C9724987   4.401   5.323   6.334 -0.5160 -0.3952  0.1054
   96MOL    C9824988   4.719   4.965   6.289  0.1958  0.3403 -0.6913
   96MOL    H9924989   4.678   5.042   6.468 -0.1651 -2.1598  1.1317
   96MOL   H10024990   4.453   5.081   6.273 -0.4005 -1.9861  1.8047
   96MOL   H10124991   4.453   5.370   6.251  1.0774  0.2321  1.4503
   96MOL   H10224992   4.314   5.269   6.295 -0.4046  1.2735 -2.5655
   96MOL   H10324993   4.370   5.406   6.398 -1.6998  0.4635 -1.5409
   96MOL   H10424994   4.781   4.889   6.337  2.1243  2.2875 -0.0542
   96MOL   H10524995   4.675   4.926   6.197  4.2597 -3.8771 -1.0293
   96MOL   C10624996   4.815   5.080   6.243  0.1215  0.3094 -0.0106
   96MOL   N10724997   4.886   5.033   6.121  0.9496  0.3882 -0.3649
   96MOL   C10824998   4.996   4.960   6.115 -0.5496  0.0187  0.1105
   96MOL   O10924999   5.073   4.951   6.211  0.4297 -0.7117  0.0205
   96MOL   C11025000   5.044   4.903   5.986 -1.2121 -0.1577 -0.2473
   96MOL   C11125001   4.902   5.153   6.352  0.1109  0.3900 -0.1623
   96MOL   H11225002   4.758   5.158   6.194  0.7168  0.7219 -0.0448
   96MOL   H11325003   4.835   5.053   6.036 -1.5198  2.5218  1.5188
   96MOL   H11425004   5.123   4.968   5.948 -1.1487  0.5303  1.0345
   96MOL   H11525005   5.069   4.798   5.991 -1.6929 -0.2541  0.1935
   96MOL   H11625006   4.960   4.919   5.917 -0.6626  1.8179 -0.4998
   96MOL   H11725007   4.836   5.169   6.437  0.1443 -0.2269 -0.0177
   96MOL   H11825008   4.976   5.082   6.390 -0.0120 -1.0079 -2.4004
   96MOL   C11925009   4.982   5.286   6.317  0.0986  0.5765  0.6913
   96MOL   N12025010   5.074   5.314   6.426  0.0545  1.0197  0.3494
   96MOL   C12125011   5.208   5.299   6.424  0.4423 -0.2137  0.4111
   96MOL   O12225012   5.269   5.270   6.318 -0.4265 -0.1030  0.0684
   96MOL   C12325013   5.282   5.323   6.554  0.3756 -0.4717 -0.0623
   96MOL   C12425014   4.889   5.405   6.304 -0.4378 -0.5057  0.4619
   96MOL   H12525015   5.034   5.274   6.222 -1.7516  1.1435 -0.3976
   96MOL   H12625016   5.028   5.340   6.512  0.3123 -1.7374  1.3825
   96MOL   H12725017   5.341   5.235   6.576  1.9797  0.4230 -0.7353
   96MOL   H12825018   5.350   5.408   6.554 -2.1716  1.6797  1.3584
   96MOL   H12925019   5.206   5.348   6.629 -0.5100 -0.0716 -1.0690
   96MOL   H13025020   4.953   5.466   6.241  0.9138 -0.2844  2.0410
   96MOL   H13125021   4.813   5.370   6.234 -0.8317 -3.5119  2.2703
   96MOL   C13225022   4.847   5.483   6.432  0.6172  0.2704 -0.0728
   96MOL   N13325023   4.817   5.400   6.551 -0.8264  0.1673 -0.6647
   96MOL   C13425024   4.888   5.402   6.660 -0.2828  0.7178 -0.2716
   96MOL   O13525025   4.980   5.476   6.674  0.5502  0.0232  0.6517
   96MOL   C13625026   4.855   5.299   6.771  0.5009 -0.0845 -0.2988
   96MOL   C13725027   4.709   5.560   6.397 -0.7878  0.0282 -0.6020
   96MOL   H13825028   4.920   5.560   6.457  2.3378 -1.0631 -0.9034
   96MOL   H13925029   4.739   5.339   6.531 -1.5494  1.0735 -0.6358
   96MOL   H14025030   4.879   5.358   6.860  0.4941  3.2025 -2.3642
   96MOL   H14125031   4.750   5.278   6.788  0.6285  0.1815  0.8918
   96MOL   H14225032   4.917   5.210   6.766 -0.9969 -1.1361 -0.2833
   96MOL   H14325033   4.639   5.478   6.380 -0.9027 -0.1046  0.4732
   96MOL   H14425034   4.685   5.619   6.486 -0.5429  1.6326 -1.5829
   96MOL   C14525035   4.705   5.656   6.281 -0.1519 -0.3930  0.2569
   96MOL   N14625036   4.783   5.779   6.287 -0.5813  0.1500 -0.1463
   96MOL   C14725037   4.767   5.884   6.365 -0.2863  0.1266  0.0716
   96MOL   O14825038   4.672   5.891   6.448  0.1609 -0.0913 -0.2342
   96MOL   C14925039   4.861   6.000   6.340 -0.1065  0.4765  0.1237
   96MOL   C15025040   4.562   5.697   6.230  0.8450 -0.6969  0.6939
   96MOL   H15125041   4.755   5.602   6.200 -1.3212 -1.5807  0.3119
   96MOL   H15225042   4.858   5.788   6.219 -0.3688  1.6189  0.2691
   96MOL   H15325043   4.849   6.079   6.414  2.1265  0.3023  0.7237
   96MOL   H15425044   4.967   5.973   6.337 -0.3419 -0.3862 -0.8687
   96MOL   H15525045   4.833   6.032   6.239  0.3611 -0.5309 -0.3348
   96MOL   H15625046   4.503   5.608   6.208 -0.3086 -0.1220  1.3987
   96MOL   H15725047   4.505   5.739   6.313  0.0621 -0.4122  0.0103
   96MOL   C15825048   4.553   5.788   6.100 -1.0237 -0.1332  0.2124
   96MOL   N15925049   4.418   5.777   6.057  0.0775 -0.4992  0.0112
   96MOL   C16025050   4.305   5.819   6.123  0.4450  0.6483  0.6768
   96MOL   O16125051   4.304   5.873   6.233 -0.3798  0.0907 -0.5625
   96MOL   C16225052   4.167   5.794   6.059  0.0864  0.4304 -0.0300
   96MOL   C16325053   4.636   5.735   5.981  0.3814 -0.4578  0.5108
   96MOL   H16425054   4.569   5.895   6.118 -1.5899 -0.3439  2.1552
   96MOL   H16525055   4.412   5.748   5.961 -0.5761 -1.3618  0.3038
   96MOL   H16625056   4.104   5.753   6.138 -1.0309  1.8953 -0.1491
   96MOL   H16725057   4.128   5.888   6.022  0.1213  0.9965  1.3502
   96MOL   H16825058   4.182   5.722   5.978 -2.9224  0.3482 -0.5528
   96MOL   H16925059   4.732   5.693   6.010  0.0388  0.2632  2.8111
   96MOL   H17025060   4.587   5.651   5.932 -0.2672 -0.3454  0.9639
   96MOL   C17125061   4.677   5.836   5.874  0.0601  0.1487 -0.1471
   96MOL   N17225062   4.561   5.906   5.823 -0.2483  0.2979  0.0847
   96MOL   C17325063   4.555   6.021   5.747  0.5169  0.1312 -0.6073
   96MOL   O17425064   4.654   6.081   5.719 -0.6175 -0.3735  0.2086
   96MOL   C17525065   4.424   6.075   5.694  0.0415  0.1532 -0.0947
   96MOL   C17625066   4.763   5.778   5.766  0.6803 -0.7651 -0.6090
   96MOL   H17725067   4.735   5.915   5.922 -0.6564  0.3027  0.4754
   96MOL   H17825068   4.468   5.867   5.825 -0.3976  0.3903 -2.9287
   96MOL   H17925069   4.427   6.179   5.728  1.7942 -0.1732  0.7673
   96MOL   H18025070   4.395   6.070   5.589 -1.8835  2.4745  0.2680
   96MOL   H18125071   4.346   6.024   5.752 -0.7348  0.5957 -0.7290
   96MOL   H18225072   4.703   5.699   5.721 -0.6008  0.0882 -0.4648
   96MOL   H18325073   4.785   5.847   5.684  3.9771  0.0036  0.8533
   96MOL   C18425074   4.898   5.701   5.811  0.5500  0.9249  0.2901
   96MOL   N18525075   4.984   5.786   5.897  0.5698 -0.2543 -0.6777
   96MOL   C18625076   5.024   5.759   6.024  0.4067  0.7816  0.0306
   96MOL   O18725077   4.996   5.657   6.084  0.8166  0.0071  0.0585
   96MOL   C18825078   5.107   5.864   6.099 -0.5239 -0.8356 -0.5003
   96MOL   C18925079   4.982   5.648   5.694 -0.0775  0.6116  0.4686
   96MOL   H19025080   4.870   5.605   5.855  0.5547  1.2576  1.0282
   96MOL   H19125081   5.032   5.867   5.859  1.2425  0.5333  1.7191
   96MOL   H19225082   5.048   5.955   6.108 -2.6787 -2.4275  2.3532
   96MOL   H19325083   5.112   5.830   6.203 -2.2952  2.3448  0.6850
   96MOL   H19425084   5.200   5.887   6.048  0.2019 -0.2813  1.0532
   96MOL   H19525085   5.053   5.725   5.663  2.0493 -2.0114 -1.3682
   96MOL   H19625086   5.051   5.571   5.727 -2.3184 -1.2469  0.9260
   96MOL   C19725087   4.908   5.602   5.566  0.8121 -0.2080 -0.6554
   96MOL   N19825088   4.897   5.452   5.555  0.3339 -0.4733  0.1345
   96MOL   C19925089   4.804   5.368   5.595  0.0063 -0.1809  0.1969
   96MOL   O20025090   4.700   5.411   5.651 -0.1856  0.2561 -0.0359
   96MOL   C20125091   4.828   5.220   5.576 -0.1080 -0.0896  0.2441
   96MOL   C20225092   4.971   5.663   5.437 -0.0699  0.2174  0.5532
   96MOL   H20325093   4.803   5.634   5.566  0.7702 -0.3035 -2.8920
   96MOL   H20425094   4.978   5.409   5.515 -0.1532 -1.5430  0.2722
   96MOL   H20525095   4.925   5.198   5.621  0.4188  4.0119  1.3092
   96MOL   H20625096   4.749   5.160   5.620 -0.5326 -0.9077 -1.5670
   96MOL   H20725097   4.822   5.199   5.469 -1.0905  0.5963  0.1546
   96MOL   H20825098   5.078   5.644   5.445  0.0922  0.5106 -0.7898
   96MOL   H20925099   4.922   5.625   5.347  1.4665  2.5425 -1.3210
   96MOL   C21025100   4.962   5.814   5.408  0.1699 -0.3229 -0.2222
   96MOL   N21125101   4.825   5.848   5.372 -0.0039 -0.5851 -0.4435
   96MOL   C21225102   4.761   5.969   5.397  0.0520  0.6850  0.3804
   96MOL   O21325103   4.829   6.064   5.427  0.2983  0.4929  0.4576
   96MOL   C21425104   4.615   5.986   5.358  0.2428  0.3664  0.0372
   96MOL   C21525105   5.060   5.853   5.300  0.1111  0.1244 -0.6428
   96MOL   H21625106   4.985   5.864   5.503 -0.5837 -1.7189  0.7095
   96MOL   H21725107   4.765   5.781   5.326  0.9468 -1.8234  0.0606
   96MOL   H21825108   4.607   5.991   5.249  0.3613  0.2275  0.0211
   96MOL   H21925109   4.561   5.909   5.413  3.4814 -0.6469  1.9458
   96MOL   H22025110   4.569   6.078   5.392  0.8813  1.1459 -1.1436
   96MOL   H22125111   5.143   5.783   5.311  0.3882  0.7206  1.2422
   96MOL   H22225112   5.025   5.830   5.199  1.0505  3.0865 -1.7082
   96MOL   C22325113   5.093   6.002   5.282 -0.6153  0.4568  0.1117
   96MOL   N22425114   5.180   6.021   5.165 -0.2254  0.0788 -0.2640
   96MOL   C22525115   5.136   6.063   5.044 -0.0368  0.7945  0.2263
   96MOL   O22625116   5.018   6.086   5.013 -0.1105  0.2940 -0.6372
   96MOL   C22725117   5.238   6.099   4.939 -0.4015 -0.5049  0.1627
   96MOL   C22825118   5.150   6.066   5.413 -0.2369  0.5332 -0.2895
   96MOL   H22925119   4.993   6.041   5.265 -0.6593 -0.0232 -0.7480
   96MOL   H23025120   5.279   6.001   5.174 -0.4186 -1.7271 -1.6890
   96MOL   H23125121   5.199   6.170   4.866 -1.3595 -0.7659  0.4031
   96MOL   H23225122   5.315   6.144   5.001 -0.5037 -0.5698  0.3359
   96MOL   H23325123   5.270   6.012   4.882 -0.1573 -0.2288 -0.1216
   96MOL   H23425124   5.184   6.169   5.395  0.4676  0.0293 -1.9902
   96MOL   H23525125   5.063   6.085   5.476  0.0309  0.4442  0.1084
   96MOL   C23625126   5.257   5.988   5.493  0.3105 -0.6136 -1.1185
   96MOL   N23725127   5.289   6.063   5.617  0.6121  0.4570  0.8127
   96MOL   C23825128   5.236   6.031   5.735  0.0513 -0.0495 -0.9414
   96MOL   O23925129   5.152   5.948   5.754  0.2363  0.0613  0.1605
   96MOL   C24025130   5.287   6.108   5.847  0.4520  0.4544  0.8130
   96MOL   C24125131   5.384   5.956   5.417  0.3135  0.0146 -0.6053
   96MOL   H24225132   5.218   5.890   5.521  2.8781 -1.1928  0.5965
   96MOL   H24325133   5.370   6.124   5.617  0.0499  1.2150  0.9172
   96MOL   H24425134   5.366   6.073   5.913  0.4680  1.8881  1.5663
   96MOL   H24525135   5.329   6.199   5.805  1.4164 -0.4226 -0.1860
   96MOL   H24625136   5.212   6.124   5.924  0.4363 -0.1393  0.9225
   96MOL   H24725137   5.353   5.880   5.346  2.0071 -0.5764 -0.7343
   96MOL   H24825138   5.431   6.031   5.353 -0.0826  0.7782 -0.0049
   96MOL   C24925139   5.495   5.877   5.488  0.5351  0.3245  0.5732
   96MOL   N25025140   5.587   5.839   5.375 -0.8278  0.3684 -0.8202
   96MOL   C25125141   5.722   5.838   5.381 -0.6008 -0.3691 -0.2386
   96MOL   O25225142   5.789   5.812   5.284  0.6945  0.1057 -0.3673
   96MOL   C25325143   5.794   5.860   5.516  0.5680  0.4018  0.0818
   96MOL   C25425144   5.448   5.755   5.561  0.2204  0.5369  0.0509
   96MOL   H25525145   5.556   5.944   5.549  1.5799  0.0454 -0.1437
   96MOL   H25625146   5.550   5.836   5.282 -0.2583 -0.3679 -1.0250
   96MOL   H25725147   5.785   5.968   5.529 -1.3174  0.0393  1.9819
   96MOL   H25825148   5.737   5.804   5.590 -0.9488 -2.2285 -2.9611
   96MOL   H25925149   5.898   5.831   5.508  0.6225  0.3655  0.9049
   96MOL   H26025150   5.388   5.774   5.650 -0.8527  2.9183 -1.1622
   96MOL   H26125151   5.385   5.701   5.490  0.1947  1.0980 -0.3561
   96MOL   H26225152   5.529   5.690   5.595 -2.7843 -3.1455  0.4929
   97MOL     C125153   0.751   6.858   3.940 -0.2771 -0.3419  0.1394
   97MOL     N225154   0.642   6.761   3.953 -0.0796  0.0142  0.0167
   97MOL     C325155   0.621   6.659   3.867  0.4252 -0.5537  0.7761
   97MOL     O425156   0.689   6.642   3.769 -0.4966  1.0715 -0.1277
   97MOL     C525157   0.521   6.551   3.903 -0.0351  0.2885 -0.5094
   97MOL     C625158   0.879   6.825   4.014  0.3798  0.7969 -0.4735
   97MOL     H725159   0.774   6.874   3.835  1.8991 -0.3882  0.5900
   97MOL     H825160   0.578   6.763   4.031 -1.4194  0.4926 -1.0840
   97MOL     H925161   0.434   6.560   3.839  1.4034 -0.6533 -2.6510
   97MOL    H1025162   0.562   6.452   3.882 -1.5644 -0.1526 -1.4441
   97MOL    H1125163   0.491   6.558   4.008 -1.2120 -0.3857 -0.7979
   97MOL    H1225164   0.843   6.822   4.117  2.9524  0.5586  0.4649
   97MOL    H1325165   0.914   6.727   3.980 -2.0050  0.1623 -1.1877
   97MOL    H1425166   0.707   6.951   3.977  1.8903  0.5545  0.5230
   97MOL    C1525167   0.986   6.942   4.000  0.2896  0.1192  0.5931
   97MOL    N1625168   1.032   6.944   3.860  0.3574  0.2894 -0.0337
   97MOL    C1725169   1.019   7.054   3.782 -0.2991  0.1647 -0.2898
   97MOL    O1825170   0.963   7.157   3.819 -0.1200 -1.0228 -0.0022
   97MOL    C1925171   1.073   7.032   3.642 -0.3016 -0.4089  0.9423
   97MOL    C2025172   1.123   6.916   4.081  0.4981  0.1872 -0.1555
   97MOL    H2125173   0.943   7.035   4.036 -1.9408 -0.9198  0.7037
   97MOL    H2225174   1.074   6.862   3.819  1.2122  2.1454 -3.0000
   97MOL    H2325175   1.048   6.933   3.603  0.0903 -0.4318  0.7488
   97MOL    H2425176   1.044   7.111   3.572  0.5187 -1.3108 -0.4488
   97MOL    H2525177   1.182   7.035   3.647 -0.2792 -0.8205  0.7079
   97MOL    H2625178   1.115   6.892   4.187  1.0799  0.6432 -0.0050
   97MOL    H2725179   1.178   6.836   4.030  1.1547  0.0851  0.7064
   97MOL    C2825180   1.214   7.049   4.089 -0.0861  0.2685  1.1236
   97MOL    N2925181   1.356   7.025   4.082  0.1888  0.2024 -0.1150
   97MOL    C3025182   1.444   7.091   4.002 -0.2504  0.4068  0.2013
   97MOL    O3125183   1.416   7.159   3.905  0.3769  0.4820  0.0728
   97MOL    C3225184   1.587   7.079   4.032 -0.3474 -0.4202 -0.2629
   97MOL    C3325185   1.180   7.147   4.201  0.2439  0.1030 -0.4773
   97MOL    H3425186   1.188   7.091   3.992  0.6863  0.4818  1.0064
   97MOL    H3525187   1.391   6.964   4.154 -0.5840 -0.5707 -0.3900
   97MOL    H3625188   1.608   7.084   4.138  0.5195 -3.2559 -0.2713
   97MOL    H3725189   1.619   6.982   3.996  1.1909 -0.0606  0.1157
   97MOL    H3825190   1.636   7.163   3.982 -2.2320  2.3638  2.3448
   97MOL    H3925191   1.071   7.149   4.204  0.2457  0.1691 -0.4615
   97MOL    H4025192   1.208   7.100   4.296  0.9548  2.1590  0.3726
   97MOL    C4125193   1.252   7.288   4.183  0.2031  0.1921 -0.2144
   97MOL    N4225194   1.250   7.362   4.311 -0.6327 -0.5911  0.1486
   97MOL    C4325195   1.355   7.358   4.392 -0.3126 -0.5129 -0.1417
   97MOL    O4425196   1.439   7.272   4.396 -0.1089  0.1334 -0.4650
   97MOL    C4525197   1.366   7.485   4.477 -0.0848  0.0282 -0.0267
   97MOL    C4625198   1.179   7.362   4.064  0.4999 -0.8480  0.4561
   97MOL    H4725199   1.357   7.271   4.157  0.6774 -0.0736  1.7606
   97MOL    H4825200   1.177   7.432   4.316  0.8567  0.9751  0.2577
   97MOL    H4925201   1.267   7.517   4.509  0.0947 -1.1899  1.8417
   97MOL    H5025202   1.438   7.468   4.557 -0.2884 -1.0303 -0.0549
   97MOL    H5125203   1.412   7.568   4.424 -0.6303  0.6670  0.4952
   97MOL    H5225204   1.178   7.298   3.976  1.8280 -0.4761  0.1579
   97MOL    H5325205   1.073   7.369   4.088  0.6182 -1.0909  1.0728
   97MOL    C5425206   1.235   7.501   4.023  0.3068 -0.3532 -0.2536
   97MOL    N5525207   1.193   7.596   4.127  0.0921 -0.4119  0.9790
   97MOL    C5625208   1.270   7.692   4.172 -0.9616 -0.1785 -0.4584
   97MOL    O5725209   1.389   7.715   4.142 -0.0835 -0.6070 -0.1801
   97MOL    C5825210   1.200   7.764   4.291 -0.9206 -0.3293  1.1038
   97MOL    C5925211   1.182   7.548   3.882  0.0550 -0.1640  0.5472
   97MOL    H6025212   1.343   7.496   4.016  0.5185  3.7012 -0.9973
   97MOL    H6125213   1.101   7.597   4.167 -0.3763 -0.8219 -0.0731
   97MOL    H6225214   1.117   7.716   4.343 -2.0747 -0.5007 -0.8498
   97MOL    H6325215   1.280   7.792   4.360  0.2513 -0.5958 -0.1265
   97MOL    H6425216   1.153   0.015   4.254  1.5696  1.0793  1.2585
   97MOL    H6525217   1.103   7.480   3.848 -1.0424  1.8663 -1.0805
   97MOL    H6625218   1.151   7.652   3.890  0.9555  0.2943 -1.5404
   97MOL    C6725219   1.290   7.559   3.774 -0.1834  0.5613  0.1428
   97MOL    N6825220   1.375   7.666   3.816  0.6078  0.0653 -0.2021
   97MOL    C6925221   1.505   7.651   3.838 -0.2248 -0.1354  0.5000
   97MOL    O7025222   1.556   7.547   3.869 -0.2231 -0.1927  0.0245
   97MOL    C7125223   1.589   7.777   3.847 -0.1494  0.1730 -0.3187
   97MOL    C7225224   1.228   7.568   3.632 -0.2315  0.6497  0.3539
   97MOL    H7325225   1.336   7.461   3.788  0.7705  0.4650 -3.3005
   97MOL    H7425226   1.338   7.759   3.802  0.1786 -0.3373 -1.8127
   97MOL    H7525227   1.685   7.769   3.796 -0.1145  1.2694 -0.4327
   97MOL    H7625228   1.532   0.027   3.824  0.3558  0.3248 -0.9986
   97MOL    H7725229   1.626   7.778   3.950 -0.1024 -1.9440 -0.2966
   97MOL    H7825230   1.139   7.631   3.630 -0.6260  0.1048 -2.6685
   97MOL    H7925231   1.305   7.611   3.567  2.0801 -3.6169  0.0901
   97MOL    C8025232   1.204   7.431   3.560 -0.2284 -0.2597 -0.0580
   97MOL    N8125233   1.329   7.356   3.552  0.8663  0.1999  0.5722
   97MOL    C8225234   1.355   7.235   3.497  0.6459 -0.8146  0.2401
   97MOL    O8325235   1.283   7.171   3.421  1.0131 -0.2838 -0.1825
   97MOL    C8425236   1.491   7.180   3.521 -0.5328 -0.1529  0.3174
   97MOL    C8525237   1.124   7.451   3.423  0.4612  0.1901 -0.5499
   97MOL    H8625238   1.136   7.379   3.628 -0.4211  2.5114  1.9381
   97MOL    H8725239   1.401   7.410   3.598  0.7787  2.1050 -1.4489
   97MOL    H8825240   1.513   7.085   3.473  0.1272  0.2747 -0.2377
   97MOL    H8925241   1.562   7.256   3.487 -1.0729  0.6067  0.8537
   97MOL    H9025242   1.507   7.175   3.629  0.1986 -0.5775  0.1995
   97MOL    H9125243   1.112   7.353   3.377  0.3094 -0.0558  0.0039
   97MOL    H9225244   1.021   7.481   3.444  0.4248 -1.2196  1.4882
   97MOL    C9325245   1.188   7.555   3.324 -1.1336  0.4931 -0.5275
   97MOL    N9425246   1.102   7.571   3.211  0.0665 -0.3518 -0.0629
   97MOL    C9525247   1.056   7.690   3.166  0.7102  0.0732  0.7795
   97MOL    O9625248   1.037   7.793   3.236  0.1576  0.1862  0.2412
   97MOL    C9725249   1.020   7.702   3.016  0.3971 -0.4250 -0.6262
   97MOL    C9825250   1.336   7.538   3.278 -0.4318  0.5920  0.6356
   97MOL    H9925251   1.183   7.648   3.381  1.2212  0.0704  0.4290
   97MOL   H10025252   1.092   7.491   3.151 -1.4196  0.8576 -1.4759
   97MOL   H10125253   1.095   7.648   2.959 -0.4073 -1.3575 -0.8258
   97MOL   H10225254   0.917   7.672   2.996 -0.5391  2.6393 -0.6473
   97MOL   H10325255   1.018   7.808   2.993  0.0038 -0.3647 -0.3292
   97MOL   H10425256   1.370   7.639   3.251 -3.2073  1.3318 -0.1789
   97MOL   H10525257   1.392   7.524   3.371 -1.7764 -1.3173  1.1870
   97MOL   C10625258   1.363   7.438   3.163  0.2851 -0.0587 -0.6367
   97MOL   N10725259   1.285   7.316   3.180  0.7512 -0.2275 -0.1544
   97MOL   C10825260   1.194   7.272   3.093 -0.2823  0.3977 -0.2071
   97MOL   O10925261   1.151   7.338   3.001  0.2798  0.6842 -0.2504
   97MOL   C11025262   1.134   7.129   3.109 -1.0149  0.7385  0.1922
   97MOL   C11125263   1.515   7.419   3.147 -0.1971 -0.7312  0.1081
   97MOL   H11225264   1.337   7.493   3.073 -1.4780 -1.3804 -0.9579
   97MOL   H11325265   1.282   7.273   3.271 -0.0645  0.4057  0.1237
   97MOL   H11425266   1.038   7.139   3.159 -0.2007 -1.2616  2.2318
   97MOL   H11525267   1.111   7.092   3.009 -0.0002 -1.4995  0.7618
   97MOL   H11625268   1.199   7.055   3.155 -1.4947  0.6520  0.7285
   97MOL   H11725269   1.543   7.375   3.243 -0.4576 -0.3333  0.3664
   97MOL   H11825270   1.527   7.344   3.069 -0.2701 -0.0375 -0.5673
   97MOL   C11925271   1.597   7.543   3.107  0.3412 -0.1785  1.2786
   97MOL   N12025272   1.550   7.596   2.978  0.2272  0.5026 -0.2309
   97MOL   C12125273   1.484   7.704   2.942  0.0738  0.0928  0.2635
   97MOL   O12225274   1.432   7.780   3.024 -0.4356  0.7892 -0.1046
   97MOL   C12325275   1.458   7.713   2.798 -0.5062 -0.0567 -0.0979
   97MOL   C12425276   1.750   7.520   3.098 -0.5558 -0.2933 -0.0636
   97MOL   H12525277   1.566   7.609   3.188  0.1912  0.3744  0.7743
   97MOL   H12625278   1.568   7.530   2.904  0.0967 -2.0781  1.9764
   97MOL   H12725279   1.419   7.812   2.774  0.9944  0.7697  0.8454
   97MOL   H12825280   1.549   7.693   2.741 -1.1380 -1.3981 -0.6610
   97MOL   H12925281   1.377   7.642   2.779 -0.6496  0.1769 -0.3562
   97MOL   H13025282   1.786   7.441   3.032  1.2618  0.9596 -0.6196
   97MOL   H13125283   1.783   7.619   3.066  0.7393  0.1014  2.3865
   97MOL   C13225284   1.804   7.498   3.246 -0.4892  0.5974  0.9140
   97MOL   N13325285   1.829   7.627   3.318  0.6026  0.3818 -0.0307
   97MOL   C13425286   1.750   7.676   3.410 -0.5059 -0.0098  0.2728
   97MOL   O13525287   1.651   7.622   3.455  0.0114 -0.3726  0.1544
   97MOL   C13625288   1.810   7.793   3.484 -0.6088 -0.1243 -0.3737
   97MOL   C13725289   1.927   7.408   3.243 -0.0148 -0.4930  0.8118
   97MOL   H13825290   1.729   7.437   3.297 -0.1771 -1.6577 -1.2205
   97MOL   H13925291   1.922   7.667   3.310  0.5764  0.1907 -1.4076
   97MOL   H14025292   1.787   7.776   3.589  2.1238  0.6024  0.3927
   97MOL   H14125293   1.919   7.787   3.481 -0.5886 -0.9391  1.2903
   97MOL   H14225294   1.772   0.054   3.466 -0.8763 -0.3868 -1.2655
   97MOL   H14325295   1.909   7.347   3.155  0.6124  1.1343 -0.4815
   97MOL   H14425296   2.009   7.478   3.226 -0.2631 -0.4938 -0.4450
   97MOL   C14525297   1.951   7.329   3.374 -0.0388  0.7638  0.6909
   97MOL   N14625298   1.989   7.423   3.490  0.0691 -0.4795  0.0483
   97MOL   C14725299   1.918   7.427   3.608  0.0637 -0.2577  0.4332
   97MOL   O14825300   1.810   7.368   3.626 -0.2324 -0.4938 -0.0376
   97MOL   C14925301   1.977   7.503   3.726  0.4456  0.3009  0.2052
   97MOL   C15025302   2.075   7.239   3.363 -0.2735  0.6931  0.1404
   97MOL   H15125303   1.864   7.269   3.400 -0.6273  0.8589 -1.0319
   97MOL   H15225304   2.083   7.458   3.493 -0.8579  2.1633 -1.0598
   97MOL   H15325305   1.946   7.607   3.719  0.6354  0.1841 -2.8246
   97MOL   H15425306   1.933   7.458   3.815  0.3742  0.0527  0.0455
   97MOL   H15525307   2.084   7.497   3.708  0.4305  4.2464 -1.5735
   97MOL   H15625308   2.155   7.299   3.319 -0.5820  0.3328 -0.9298
   97MOL   H15725309   2.104   7.204   3.462 -3.7955  0.3295  1.1093
   97MOL   C15825310   2.053   7.129   3.264 -0.3841  0.3103  0.7148
   97MOL   N15925311   1.936   7.040   3.299  0.7174  0.1994 -0.2314
   97MOL   C16025312   1.849   6.993   3.209 -0.4239 -0.5218  0.4149
   97MOL   O16125313   1.860   7.022   3.089 -0.4692 -0.7362 -0.1937
   97MOL   C16225314   1.757   6.886   3.263  0.3345  0.9761  0.0258
   97MOL   C16325315   2.179   7.045   3.229 -0.6673 -0.7605 -0.7522
   97MOL   H16425316   2.032   7.179   3.169  0.4413  0.0978  0.4214
   97MOL   H16525317   1.923   7.013   3.395 -2.9234 -0.5233 -0.8545
   97MOL   H16625318   1.658   6.891   3.219  1.4135  1.1630 -2.4746
   97MOL   H16725319   1.812   6.798   3.229  1.1670  2.2886 -2.1305
   97MOL   H16825320   1.751   6.890   3.371  0.6655  1.9726  0.0103
   97MOL   H16925321   2.213   6.990   3.317 -0.5204 -0.3833 -0.5738
   97MOL   H17025322   2.148   6.968   3.158 -1.5635 -0.4810 -0.6734
   97MOL   C17125323   2.292   7.114   3.153  0.1816  0.1116 -0.5803
   97MOL   N17225324   2.239   7.173   3.027 -0.3188  0.2958  0.1446
   97MOL   C17325325   2.227   7.301   3.016  0.4407  0.1937  0.2777
   97MOL   O17425326   2.263   7.384   3.103 -0.1090  0.0739  0.1643
   97MOL   C17525327   2.165   7.358   2.887  0.5648  0.1823  0.4510
   97MOL   C17625328   2.414   7.025   3.121 -0.3081 -0.4412 -0.2263
   97MOL   H17725329   2.336   7.187   3.220  0.3494 -2.3787  2.1289
   97MOL   H17825330   2.213   7.112   2.951  2.2999  2.0654 -2.2761
   97MOL   H17925331   2.230   7.331   2.803  0.0045 -0.2425  0.1475
   97MOL   H18025332   2.066   7.323   2.856 -0.0236  3.2405 -1.2438
   97MOL   H18125333   2.156   7.466   2.897 -0.4119  0.3585 -2.0440
   97MOL   H18225334   2.470   7.004   3.212  0.2093 -0.8178 -0.6281
   97MOL   H18325335   2.375   6.931   3.081 -1.7895 -1.0471  2.4497
   97MOL   C18425336   2.506   7.087   3.009 -0.0210  0.3914 -0.2873
   97MOL   N18525337   2.603   6.987   2.964 -0.4936 -0.1574 -0.5212
   97MOL   C18625338   2.713   6.929   3.020  0.0362  0.1722  0.0879
   97MOL   O18725339   2.798   6.867   2.954 -0.3370 -0.0954 -0.7229
   97MOL   C18825340   2.720   6.921   3.166  0.9822  0.4791  0.2338
   97MOL   C18925341   2.587   7.220   3.047  0.4380  0.3407 -0.0356
   97MOL   H19025342   2.450   7.107   2.918  0.2133 -0.6290 -0.6568
   97MOL   H19125343   2.592   6.963   2.867 -0.6179  1.1855 -0.8422
   97MOL   H19225344   2.643   6.860   3.214  0.4353  0.1113 -1.0798
   97MOL   H19325345   2.814   6.885   3.207  0.5997  0.1010  0.7790
   97MOL   H19425346   2.711   7.017   3.217 -2.4407 -0.1135  0.9264
   97MOL   H19525347   2.528   7.265   3.126 -0.4196 -0.7912 -0.0136
   97MOL   H19625348   2.686   7.204   3.089  0.1885 -1.3797 -0.0836
   97MOL   C19725349   2.592   7.325   2.934  0.0378 -0.7056  0.2899
   97MOL   N19825350   2.642   7.270   2.806  0.2853  0.0625  0.2286
   97MOL   C19925351   2.589   7.299   2.686 -0.2309 -0.2899 -0.4142
   97MOL   O20025352   2.502   7.378   2.665  0.0207 -0.1277 -0.2176
   97MOL   C20125353   2.634   7.224   2.562 -0.6722  0.0752 -0.4441
   97MOL   C20225354   2.662   7.457   2.975 -0.3297  0.4521  0.4125
   97MOL   H20325355   2.489   7.356   2.915  0.4151  1.7235  2.1012
   97MOL   H20425356   2.721   7.208   2.810  0.8645  0.5697 -2.3351
   97MOL   H20525357   2.582   7.129   2.546  0.8388 -0.8997  0.2680
   97MOL   H20625358   2.620   7.296   2.482 -1.0823 -0.4384 -0.8432
   97MOL   H20725359   2.739   7.204   2.583 -0.5498 -0.4108 -1.4983
   97MOL   H20825360   2.741   7.432   3.045  0.3463  2.3849  0.3694
   97MOL   H20925361   2.704   7.500   2.883 -1.2730  0.7217  0.1054
   97MOL   C21025362   2.575   7.572   3.044 -0.7634  0.1012 -0.4202
   97MOL   N21125363   2.511   7.523   3.159 -0.0188  0.4306  0.2746
   97MOL   C21225364   2.571   7.497   3.272 -0.5931  0.9081 -0.0961
   97MOL   O21325365   2.689   7.527   3.299  0.0786 -0.1208  0.0591
   97MOL   C21425366   2.495   7.415   3.374  0.7913  0.0727  0.5157
   97MOL   C21525367   2.463   7.625   2.948  0.2566  0.3912 -0.4760
   97MOL   H21625368   2.640   7.657   3.068 -1.1321  0.3738 -0.3748
   97MOL   H21725369   2.419   7.488   3.140 -1.1835  3.9522 -0.9871
   97MOL   H21825370   2.393   7.453   3.380  1.8324  2.7055  2.3859
   97MOL   H21925371   2.502   7.308   3.357 -0.8752 -0.0569  0.5599
   97MOL   H22025372   2.531   7.448   3.471  0.6021  2.8021 -0.3077
   97MOL   H22125373   2.500   7.635   2.846 -1.4158 -0.1873 -1.1442
   97MOL   H22225374   2.395   7.543   2.928  1.1550 -0.4834  0.0095
   97MOL   C22325375   2.391   7.756   2.992  0.1278 -0.1747 -0.0967
   97MOL   N22425376   2.260   7.762   2.923  0.1692  0.0610  0.0065
   97MOL   C22525377   2.137   7.766   2.975  0.8616  0.2784 -0.3447
   97MOL   O22625378   2.121   7.740   3.095 -0.4022 -0.0992 -0.4725
   97MOL   C22725379   2.013   7.801   2.886 -0.2926 -0.0236  0.1077
   97MOL   C22825380   2.482   0.037   2.967  0.2312 -0.2475  0.1750
   97MOL   H22925381   2.364   7.757   3.098 -0.7984 -0.4889 -0.3187
   97MOL   H23025382   2.268   7.789   2.826  0.3924  2.4640  0.6778
   97MOL   H23125383   1.923   7.746   2.915  0.3431 -0.5331  1.1784
   97MOL   H23225384   1.980   0.065   2.894 -0.8444 -0.1368 -0.6379
   97MOL   H23325385   2.040   7.783   2.782 -1.6504  0.0341 -0.2669
   97MOL   H23425386   2.585   0.006   2.985  0.2007  0.6290  1.8808
   97MOL   H23525387   2.467   0.056   2.860  0.3146  2.4590  0.6145
   97MOL   C23625388   2.452   0.156   3.056 -0.0178 -0.0735 -0.0810
   97MOL   N23725389   2.532   0.275   2.999  0.2868  0.0842 -0.0555
   97MOL   C23825390   2.663   0.285   2.996  0.4589  0.7606 -0.6928
   97MOL   O23925391   2.731   0.191   3.037  0.1987  0.0297 -0.0839
   97MOL   C24025392   2.723   0.411   2.955  0.0245 -0.4738  0.0154
   97MOL   C24125393   2.490   0.138   3.205  0.3528  0.7593 -0.8716
   97MOL   H24225394   2.344   0.174   3.051 -0.4804 -1.6361  3.3965
   97MOL   H24325395   2.482   0.356   2.966 -0.9797  0.0087  1.6158
   97MOL   H24425396   2.733   0.481   3.038 -0.4933  1.3324 -1.3952
   97MOL   H24525397   2.829   0.394   2.937 -0.0903 -1.9698  0.6833
   97MOL   H24625398   2.663   0.451   2.873 -1.2315 -1.9767  0.1880
   97MOL   H24725399   2.549   0.047   3.217 -1.7005 -0.5119 -0.1264
   97MOL   H24825400   2.570   0.206   3.233 -0.5845  1.1177  1.0494
   97MOL   C24925401   2.382   0.148   3.314  0.3239  0.1904 -0.0592
   97MOL   N25025402   2.287   0.033   3.314 -0.9615 -0.0940  0.5017
   97MOL   C25125403   2.278   7.775   3.403  0.0544 -0.1902 -0.7048
   97MOL   O25225404   2.344   7.771   3.508 -0.1665  0.2934  0.5923
   97MOL   C25325405   2.185   7.658   3.380  0.0029  0.2405  0.3908
   97MOL   C25425406   2.300   0.280   3.305  0.7164  0.6891  0.1051
   97MOL   H25525407   2.432   0.142   3.411  0.0155 -4.0035 -0.0774
   97MOL   H25625408   2.236   0.031   3.227 -1.9400  0.1682  1.0703
   97MOL   H25725409   2.224   7.597   3.299 -0.0988  0.3705  0.2441
   97MOL   H25825410   2.163   7.599   3.469 -0.0705 -0.7889 -0.3017
   97MOL   H25925411   2.088   7.694   3.345 -0.4171 -0.6221  0.6677
   97MOL   H26025412   2.239   0.286   3.215  0.4204 -2.1330  0.0484
   97MOL   H26125413   2.223   0.293   3.381 -0.3274  2.8436 -1.2674
   97MOL   H26225414   2.355   0.373   3.298 -1.6031  2.2036  1.2450
   98MOL     C125415   1.928   0.843   4.395 -0.4351 -0.3528  0.4354
   98MOL     N225416   1.827   0.860   4.495  0.0842  0.5536 -0.2338
   98MOL     C325417   1.788   0.984   4.542 -0.9930 -0.0239 -0.7468
   98MOL     O425418   1.843   1.089   4.513 -0.5808 -0.1377 -0.0635
   98MOL     C525419   1.673   0.996   4.635  0.2903 -0.2655 -0.4799
   98MOL     C625420   2.051   0.781   4.459 -0.3281  0.2623  0.6029
   98MOL     H725421   1.890   0.770   4.323  0.8925 -0.8555  0.2254
   98MOL     H825422   1.767   0.779   4.506 -2.4716  2.3082 -0.6460
   98MOL     H925423   1.628   1.092   4.607  0.3519  0.8237  2.9348
   98MOL    H1025424   1.590   0.929   4.612 -0.2087 -0.1588  0.9898
   98MOL    H1125425   1.708   1.001   4.738 -1.4723  1.4850  0.0664
   98MOL    H1225426   2.078   0.835   4.549 -0.0802  1.5331 -0.2228
   98MOL    H1325427   2.022   0.680   4.490 -2.3850  0.9798  1.1184
   98MOL    H1425428   1.953   0.928   4.331  0.9050 -0.6615  0.5468
   98MOL    C1525429   2.171   0.764   4.360 -0.9245 -0.2968  0.2120
   98MOL    N1625430   2.126   0.716   4.227  0.0171 -0.6271 -0.0941
   98MOL    C1725431   2.158   0.777   4.118  0.1583  0.4691  0.3015
   98MOL    O1825432   2.227   0.876   4.113  0.2364 -0.0229 -0.4344
   98MOL    C1925433   2.103   0.720   3.989 -0.0308 -0.5846 -0.3497
   98MOL    C2025434   2.273   0.663   4.420 -0.3192  0.1108 -0.3031
   98MOL    H2125435   2.231   0.853   4.339 -0.8001  0.0764  2.0711
   98MOL    H2225436   2.068   0.633   4.222 -1.3847  0.3374 -0.1340
   98MOL    H2325437   2.187   0.698   3.922 -1.3554  0.0310 -2.2506
   98MOL    H2425438   2.022   0.647   3.983 -2.1684  1.9084 -2.6021
   98MOL    H2525439   2.068   0.812   3.943 -1.3562  1.4571  4.4681
   98MOL    H2625440   2.229   0.564   4.411 -0.1444  0.1651 -1.9155
   98MOL    H2725441   2.352   0.661   4.345  1.5854  0.5757  1.6274
   98MOL    C2825442   2.336   0.708   4.556  0.3060 -0.7304 -0.2940
   98MOL    N2925443   2.477   0.684   4.556  0.3086  0.2004 -0.1086
   98MOL    C3025444   2.569   0.778   4.598  0.5415 -0.3804 -0.0473
   98MOL    O3125445   2.536   0.887   4.642 -0.6024 -0.1351  0.7100
   98MOL    C3225446   2.711   0.729   4.605  0.1025  0.1323 -0.5451
   98MOL    C3325447   2.268   0.628   4.678 -0.2666 -0.1713 -0.1001
   98MOL    H3425448   2.322   0.815   4.571  0.3119 -0.7514 -0.1313
   98MOL    H3525449   2.514   0.597   4.520  1.3603  0.3936  0.4915
   98MOL    H3625450   2.788   0.806   4.615 -0.3902  0.3920  1.4829
   98MOL    H3725451   2.729   0.662   4.689 -0.4970  0.4999 -0.1228
   98MOL    H3825452   2.739   0.674   4.515 -1.2212  0.3579 -1.1129
   98MOL    H3925453   2.177   0.683   4.700  0.4183  1.0234 -0.2437
   98MOL    H4025454   2.234   0.532   4.639  0.8626 -0.3412 -0.6747
   98MOL    C4125455   2.349   0.606   4.809  0.1574 -0.0996 -0.0008
   98MOL    N4225456   2.302   0.492   4.895 -0.0449  0.2612 -0.5244
   98MOL    C4325457   2.373   0.383   4.913  0.0697 -0.2574 -0.4355
   98MOL    O4425458   2.483   0.360   4.869  0.6399  0.0425 -0.4317
   98MOL    C4525459   2.295   0.288   4.996  0.6072  0.0280 -0.1581
   98MOL    C4625460   2.347   0.738   4.891 -0.4426 -0.3799 -0.4820
   98MOL    H4725461   2.453   0.584   4.785 -0.1376  0.7109 -2.0856
   98MOL    H4825462   2.211   0.504   4.937 -0.4254  0.4937 -1.3979
   98MOL    H4925463   2.371   0.230   5.050  0.2727  0.9779  1.3626
   98MOL    H5025464   2.227   0.339   5.064 -0.1243 -1.2499  0.0859
   98MOL    H5125465   2.238   0.231   4.922 -3.0374 -0.2886  2.7199
   98MOL    H5225466   2.328   0.824   4.828  0.7441  0.8210  0.7522
   98MOL    H5325467   2.271   0.720   4.967  0.7354 -1.1593  0.5520
   98MOL    C5425468   2.480   0.780   4.961 -0.2231  0.6063 -0.2165
   98MOL    N5525469   2.519   0.675   5.064 -0.3085 -0.8123  0.0881
   98MOL    C5625470   2.636   0.620   5.098  0.1044  0.2512 -0.1400
   98MOL    O5725471   2.748   0.664   5.064  0.0917  0.0615 -0.3040
   98MOL    C5825472   2.623   0.489   5.168  0.7398  0.1137 -0.8843
   98MOL    C5925473   2.473   0.917   5.041 -0.3375 -0.4086  0.0264
   98MOL    H6025474   2.561   0.786   4.889 -0.0641 -0.1568 -0.1032
   98MOL    H6125475   2.448   0.618   5.108  0.6425 -1.2793  1.0326
   98MOL    H6225476   2.525   0.453   5.199  1.4594 -1.0011  0.1149
   98MOL    H6325477   2.668   0.417   5.100  1.3504  0.8486 -1.2664
   98MOL    H6425478   2.679   0.508   5.259 -1.2150 -0.2707  0.4235
   98MOL    H6525479   2.392   0.903   5.112 -1.4896  0.8101 -1.0334
   98MOL    H6625480   2.574   0.918   5.082 -1.0453 -0.5247  1.7931
   98MOL    C6725481   2.445   1.042   4.942  0.6627 -0.0589  0.0087
   98MOL    N6825482   2.557   1.065   4.850  0.0696 -0.7435  1.2623
   98MOL    C6925483   2.664   1.146   4.865 -0.5231  0.4461  0.5615
   98MOL    O7025484   2.694   1.207   4.970 -0.4079  0.4454 -0.1667
   98MOL    C7125485   2.766   1.145   4.757  1.0068 -0.2876 -0.3193
   98MOL    C7225486   2.399   1.165   5.029 -0.1135  0.3114  0.1382
   98MOL    H7325487   2.360   1.025   4.875 -1.7720  2.1499  2.3684
   98MOL    H7425488   2.553   1.012   4.764  0.3554  0.2260  0.6512
   98MOL    H7525489   2.870   1.162   4.785  0.8505 -1.2754  0.9178
   98MOL    H7625490   2.760   1.046   4.712 -1.6949 -0.3191 -0.0148
   98MOL    H7725491   2.743   1.215   4.677 -0.9095 -2.8399 -2.0815
   98MOL    H7825492   2.463   1.183   5.115 -0.8230  0.8617  0.5541
   98MOL    H7925493   2.406   1.257   4.972 -1.1638  0.4241  0.1809
   98MOL    C8025494   2.258   1.148   5.085 -0.1813  0.3260 -0.4586
   98MOL    N8125495   2.164   1.163   4.979 -0.2401  0.3996  0.7524
   98MOL    C8225496   2.101   1.067   4.911 -0.0671  0.1981 -0.1805
   98MOL    O8325497   2.114   0.943   4.915  0.5490  0.0103  0.2423
   98MOL    C8425498   1.996   1.120   4.814  0.6950 -0.3659 -0.0609
   98MOL    C8525499   2.221   1.238   5.205 -0.2011 -0.0909 -0.1174
   98MOL    H8625500   2.248   1.051   5.133 -0.0327  0.0369 -1.0169
   98MOL    H8725501   2.132   1.254   4.949  0.9133 -0.0691 -2.0637
   98MOL    H8825502   2.004   1.086   4.710  5.4329 -0.3383  0.1706
   98MOL    H8925503   1.897   1.085   4.843 -0.4274 -1.6251 -4.8921
   98MOL    H9025504   1.990   1.229   4.818  0.7549 -0.3456 -0.4426
   98MOL    H9125505   2.303   1.253   5.275 -0.7223 -3.0104  1.1983
   98MOL    H9225506   2.195   1.337   5.170  0.1164  0.5458  1.4091
   98MOL    C9325507   2.101   1.192   5.297  0.1241 -0.4237 -0.1511
   98MOL    N9425508   2.080   1.289   5.402 -0.8911  0.2005  0.0011
   98MOL    C9525509   1.961   1.343   5.427  0.3257 -0.3732  0.5189
   98MOL    O9625510   1.861   1.326   5.356 -0.0654 -0.1096  0.2836
   98MOL    C9725511   1.953   1.438   5.547 -0.1202 -0.4802  0.5671
   98MOL    C9825512   2.114   1.051   5.359 -0.3599 -0.4581  0.3860
   98MOL    H9925513   2.014   1.185   5.233 -1.6797  2.0826  1.9618
   98MOL   H10025514   2.131   1.282   5.489 -0.5322 -1.0201 -0.3077
   98MOL   H10125515   2.034   1.433   5.619 -0.2685  0.7292  0.8334
   98MOL   H10225516   1.951   1.543   5.516 -1.2483 -1.2825 -2.3052
   98MOL   H10325517   1.863   1.420   5.606 -0.4606  0.0029  0.2001
   98MOL   H10425518   2.219   1.030   5.383 -0.6033 -2.0575  0.1123
   98MOL   H10525519   2.077   1.065   5.460 -2.1624  0.7813 -0.4359
   98MOL   C10625520   2.040   0.940   5.282  0.2107  0.1400 -0.0722
   98MOL   N10725521   1.903   0.940   5.328  0.5527  0.2410  0.2944
   98MOL   C10825522   1.799   0.975   5.249 -0.2251  0.6810 -0.1603
   98MOL   O10925523   1.813   0.993   5.126 -0.0597 -0.4511  0.0523
   98MOL   C11025524   1.663   0.992   5.311 -0.4976  0.1687 -0.0521
   98MOL   C11125525   2.106   0.801   5.304 -0.0265 -0.4423 -0.5258
   98MOL   H11225526   2.043   0.957   5.175 -1.9415 -2.7599 -0.6671
   98MOL   H11325527   1.888   0.940   5.428 -0.8598  2.8644  0.1298
   98MOL   H11425528   1.596   0.931   5.251  1.0732  0.5149 -2.2432
   98MOL   H11525529   1.662   0.957   5.414  0.2187 -1.0490 -0.4470
   98MOL   H11625530   1.642   1.099   5.315  2.2122  0.7262  0.5077
   98MOL   H11725531   2.210   0.816   5.276  0.7340  0.8706  2.7924
   98MOL   H11825532   2.112   0.796   5.412 -2.0335  5.1303  0.0322
   98MOL   C11925533   2.055   0.672   5.239 -0.9953  0.5822 -1.0312
   98MOL   N12025534   1.980   0.707   5.119 -0.2911  0.6509 -0.4263
   98MOL   C12125535   1.969   0.632   5.008 -0.2380 -0.0690  1.3436
   98MOL   O12225536   2.033   0.525   4.985 -0.2876  0.3971 -0.5560
   98MOL   C12325537   1.893   0.695   4.892  0.1106  0.6353  0.0097
   98MOL   C12425538   1.953   0.607   5.331  0.1797 -0.1358 -0.6035
   98MOL   H12525539   2.145   0.616   5.212 -1.1100  0.3607 -0.9522
   98MOL   H12625540   1.923   0.790   5.123 -1.0846  0.0672  0.4338
   98MOL   H12725541   1.943   0.674   4.798 -1.0152 -0.4036 -0.3605
   98MOL   H12825542   1.796   0.646   4.892  0.6421 -0.5697  3.0620
   98MOL   H12925543   1.873   0.802   4.900 -1.0867  0.4187  0.0081
   98MOL   H13025544   1.889   0.680   5.379  0.3687 -0.9094  0.8526
   98MOL   H13125545   1.876   0.557   5.271  1.6267 -2.3032 -0.7211
   98MOL   C13225546   2.023   0.528   5.448  0.1183 -0.2154 -0.3924
   98MOL   N13325547   2.077   0.401   5.398  0.0493 -0.0719  0.1333
   98MOL   C13425548   2.211   0.374   5.379  0.8430 -0.1067  0.2813
   98MOL   O13525549   2.301   0.463   5.369 -0.4109 -0.3471 -0.7467
   98MOL   C13625550   2.236   0.232   5.355 -0.3620  0.3323 -0.1459
   98MOL   C13725551   1.923   0.485   5.558  0.1715  0.0669 -0.2109
   98MOL   H13825552   2.107   0.586   5.487  0.4047 -1.1778  0.4334
   98MOL   H13925553   2.008   0.330   5.379 -1.8417  1.8577 -0.3854
   98MOL   H14025554   2.176   0.193   5.273 -0.6797  1.8486 -0.6405
   98MOL   H14125555   2.340   0.226   5.322 -0.0160  0.4777  0.9075
   98MOL   H14225556   2.239   0.174   5.447 -1.2902 -0.7193 -0.7668
   98MOL   H14325557   1.842   0.437   5.503 -0.0660 -0.9423  0.9893
   98MOL   H14425558   1.968   0.406   5.618 -0.6005  0.0895  0.4012
   98MOL   C14525559   1.858   0.594   5.639  0.5503  0.4064  0.2572
   98MOL   N14625560   1.955   0.679   5.709  0.4998 -0.0427 -0.7905
   98MOL   C14725561   1.976   0.808   5.683 -0.0073 -0.0687  0.1069
   98MOL   O14825562   1.915   0.866   5.596  0.1647 -0.6014 -0.6723
   98MOL   C14925563   2.086   0.867   5.765 -0.3522  0.4767  0.4781
   98MOL   C15025564   1.767   0.522   5.743 -0.1610  0.3977 -0.9084
   98MOL   H15125565   1.790   0.650   5.575  1.2482 -0.4101 -1.2313
   98MOL   H15225566   2.001   0.643   5.791  2.6522  3.4036 -0.3554
   98MOL   H15325567   2.058   0.844   5.868  1.2993 -0.8826  0.6319
   98MOL   H15425568   2.177   0.810   5.750 -0.5342  0.4707 -0.6153
   98MOL   H15525569   2.095   0.975   5.752 -3.1753  0.6291 -0.6053
   98MOL   H15625570   1.835   0.451   5.790  0.6516  2.1258  0.5701
   98MOL   H15725571   1.715   0.578   5.820 -0.3452  0.3528 -0.9986
   98MOL   C15825572   1.644   0.441   5.689  0.7535 -0.2732  0.5517
   98MOL   N15925573   1.557   0.532   5.613  0.1195  0.7181  0.2451
   98MOL   C16025574   1.467   0.620   5.659  0.2505 -0.2729 -0.2217
   98MOL   O16125575   1.461   0.639   5.779 -0.2160  0.0086  0.7985
   98MOL   C16225576   1.384   0.693   5.560 -0.2885  0.3153  0.0896
   98MOL   C16325577   1.560   0.363   5.797  0.5320 -0.0656  0.0271
   98MOL   H16425578   1.679   0.369   5.614 -1.5660  0.9746 -1.8115
   98MOL   H16525579   1.569   0.516   5.514  0.5669 -1.7221  0.6545
   98MOL   H16625580   1.275   0.689   5.567 -0.2981 -1.6868 -0.8476
   98MOL   H16725581   1.407   0.798   5.541 -1.4267  0.4316 -0.7122
   98MOL   H16825582   1.400   0.637   5.468  2.2523  1.0897  0.0331
   98MOL   H16925583   1.527   0.432   5.875  1.0852 -1.8635  1.9007
   98MOL   H17025584   1.461   0.336   5.761 -0.3043  2.3180  0.4590
   98MOL   C17125585   1.632   0.249   5.869  0.7509 -0.6966 -0.2274
   98MOL   N17225586   1.675   0.160   5.762  0.6239 -0.3269  0.3553
   98MOL   C17325587   1.796   0.106   5.744 -0.9659  0.2152  0.3345
   98MOL   O17425588   1.881   0.084   5.833  0.4119  0.1672 -0.1433
   98MOL   C17525589   1.834   0.087   5.596  0.1614 -0.3692  0.1905
   98MOL   C17625590   1.554   0.184   5.992 -0.1207 -0.4894  0.3337
   98MOL   H17725591   1.715   0.297   5.922 -0.0934 -2.8027  3.1717
   98MOL   H17825592   1.618   0.169   5.679  0.8900 -1.1585  0.0782
   98MOL   H17925593   1.862   7.825   5.568 -0.4205 -0.3162 -0.6013
   98MOL   H18025594   1.758   0.130   5.530 -0.1173  1.9226  1.9570
   98MOL   H18125595   1.906   0.164   5.570  1.2768 -2.0157 -1.8215
   98MOL   H18225596   1.615   0.095   6.011  2.0529  0.5098 -1.7988
   98MOL   H18325597   1.565   0.257   6.071 -2.3722 -1.1430  1.2851
   98MOL   C18425598   1.405   0.141   5.980  0.1437  0.4519  0.1877
   98MOL   N18525599   1.349   0.102   6.117 -0.1142 -0.6477  0.4289
   98MOL   C18625600   1.256   0.175   6.186 -0.7778 -0.1778  0.9352
   98MOL   O18725601   1.242   0.296   6.171  0.2145  0.2543 -0.1809
   98MOL   C18825602   1.155   0.099   6.276  0.0540 -1.0885 -0.1455
   98MOL   C18925603   1.380   0.029   5.883  0.3589 -0.6994 -0.1943
   98MOL   H19025604   1.359   0.234   5.946  1.1344  0.0736 -2.3172
   98MOL   H19125605   1.359   0.008   6.151  2.6987 -0.9261 -1.0163
   98MOL   H19225606   1.089   0.039   6.213 -0.9777 -0.9478  0.8089
   98MOL   H19325607   1.222   0.040   6.339  0.8520 -0.5422 -0.4731
   98MOL   H19425608   1.102   0.164   6.344  0.2830 -1.0756  0.0208
   98MOL   H19525609   1.415   0.055   5.783 -0.8557  1.7311 -0.0297
   98MOL   H19625610   1.447   7.788   5.913 -1.0880 -0.7841  2.9982
   98MOL   C19725611   1.233   7.820   5.867 -0.8111 -0.0130 -0.3346
   98MOL   N19825612   1.225   7.689   5.794  0.1246  0.2055 -0.4842
   98MOL   C19925613   1.253   7.568   5.853  0.3473  0.2772  1.0944
   98MOL   O20025614   1.311   7.559   5.961  0.2258 -0.6262 -0.0400
   98MOL   C20125615   1.235   7.443   5.767  0.0804 -0.6601 -0.0493
   98MOL   C20225616   1.157   0.091   5.795  0.6594  0.9184 -0.1982
   98MOL   H20325617   1.187   7.813   5.966  0.3167  0.4672  0.2334
   98MOL   H20425618   1.190   7.680   5.700 -1.7295  1.1218  0.0936
   98MOL   H20525619   1.151   7.386   5.807 -0.2703  1.9085  3.0884
   98MOL   H20625620   1.210   7.469   5.664 -0.0186  1.5152  0.5000
   98MOL   H20725621   1.312   7.367   5.777 -0.9186 -1.3881  2.7215
   98MOL   H20825622   1.154   0.180   5.858  0.1854  1.0948 -0.4683
   98MOL   H20925623   1.209   0.124   5.705 -0.1560  1.2577 -0.5561
   98MOL   C21025624   1.006   0.060   5.752 -0.2305 -0.2307  0.4366
   98MOL   N21125625   0.990   0.045   5.608  0.5575 -0.6545  0.1819
   98MOL   C21225626   1.020   7.771   5.548  0.2674 -0.1592  0.7944
   98MOL   O21325627   1.052   7.665   5.601  0.1914  0.6087  0.3664
   98MOL   C21425628   1.014   7.770   5.399  0.7638  0.5908  0.1049
   98MOL   C21525629   0.901   0.161   5.808 -0.5392 -0.8864  0.1103
   98MOL   H21625630   0.986   7.806   5.804 -2.7487  0.1222  0.1336
   98MOL   H21725631   0.974   0.118   5.540  4.3962  1.7594  1.6507
   98MOL   H21825632   0.911   7.754   5.366 -0.2357 -0.3678  3.5037
   98MOL   H21925633   1.065   0.010   5.346  0.1571  1.0791  0.2544
   98MOL   H22025634   1.062   7.684   5.352 -0.4980  0.7141 -1.4581
   98MOL   H22125635   0.801   0.124   5.784 -0.0251 -1.6341 -0.9734
   98MOL   H22225636   0.882   0.160   5.915  1.3733 -0.6434  0.4652
   98MOL   C22325637   0.910   0.309   5.768  0.0654  0.4195 -1.0084
   98MOL   N22425638   0.979   0.381   5.874  0.4220 -0.1419 -0.0317
   98MOL   C22525639   1.083   0.463   5.855 -0.5947  0.3748 -0.4220
   98MOL   O22625640   1.155   0.462   5.752 -0.1899 -0.1196  0.0523
   98MOL   C22725641   1.124   0.544   5.981  0.0874  0.0224 -0.0088
   98MOL   C22825642   0.778   0.388   5.733  0.0074 -0.0723  0.5101
   98MOL   H22925643   0.967   0.323   5.677  1.9481  1.2279  0.2623
   98MOL   H23025644   0.942   0.374   5.968  0.5759  3.1076  0.3472
   98MOL   H23125645   1.212   0.506   6.032 -0.2005 -2.8508 -1.5319
   98MOL   H23225646   1.143   0.644   5.942 -1.6819  0.2194 -0.4497
   98MOL   H23325647   1.047   0.543   6.058 -1.0078  3.7045 -0.9378
   98MOL   H23425648   0.711   0.403   5.818 -1.0207  0.0320 -0.3007
   98MOL   H23525649   0.817   0.486   5.707  4.3302 -2.2939 -1.8448
   98MOL   C23625650   0.695   0.323   5.613 -0.6298  0.7509  0.2009
   98MOL   N23725651   0.788   0.335   5.502 -0.2159 -0.2336 -0.1734
   98MOL   C23825652   0.816   0.244   5.411  0.0592  0.2674  0.0868
   98MOL   O23925653   0.761   0.136   5.403  0.0411  0.0468  0.1652
   98MOL   C24025654   0.903   0.288   5.294  0.3798  0.3364 -0.1207
   98MOL   C24125655   0.556   0.398   5.586  0.2710  0.5814 -0.0440
   98MOL   H24225656   0.668   0.219   5.634 -0.1374 -0.0615 -2.9254
   98MOL   H24325657   0.831   0.425   5.492 -0.5933  0.0980  1.1996
   98MOL   H24425658   0.958   0.381   5.312  0.0133  0.6906 -0.8015
   98MOL   H24525659   0.971   0.211   5.258  0.3910  0.3284 -0.0824
   98MOL   H24625660   0.830   0.308   5.216  2.5297  1.4991 -1.9039
   98MOL   H24725661   0.563   0.503   5.615  0.1698  1.7185 -3.8570
   98MOL   H24825662   0.542   0.396   5.478  1.3672  1.4157 -0.2202
   98MOL   C24925663   0.430   0.325   5.648 -0.0857  0.0264  0.4958
   98MOL   N25025664   0.307   0.382   5.587  0.2093  0.3158  0.3878
   98MOL   C25125665   0.249   0.341   5.472 -0.5248 -0.2566  0.3307
   98MOL   O25225666   0.299   0.248   5.399  0.4186  0.0011 -0.1920
   98MOL   C25325667   0.113   0.399   5.427  0.8893  0.3901 -0.5869
   98MOL   C25425668   0.421   0.333   5.807 -0.1886  0.6001  0.3860
   98MOL   H25525669   0.429   0.221   5.615  0.5584 -0.0150  0.6017
   98MOL   H25625670   0.256   0.450   5.642 -1.5591 -0.7474  0.1091
   98MOL   H25725671   0.108   0.422   5.320 -0.1444  0.2726 -0.5693
   98MOL   H25825672   0.029   0.331   5.434 -0.3684  1.9486 -0.3982
   98MOL   H25925673   0.082   0.491   5.474 -0.7869  0.1660 -1.2346
   98MOL   H26025674   0.511   0.298   5.859 -0.5282 -0.3731  0.3126
   98MOL   H26125675   0.405   0.436   5.840  0.0996  0.8158 -0.1229
   98MOL   H26225676   0.344   0.264   5.840  1.5750 -2.4548 -1.5973
   99MOL     C125677   1.921   4.114   1.942 -0.0048  0.4048 -0.5463
   99MOL     N225678   2.018   4.075   1.828  0.3331 -0.1696  0.4959
   99MOL     C325679   2.118   3.984   1.840  0.2833 -0.0704 -0.5247
   99MOL     O425680   2.134   3.919   1.941  0.6138 -0.0910 -0.3761
   99MOL     C525681   2.215   3.975   1.722  0.3714  1.3262 -0.3798
   99MOL     C625682   1.784   4.176   1.897 -0.0128  0.0432  0.7526
   99MOL     H725683   1.902   4.013   1.979  1.4853 -0.3899 -1.8588
   99MOL     H825684   2.009   4.132   1.746  2.6243  0.9122  0.9677
   99MOL     H925685   2.224   3.867   1.713  1.3790  1.2112  1.5796
   99MOL    H1025686   2.173   4.013   1.629 -1.2192  2.6616  0.8511
   99MOL    H1125687   2.314   4.005   1.756  0.3641  1.7366 -0.7220
   99MOL    H1225688   1.760   4.249   1.975  1.2420  1.1732  0.0965
   99MOL    H1325689   1.795   4.244   1.813 -1.6613  0.6927  1.0378
   99MOL    H1425690   1.972   4.176   2.015  2.4685 -0.2694 -1.6024
   99MOL    C1525691   1.670   4.079   1.867 -0.1623  0.0136 -0.2938
   99MOL    N1625692   1.648   3.992   1.982 -0.5907 -0.2501 -0.4126
   99MOL    C1725693   1.537   3.962   2.042  0.1800  0.7124  0.0542
   99MOL    O1825694   1.429   3.981   1.994 -0.3217  0.5987  0.3564
   99MOL    C1925695   1.547   3.890   2.176 -0.2572  0.2934 -0.8576
   99MOL    C2025696   1.683   3.990   1.739 -1.4585 -0.4252 -0.3400
   99MOL    H2125697   1.587   4.148   1.851 -0.5072 -0.6720 -1.4903
   99MOL    H2225698   1.726   3.942   2.021 -1.0000 -0.2251  0.4701
   99MOL    H2325699   1.598   3.957   2.245 -0.4384 -0.1526 -0.2796
   99MOL    H2425700   1.451   3.848   2.207  0.8528 -1.5603  0.1994
   99MOL    H2525701   1.592   3.793   2.157  1.8860  1.4640 -1.8863
   99MOL    H2625702   1.732   4.054   1.666 -1.0345 -0.8916 -0.4656
   99MOL    H2725703   1.760   3.915   1.753 -0.5497  0.5668  0.0610
   99MOL    C2825704   1.548   3.930   1.687 -0.2373  0.0617  0.1484
   99MOL    N2925705   1.593   3.862   1.566  0.1273 -0.0481 -0.3907
   99MOL    C3025706   1.540   3.747   1.516  0.5378  0.0783  0.3112
   99MOL    O3125707   1.458   3.679   1.578 -0.4900  0.0823 -0.5101
   99MOL    C3225708   1.598   3.701   1.384 -0.3477  0.1146 -0.4277
   99MOL    C3325709   1.441   4.039   1.651  0.2727  0.0970 -0.0533
   99MOL    H3425710   1.519   3.857   1.762  0.6858  0.3645  0.7983
   99MOL    H3525711   1.671   3.907   1.519 -1.0426  1.9613 -0.4793
   99MOL    H3625712   1.624   3.791   1.327 -2.9981  1.9698  1.1652
   99MOL    H3725713   1.690   3.644   1.394  0.7683  1.8205 -0.8302
   99MOL    H3825714   1.515   3.640   1.347 -2.5854  0.6797  3.3917
   99MOL    H3925715   1.409   4.097   1.738 -0.7410 -0.4506 -0.0625
   99MOL    H4025716   1.486   4.116   1.588  2.4324 -1.0066  0.0801
   99MOL    C4125717   1.306   3.987   1.590  0.0602 -0.3532 -0.5656
   99MOL    N4225718   1.222   4.092   1.537  0.3768  0.4081 -0.2622
   99MOL    C4325719   1.226   4.154   1.416 -0.3361  0.7224 -0.0463
   99MOL    O4425720   1.307   4.123   1.327  0.0004 -0.3867 -0.0672
   99MOL    C4525721   1.137   4.279   1.399  0.4875 -0.2577  0.6567
   99MOL    C4625722   1.228   3.900   1.688  0.2530  1.3693  0.4908
   99MOL    H4725723   1.341   3.928   1.505  0.9579 -1.1358  0.3371
   99MOL    H4825724   1.157   4.135   1.602  0.4040  0.6279 -0.3811
   99MOL    H4925725   1.171   4.348   1.321 -0.5593 -1.0374 -0.4979
   99MOL    H5025726   1.032   4.254   1.387  0.4403 -0.3081  1.1562
   99MOL    H5125727   1.148   4.337   1.491 -0.8967  1.3577 -0.1791
   99MOL    H5225728   1.168   3.828   1.633  1.9749  1.2277 -1.2580
   99MOL    H5325729   1.297   3.835   1.741 -0.7823 -0.1305  0.0438
   99MOL    C5425730   1.125   3.973   1.784 -0.0986  0.2949 -0.1579
   99MOL    N5525731   1.194   4.081   1.858  0.0818  0.5753  0.9144
   99MOL    C5625732   1.174   4.214   1.851  0.1897 -0.1398  0.3774
   99MOL    O5725733   1.087   4.265   1.785  0.4482 -0.2758  0.2033
   99MOL    C5825734   1.284   4.298   1.918 -0.4086  0.4049  0.2428
   99MOL    C5925735   1.060   3.878   1.890 -0.0714  0.4185  0.4842
   99MOL    H6025736   1.049   4.020   1.722 -0.2890 -0.1983 -0.3009
   99MOL    H6125737   1.263   4.042   1.920 -3.2303 -3.2682  2.4027
   99MOL    H6225738   1.255   4.403   1.927 -0.6514  0.3898 -0.3309
   99MOL    H6325739   1.321   4.254   2.011  0.3698 -0.4517 -0.4593
   99MOL    H6425740   1.367   4.291   1.847 -0.8209  2.2232 -0.4402
   99MOL    H6525741   1.127   3.840   1.967  0.4127  1.4196  0.5693
   99MOL    H6625742   0.989   3.944   1.938  0.1101 -0.2406  1.6742
   99MOL    C6725743   0.981   3.759   1.829 -0.4280 -0.2000 -0.2719
   99MOL    N6825744   0.897   3.808   1.720 -0.1214  0.3959  1.2450
   99MOL    C6925745   0.860   3.739   1.610  0.3411  0.5741 -0.2447
   99MOL    O7025746   0.776   3.783   1.533 -0.3162 -0.1099 -0.4617
   99MOL    C7125747   0.911   3.595   1.598 -0.7239 -0.4632  0.5796
   99MOL    C7225748   0.887   3.684   1.931 -0.4750  0.0363  0.1977
   99MOL    H7325749   1.066   3.709   1.783 -0.5395  0.0077 -0.7011
   99MOL    H7425750   0.857   3.899   1.737  1.0316  0.8797  1.4100
   99MOL    H7525751   0.843   3.553   1.672 -1.5170  0.6321  0.4808
   99MOL    H7625752   0.885   3.537   1.510  0.2894 -0.5937  0.3601
   99MOL    H7725753   1.016   3.584   1.625 -0.8546 -0.8117  0.9626
   99MOL    H7825754   0.834   3.759   1.991 -2.5504  1.6758 -3.4948
   99MOL    H7925755   0.809   3.626   1.882  0.5874 -0.0143 -1.4482
   99MOL    C8025756   0.950   3.595   2.035 -0.1941  0.2379  0.7749
   99MOL    N8125757   1.041   3.495   1.969 -0.3152 -0.1288  0.6173
   99MOL    C8225758   1.011   3.378   1.902 -0.6622  1.0483  0.1291
   99MOL    O8325759   0.896   3.348   1.881  0.2604 -0.3933  0.0964
   99MOL    C8425760   1.129   3.292   1.856 -0.2474 -1.1282  0.5183
   99MOL    C8525761   0.849   3.538   2.132  0.3173 -0.4203  0.1439
   99MOL    H8625762   1.019   3.653   2.095 -0.4297  0.6921  0.6114
   99MOL    H8725763   1.138   3.517   1.988 -0.2488 -1.0960  1.4585
   99MOL    H8825764   1.130   3.284   1.747 -0.9656  2.6943  0.1832
   99MOL    H8925765   1.219   3.345   1.886 -1.0673 -0.3187  1.5966
   99MOL    H9025766   1.121   3.193   1.901 -0.2182 -2.9165 -3.2047
   99MOL    H9125767   0.806   3.629   2.174 -0.0004  0.1813 -1.4719
   99MOL    H9225768   0.772   3.489   2.074  0.5015 -0.5213 -0.0159
   99MOL    C9325769   0.890   3.439   2.241  1.3286  0.1487 -0.2587
   99MOL    N9425770   0.765   3.383   2.294  0.2039  0.5453 -0.3099
   99MOL    C9525771   0.748   3.250   2.309  0.2737  0.2292  0.0318
   99MOL    O9625772   0.816   3.166   2.249  0.0930  0.1131  0.5472
   99MOL    C9725773   0.650   3.204   2.415  0.1524 -0.2431 -0.3158
   99MOL    C9825774   0.949   3.500   2.366 -0.4278 -0.3755 -0.2022
   99MOL    H9925775   0.948   3.356   2.199  0.0686  0.0138 -1.7544
   99MOL   H10025776   0.706   3.441   2.351  0.4361  0.9795 -0.5095
   99MOL   H10125777   0.676   3.107   2.458 -0.6185  0.1398  1.0629
   99MOL   H10225778   0.651   3.283   2.490  4.1497  1.7607 -2.3418
   99MOL   H10325779   0.546   3.207   2.384  0.5241 -0.9382 -1.6612
   99MOL   H10425780   0.889   3.589   2.388  1.4066  0.6390  0.7936
   99MOL   H10525781   0.950   3.436   2.453  0.3156  1.2048  0.9837
   99MOL   C10625782   1.090   3.551   2.353 -0.2640 -0.0300 -0.0267
   99MOL   N10725783   1.171   3.452   2.278 -0.0422  0.2870  0.0549
   99MOL   C10825784   1.278   3.496   2.212  0.2174 -0.0332  0.7416
   99MOL   O10925785   1.299   3.613   2.178  0.1068 -0.1479  0.2892
   99MOL   C11025786   1.376   3.383   2.179 -0.0011 -0.4386  0.0048
   99MOL   C11125787   1.159   3.596   2.483  0.2292 -0.7557 -0.1582
   99MOL   H11225788   1.085   3.645   2.299  0.3698 -0.6484 -1.1580
   99MOL   H11325789   1.158   3.352   2.283 -0.0140  0.2436 -0.6901
   99MOL   H11425790   1.322   3.294   2.146 -0.7364 -1.3330  3.4246
   99MOL   H11525791   1.455   3.418   2.114  0.1483 -1.2771 -0.2793
   99MOL   H11625792   1.422   3.361   2.275  0.7205 -0.7654 -0.4169
   99MOL   H11725793   1.171   3.509   2.548 -0.8714 -0.2544  0.7237
   99MOL   H11825794   1.255   3.639   2.456  0.1038 -1.0570 -1.1196
   99MOL   C11925795   1.084   3.714   2.549 -0.2367 -0.1980  0.0504
   99MOL   N12025796   1.157   3.835   2.519 -0.7364  0.2831  0.6660
   99MOL   C12125797   1.104   3.949   2.472  0.4667  0.8043 -0.6059
   99MOL   O12225798   0.982   3.964   2.452 -0.5665  0.2338  0.1932
   99MOL   C12325799   1.208   4.053   2.448  0.1211  0.7777  0.2851
   99MOL   C12425800   1.066   3.707   2.705  0.3417  0.4459  0.5693
   99MOL   H12525801   0.982   3.732   2.517  0.2062  3.5239  0.4546
   99MOL   H12625802   1.258   3.829   2.527 -0.4496  4.1629  0.7003
   99MOL   H12725803   1.225   4.124   2.529  2.1028  0.0455  0.5359
   99MOL   H12825804   1.305   4.012   2.421 -0.6977 -1.6489  0.8171
   99MOL   H12925805   1.176   4.102   2.357 -0.9857 -1.3067 -0.4959
   99MOL   H13025806   1.165   3.692   2.748  0.7795  1.4250 -0.0692
   99MOL   H13125807   1.046   3.808   2.741 -0.9260  0.4009  0.0293
   99MOL   C13225808   0.961   3.605   2.756  0.7829 -0.5799  0.5545
   99MOL   N13325809   0.829   3.670   2.752  0.2691 -0.2281  0.1045
   99MOL   C13425810   0.711   3.630   2.690  0.7494 -0.0409  0.3780
   99MOL   O13525811   0.705   3.533   2.613  0.7930  0.0557  0.4278
   99MOL   C13625812   0.580   3.693   2.737  0.2679  0.4315 -0.0849
   99MOL   C13725813   0.989   3.557   2.898 -0.4245 -0.3662 -0.6526
   99MOL   H13825814   0.952   3.511   2.701 -0.1411  0.0091 -0.3254
   99MOL   H13925815   0.834   3.753   2.809  3.4795 -2.3118  3.1034
   99MOL   H14025816   0.500   3.620   2.748  0.4077  0.0115 -1.6571
   99MOL   H14125817   0.582   3.744   2.833  0.3911  1.3222 -0.5552
   99MOL   H14225818   0.556   3.773   2.668  2.4641  1.0022 -0.2337
   99MOL   H14325819   1.020   3.637   2.964 -0.5299 -1.1569  0.3603
   99MOL   H14425820   0.900   3.512   2.942 -0.2064 -0.7562 -0.5996
   99MOL   C14525821   1.101   3.446   2.898 -0.2116 -0.1863  0.7192
   99MOL   N14625822   1.065   3.350   3.005  0.3211  0.4203  0.6255
   99MOL   C14725823   0.978   3.247   2.994 -0.7328 -0.1070 -0.8272
   99MOL   O14825824   0.907   3.233   2.893  0.2760 -0.2700  0.2009
   99MOL   C14925825   0.974   3.154   3.114 -0.0313  0.5349  0.1587
   99MOL   C15025826   1.251   3.493   2.921 -0.2665  0.3244  0.0537
   99MOL   H15125827   1.101   3.396   2.801 -0.0243  1.5696 -0.2156
   99MOL   H15225828   1.131   3.346   3.081 -0.0631 -2.7531  0.8484
   99MOL   H15325829   1.060   3.088   3.103 -0.7541 -0.2696 -0.8524
   99MOL   H15425830   0.976   3.201   3.212  0.4856 -0.2913  0.5485
   99MOL   H15525831   0.893   3.081   3.109 -0.5578  0.9476  2.0124
   99MOL   H15625832   1.256   3.602   2.926  0.2085  0.3043  0.0004
   99MOL   H15725833   1.280   3.465   3.022  0.9633 -1.4058 -0.7688
   99MOL   C15825834   1.353   3.435   2.811  0.4227 -0.0541  0.0318
   99MOL   N15925835   1.341   3.295   2.779 -0.1539  0.7750  0.1239
   99MOL   C16025836   1.344   3.198   2.872 -0.3533  0.2353 -0.3223
   99MOL   O16125837   1.349   3.225   2.989  0.4595 -0.2633 -0.0815
   99MOL   C16225838   1.334   3.055   2.821 -0.1256 -0.4342  0.9495
   99MOL   C16325839   1.497   3.480   2.829 -0.8861 -0.4277 -0.7494
   99MOL   H16425840   1.333   3.486   2.717  0.1215  3.0103  1.6924
   99MOL   H16525841   1.306   3.269   2.687  1.0283 -2.9500  0.6303
   99MOL   H16625842   1.247   3.007   2.866 -0.2263 -0.5349  0.6464
   99MOL   H16725843   1.310   3.056   2.715  1.1862 -1.8119  0.6346
   99MOL   H16825844   1.429   3.003   2.824 -0.9741 -2.0105  1.2433
   99MOL   H16925845   1.505   3.588   2.822  0.9020 -0.6656 -3.1674
   99MOL   H17025846   1.532   3.448   2.927 -0.7075 -0.9763 -0.9907
   99MOL   C17125847   1.603   3.428   2.738 -0.5449  0.2303  0.0922
   99MOL   N17225848   1.736   3.479   2.783 -0.3870 -0.2236 -0.1930
   99MOL   C17325849   1.847   3.411   2.821  0.1807 -0.3454 -0.1273
   99MOL   O17425850   1.845   3.290   2.825 -0.4139  0.6600 -0.2872
   99MOL   C17525851   1.972   3.494   2.846  0.5662  0.0578 -0.6814
   99MOL   C17625852   1.584   3.441   2.582  0.4256  0.2596  0.4957
   99MOL   H17725853   1.611   3.320   2.754 -0.4093  0.3668  0.9473
   99MOL   H17825854   1.746   3.579   2.793  1.3507 -0.1973 -1.8967
   99MOL   H17925855   2.057   3.438   2.806 -0.0689 -1.8490  0.5433
   99MOL   H18025856   1.967   3.592   2.799  1.7211  0.7349  0.5856
   99MOL   H18125857   1.999   3.495   2.952 -2.8041 -3.7704  0.3352
   99MOL   H18225858   1.486   3.398   2.561  1.0161 -0.7807 -0.1792
   99MOL   H18325859   1.565   3.542   2.546 -2.0617 -0.3204  0.0445
   99MOL   C18425860   1.670   3.354   2.483 -0.3934 -0.0877 -0.2425
   99MOL   N18525861   1.689   3.221   2.547  0.1716  0.3788 -0.2708
   99MOL   C18625862   1.644   3.105   2.500 -0.3128  0.4662  1.0619
   99MOL   O18725863   1.583   3.097   2.394  0.0687 -0.2458  0.4073
   99MOL   C18825864   1.680   2.982   2.579 -0.6015  0.7706  0.0344
   99MOL   C18925865   1.803   3.429   2.447  0.1848 -0.2715  0.6196
   99MOL   H19025866   1.603   3.338   2.399 -1.0842 -0.2613  0.3356
   99MOL   H19125867   1.759   3.211   2.619 -0.3399  0.1584  0.2043
   99MOL   H19225868   1.727   3.014   2.672  1.6583  0.1799 -0.8751
   99MOL   H19325869   1.595   2.917   2.598  0.6143 -1.2284 -1.2231
   99MOL   H19425870   1.760   2.927   2.531 -0.8993 -0.4250  0.8852
   99MOL   H19525871   1.788   3.534   2.423  0.2443 -0.4932 -0.3930
   99MOL   H19625872   1.864   3.428   2.538 -0.4602 -1.2704  1.0524
   99MOL   C19725873   1.884   3.351   2.336 -0.1298  0.0622  0.0641
   99MOL   N19825874   2.026   3.398   2.334  0.6129  0.4169  0.3488
   99MOL   C19925875   2.135   3.328   2.358 -0.3123  0.8255 -0.1447
   99MOL   O20025876   2.136   3.209   2.368 -0.7154  0.1545 -0.1129
   99MOL   C20125877   2.262   3.410   2.380 -0.2057 -0.8475 -0.3514
   99MOL   C20225878   1.817   3.376   2.190  0.2646  0.6097 -0.8594
   99MOL   H20325879   1.883   3.243   2.354  1.3538 -0.3567 -2.1658
   99MOL   H20425880   2.052   3.493   2.311  2.4429 -0.1370  0.0006
   99MOL   H20525881   2.248   3.498   2.443 -1.8672  0.0657 -1.9204
   99MOL   H20625882   2.336   3.348   2.430  0.0077  0.4320  0.9555
   99MOL   H20725883   2.298   3.447   2.284  0.0490  0.2134  0.1523
   99MOL   H20825884   1.745   3.295   2.178  0.9305 -0.3217  1.0965
   99MOL   H20925885   1.761   3.469   2.201 -0.5439 -0.0420  0.7202
   99MOL   C21025886   1.909   3.378   2.069 -0.6057 -0.0591  0.1106
   99MOL   N21125887   1.888   3.491   1.980  0.2378  0.2131 -0.2795
   99MOL   C21225888   1.781   3.512   1.902 -0.2232 -0.0191  0.3713
   99MOL   O21325889   1.699   3.428   1.879 -0.3258  0.2705 -0.2048
   99MOL   C21425890   1.755   3.651   1.842  0.1199 -0.1737 -1.3115
   99MOL   C21525891   1.910   3.244   1.993 -0.6471  0.3089 -0.7467
   99MOL   H21625892   2.011   3.394   2.103 -0.2018  1.8040 -1.8613
   99MOL   H21725893   1.956   3.566   1.975 -0.7091  1.0583 -0.5510
   99MOL   H21825894   1.727   3.659   1.737  0.0408  2.3218 -1.1239
   99MOL   H21925895   1.676   3.699   1.900 -1.0009 -1.6958 -1.5319
   99MOL   H22025896   1.839   3.720   1.842  0.5372 -0.6548  0.7656
   99MOL   H22125897   1.817   3.187   2.003 -1.3156  1.5109  0.0131
   99MOL   H22225898   1.919   3.258   1.886  0.5099 -2.2459 -1.0295
   99MOL   C22325899   2.024   3.144   2.031  0.2527  0.4832  0.1127
   99MOL   N22425900   2.003   3.087   2.165  0.4838 -0.1223  0.7347
   99MOL   C22525901   1.922   2.979   2.201  0.7776  0.5787  1.1754
   99MOL   O22625902   1.844   2.925   2.120 -0.4101 -0.0300  0.1816
   99MOL   C22725903   1.945   2.918   2.339  0.0570  0.9780  1.0706
   99MOL   C22825904   2.163   3.197   2.019 -0.0351 -0.1699  0.6895
   99MOL   H22925905   2.021   3.062   1.958 -2.2554  2.0334 -1.5732
   99MOL   H23025906   2.059   3.133   2.235  0.0391  0.5260  0.6668
   99MOL   H23125907   1.860   2.851   2.351 -0.5104  2.1015  3.8309
   99MOL   H23225908   2.039   2.863   2.348 -1.0220 -1.4954 -1.8559
   99MOL   H23325909   1.931   2.981   2.427 -2.9043  0.2279  1.1809
   99MOL   H23425910   2.165   3.231   1.916  0.5606  1.2018  1.1452
   99MOL   H23525911   2.187   3.276   2.091  0.5301 -2.1348  2.7362
   99MOL   C23625912   2.281   3.103   2.038  0.1882  0.7716  0.0223
   99MOL   N23725913   2.283   3.034   2.169  0.4318 -0.0314 -0.4665
   99MOL   C23825914   2.320   2.906   2.190 -0.1601  0.4621 -0.2106
   99MOL   O23925915   2.342   2.825   2.097  0.4095  0.6732  0.8401
   99MOL   C24025916   2.339   2.866   2.336  0.1743  0.5605 -0.4790
   99MOL   C24125917   2.416   3.179   2.032 -0.4713  0.4818 -0.2443
   99MOL   H24225918   2.279   3.035   1.953 -0.4357  1.2413 -0.3387
   99MOL   H24325919   2.263   3.087   2.253 -1.1787  1.0101 -1.4810
   99MOL   H24425920   2.363   2.760   2.344  0.8647  0.5862 -2.0071
   99MOL   H24525921   2.420   2.921   2.385  0.1107 -0.6200  0.9994
   99MOL   H24625922   2.253   2.891   2.398  1.5578  1.2587  1.2264
   99MOL   H24725923   2.429   3.263   2.100 -3.0261  0.6977  0.0150
   99MOL   H24825924   2.487   3.102   2.063 -0.2074  0.6980 -0.3176
   99MOL   C24925925   2.451   3.225   1.892 -0.0328 -0.3313 -0.0015
   99MOL   N25025926   2.460   3.125   1.790 -0.2121 -0.5095 -0.5515
   99MOL   C25125927   2.367   3.121   1.691 -0.5349  0.7770  0.1233
   99MOL   O25225928   2.258   3.173   1.690 -0.5149 -0.3620  0.2147
   99MOL   C25325929   2.399   3.038   1.566 -0.4685  0.1809  0.5349
   99MOL   C25425930   2.589   3.299   1.889  0.7987  0.0135  0.2703
   99MOL   H25525931   2.367   3.287   1.862  1.0529  0.8936 -0.5821
   99MOL   H25625932   2.544   3.069   1.787 -1.8284 -3.2320  1.9798
   99MOL   H25725933   2.305   2.983   1.562 -0.8606  0.6768  2.1757
   99MOL   H25825934   2.397   3.099   1.476  0.9902  0.4070  0.6397
   99MOL   H25925935   2.490   2.979   1.577  0.0592  1.0604  0.9184
   99MOL   H26025936   2.598   3.381   1.960 -1.0337  1.2927 -0.9675
   99MOL   H26125937   2.666   3.224   1.909 -0.9330 -1.5209  1.3647
   99MOL   H26225938   2.594   3.333   1.786 -0.7078  2.1944  0.8900
  100MOL     C125939   6.185   5.222   2.266 -0.4612  0.2168 -1.5143
  100MOL     N225940   6.081   5.148   2.342  0.5303 -0.1961 -0.2175
  100MOL     C325941   5.987   5.076   2.276  0.0068  1.3743  0.6131
  100MOL     O425942   5.981   5.060   2.156  0.1491  0.2224  0.3658
  100MOL     C525943   5.890   5.006   2.366 -0.2646 -0.1604 -0.1473
  100MOL     C625944   6.183   5.367   2.321  0.5726 -0.0178 -0.1267
  100MOL     H725945   6.289   5.191   2.279 -0.3823  1.3125  0.8348
  100MOL     H825946   6.086   5.148   2.443  0.2970 -0.5515 -0.2080
  100MOL     H925947   5.866   5.078   2.444 -1.3391  0.9560 -1.4561
  100MOL    H1025948   5.802   4.978   2.307 -0.6152  1.6807 -0.5306
  100MOL    H1125949   5.927   4.913   2.408 -2.3244 -0.1043  1.9381
  100MOL    H1225950   6.083   5.411   2.320  0.4716 -0.0012  3.9493
  100MOL    H1325951   6.212   5.366   2.426  1.1658 -0.6437 -0.2947
  100MOL    H1425952   6.165   5.216   2.159  2.0322 -0.1631 -2.0045
  100MOL    C1525953   6.280   5.450   2.239 -0.1331 -0.0320  0.0576
  100MOL    N1625954   6.411   5.419   2.292 -0.6115 -0.1396 -0.5246
  100MOL    C1725955   6.520   5.379   2.231 -0.2383  0.5611 -0.7751
  100MOL    O1825956   6.512   5.348   2.115  0.7021 -0.5676  0.2101
  100MOL    C1925957   6.649   5.384   2.303 -0.8360 -0.2456 -0.8192
  100MOL    C2025958   6.259   5.603   2.238 -0.0342 -0.0828  0.5281
  100MOL    H2125959   6.265   5.423   2.135  1.4889  0.6569 -0.3675
  100MOL    H2225960   6.423   5.430   2.391  2.7562  2.8236 -1.1577
  100MOL    H2325961   6.688   5.284   2.321  2.9496  1.2271 -0.4584
  100MOL    H2425962   6.724   5.441   2.250  0.5942 -0.2072  1.1848
  100MOL    H2525963   6.636   5.432   2.400  1.9470  2.9644 -1.9476
  100MOL    H2625964   6.152   5.615   2.250 -0.0003 -1.1635  2.0600
  100MOL    H2725965   6.313   5.639   2.326  1.6479  0.6198 -0.7490
  100MOL    C2825966   6.322   5.688   2.123  0.1120  0.0597 -0.1589
  100MOL    N2925967   6.476   5.695   2.132  0.8070  0.2742 -0.3654
  100MOL    C3025968   6.559   5.784   2.186 -0.1900  0.3966  0.9359
  100MOL    O3125969   6.524   5.876   2.256  0.3832 -0.0289  0.4734
  100MOL    C3225970   6.708   5.750   2.172  0.3471 -0.2290  0.2170
  100MOL    C3325971   6.259   5.831   2.124 -0.0411 -0.1747  0.0845
  100MOL    H3425972   6.301   5.652   2.022 -1.1282  3.4882 -1.2035
  100MOL    H3525973   6.515   5.632   2.063  2.5562  0.3572  0.5186
  100MOL    H3625974   6.730   5.712   2.072 -1.1179 -0.6621  0.0518
  100MOL    H3725975   6.766   5.840   2.192 -0.8739  0.4018  1.0098
  100MOL    H3825976   6.731   5.677   2.250  0.9170  0.1322  0.3903
  100MOL    H3925977   6.262   5.866   2.227 -1.0154  2.7728 -0.8392
  100MOL    H4025978   6.324   5.906   2.078  1.3169 -1.0960  0.4579
  100MOL    C4125979   6.119   5.845   2.071  0.6003 -0.0372  0.4958
  100MOL    N4225980   6.100   5.782   1.937  0.1350 -0.0930  0.0011
  100MOL    C4325981   6.147   5.826   1.819 -0.2661  0.2846 -1.4418
  100MOL    O4425982   6.210   5.929   1.806 -0.2739 -0.2841 -0.1682
  100MOL    C4525983   6.127   5.731   1.703 -0.7040 -0.0971 -0.7733
  100MOL    C4625984   6.062   5.985   2.077  0.3075  0.4204  0.0307
  100MOL    H4725985   6.048   5.796   2.138 -1.2882  1.7364 -0.1534
  100MOL    H4825986   6.039   5.701   1.934  0.5116 -0.3251 -2.9587
  100MOL    H4925987   6.079   5.638   1.734  1.3690 -0.5909  1.0648
  100MOL    H5025988   6.049   5.775   1.640 -1.2189 -0.8825 -0.6949
  100MOL    H5125989   6.210   5.708   1.636  0.1267 -1.2060  0.6151
  100MOL    H5225990   6.115   6.048   2.004 -2.4153  1.6623 -0.9400
  100MOL    H5325991   5.957   5.981   2.050 -0.6759 -0.0498  3.6819
  100MOL    C5425992   6.064   6.044   2.224  0.0899 -0.0354 -0.0662
  100MOL    N5525993   5.946   6.129   2.254  0.2937  0.3127 -0.0190
  100MOL    C5625994   5.837   6.068   2.304 -0.5013 -0.2430 -0.0002
  100MOL    O5725995   5.821   5.949   2.304  0.4272  0.0622 -0.7315
  100MOL    C5825996   5.732   6.153   2.368  0.8991  0.3470 -0.5418
  100MOL    C5925997   6.189   6.132   2.250 -0.0001 -0.6259  0.6152
  100MOL    H6025998   6.054   5.964   2.297  0.3676 -0.7425 -0.7996
  100MOL    H6125999   5.946   6.227   2.229 -1.7776  0.3653  0.1165
  100MOL    H6226000   5.774   6.243   2.413 -2.8135  2.6217 -1.4089
  100MOL    H6326001   5.656   6.176   2.294  2.2820  1.5645 -1.5944
  100MOL    H6426002   5.684   6.091   2.445 -0.6225  2.6386  0.4096
  100MOL    H6526003   6.268   6.104   2.181 -1.4155 -1.2352 -0.7964
  100MOL    H6626004   6.160   6.231   2.215 -0.2690 -0.7340  0.5313
  100MOL    C6726005   6.238   6.142   2.390  0.0832  0.2832 -0.1142
  100MOL    N6826006   6.158   6.234   2.460  0.2847  0.1023 -0.2392
  100MOL    C6926007   6.054   6.206   2.541 -0.6891 -0.4146  0.3576
  100MOL    O7026008   6.014   6.093   2.573 -0.4274  0.5161  0.1894
  100MOL    C7126009   5.997   6.328   2.604  0.0135  0.2212 -0.4036
  100MOL    C7226010   6.383   6.192   2.401 -0.6222  0.5364 -0.1547
  100MOL    H7326011   6.223   6.048   2.444  2.2095  1.8648  3.4074
  100MOL    H7426012   6.186   6.328   2.437  0.4044 -0.1897 -1.2780
  100MOL    H7526013   5.961   6.400   2.530 -2.2885  0.1516  0.5900
  100MOL    H7626014   5.916   6.305   2.674 -0.2516  2.8759  0.2364
  100MOL    H7726015   6.068   6.379   2.669  1.4775 -2.5070  0.1983
  100MOL    H7826016   6.449   6.125   2.346  1.6151  1.7638  0.9674
  100MOL    H7926017   6.397   6.286   2.348  1.3417 -1.3703 -3.1518
  100MOL    C8026018   6.443   6.204   2.547 -0.0888  0.9579  0.2826
  100MOL    N8126019   6.394   6.325   2.614  0.1921 -0.3122  0.1282
  100MOL    C8226020   6.374   6.331   2.745 -0.6143  0.3243 -0.5462
  100MOL    O8326021   6.425   6.255   2.823 -0.1177  0.3351  0.0974
  100MOL    C8426022   6.307   6.454   2.797  0.5570 -0.5275 -0.4900
  100MOL    C8526023   6.600   6.199   2.565 -0.3783 -0.5395 -0.1266
  100MOL    H8626024   6.402   6.122   2.606  4.0190 -1.6482 -0.2451
  100MOL    H8726025   6.348   6.397   2.561 -1.5092 -0.0137  1.9570
  100MOL    H8826026   6.208   6.426   2.832 -0.1082 -0.3280 -2.1406
  100MOL    H8926027   6.334   6.481   2.899 -0.3000  2.2499 -0.9472
  100MOL    H9026028   6.301   6.535   2.724 -3.4883 -0.2718  0.0314
  100MOL    H9126029   6.639   6.298   2.543 -1.4118 -0.2567 -0.6854
  100MOL    H9226030   6.619   6.175   2.670  0.0500 -1.0066 -0.3091
  100MOL    C9326031   6.683   6.105   2.481  0.6261  0.4552 -0.1609
  100MOL    N9426032   6.624   5.969   2.486 -0.1348 -0.3799 -0.1050
  100MOL    C9526033   6.595   5.886   2.586  0.3510  0.0082  0.3291
  100MOL    O9626034   6.637   5.899   2.697 -0.0982 -0.0687 -0.2223
  100MOL    C9726035   6.505   5.765   2.544  0.3079 -0.0120  0.1961
  100MOL    C9826036   6.837   6.099   2.506  0.3358 -0.1725  0.0671
  100MOL    H9926037   6.663   6.134   2.378  1.5141 -2.4318 -1.1669
  100MOL   H10026038   6.575   5.943   2.402 -3.1212  1.4575  0.9757
  100MOL   H10126039   6.538   5.691   2.470  4.1801 -0.1839  2.0003
  100MOL   H10226040   6.489   5.707   2.635  1.9516 -0.3212  0.2983
  100MOL   H10326041   6.400   5.786   2.524  0.5840 -1.4414 -3.1406
  100MOL   H10426042   6.866   6.203   2.514  0.1046 -0.0052 -1.1650
  100MOL   H10526043   6.862   6.054   2.603  0.0687 -1.8589 -0.6219
  100MOL   C10626044   6.929   6.033   2.408  0.4218 -0.1558 -0.4228
  100MOL   N10726045   7.057   5.991   2.467  0.3865 -0.5730 -0.1511
  100MOL   C10826046   7.075   5.859   2.489  0.1692 -0.2976 -0.0353
  100MOL   O10926047   6.983   5.775   2.506  0.3023 -0.5643  0.1529
  100MOL   C11026048   7.218   5.815   2.518  0.8689 -0.0565 -0.0111
  100MOL   C11126049   6.950   6.125   2.277 -0.6217 -0.0389 -0.8712
  100MOL   H11226050   6.878   5.947   2.364 -2.8279  1.4330  0.1139
  100MOL   H11326051   7.139   6.050   2.459  0.3915 -0.1675  2.6250
  100MOL   H11426052   7.270   5.772   2.433  0.6633  0.3398 -0.3376
  100MOL   H11526053   7.283   5.893   2.558  0.5077 -0.9038  2.3097
  100MOL   H11626054   7.203   5.739   2.595  2.4920 -0.3536  0.0208
  100MOL   H11726055   6.855   6.145   2.228 -0.5023  3.9161  0.3800
  100MOL   H11826056   6.996   6.222   2.296  0.3742 -0.4824 -0.9522
  100MOL   C11926057   7.022   6.072   2.152 -0.3720 -0.3813 -0.6301
  100MOL   N12026058   7.156   6.021   2.184  0.5974 -0.4652 -0.1963
  100MOL   C12126059   7.217   5.912   2.122  0.1904 -0.1537 -0.3000
  100MOL   O12226060   7.157   5.834   2.048  0.0227  0.0001  0.2003
  100MOL   C12326061   7.357   5.867   2.156  0.4680 -0.1503 -0.6590
  100MOL   C12426062   7.037   6.171   2.034 -0.0135  0.0567 -0.3196
  100MOL   H12526063   6.953   5.994   2.120  0.4462 -0.6431 -1.7673
  100MOL   H12626064   7.213   6.070   2.252  1.9985 -0.8251 -1.0731
  100MOL   H12726065   7.411   5.942   2.213 -2.2071  1.1851  0.1630
  100MOL   H12826066   7.349   5.784   2.226 -1.5959 -0.8155 -1.6604
  100MOL   H12926067   7.417   5.833   2.071  1.0059  0.7944 -0.6626
  100MOL   H13026068   7.062   6.265   2.083 -1.2545  0.1277  0.2048
  100MOL   H13126069   7.133   6.159   1.985  0.6683 -1.1043  1.2480
  100MOL   C13226070   6.922   6.182   1.933 -0.2755 -0.4210  0.1408
  100MOL   N13326071   6.938   6.084   1.825 -0.2420  0.3981  0.2502
  100MOL   C13426072   6.893   5.961   1.817  0.0153 -0.9087  0.4868
  100MOL   O13526073   6.829   5.902   1.902  0.4176  0.2505  0.4105
  100MOL   C13626074   6.905   5.894   1.680 -0.2559 -0.5610  0.2174
  100MOL   C13726075   6.917   6.323   1.869  0.0174 -0.1704 -0.2047
  100MOL   H13826076   6.827   6.172   1.985 -1.0932  0.8022 -1.0756
  100MOL   H13926077   6.968   6.126   1.738  0.3422 -0.1951  0.1559
  100MOL   H14026078   6.997   5.869   1.628 -0.3340  0.3914 -0.4096
  100MOL   H14126079   6.849   5.801   1.678 -0.9633 -0.1223 -1.8221
  100MOL   H14226080   6.864   5.963   1.605  2.2124  0.6176 -0.0904
  100MOL   H14326081   7.002   6.334   1.802 -0.9117  0.3244 -1.3321
  100MOL   H14426082   6.842   6.341   1.792  1.0740  0.6386 -1.0616
  100MOL   C14526083   6.915   6.445   1.961 -0.0559 -0.5985 -0.0730
  100MOL   N14626084   6.831   6.419   2.083  0.2011  0.4705 -0.2155
  100MOL   C14726085   6.864   6.457   2.212 -0.2756 -0.1020 -0.0471
  100MOL   O14826086   6.968   6.512   2.234  0.5177 -0.2042  0.3542
  100MOL   C14926087   6.758   6.434   2.318  0.2511  0.1034 -0.1332
  100MOL   C15026088   6.857   6.571   1.892 -0.7005 -0.0505  0.2775
  100MOL   H15126089   7.016   6.458   1.999 -0.5467  0.5590  0.8917
  100MOL   H15226090   6.733   6.400   2.067 -0.2288  2.4641 -0.0294
  100MOL   H15326091   6.677   6.506   2.303  0.6278  0.4112 -0.6712
  100MOL   H15426092   6.716   6.333   2.319 -0.5897  0.4481 -0.4390
  100MOL   H15526093   6.807   6.451   2.414 -1.3408 -0.4826  0.8226
  100MOL   H15626094   6.758   6.560   1.848  0.5408 -4.1205 -1.7636
  100MOL   H15726095   6.842   6.638   1.977 -0.3171 -0.9816  1.0992
  100MOL   C15826096   6.946   6.648   1.789  0.3637 -0.1665 -0.0445
  100MOL   N15926097   6.903   6.788   1.797 -0.4264  0.7692 -0.1076
  100MOL   C16026098   6.948   6.902   1.744  1.3727  0.1944 -0.3998
  100MOL   O16126099   7.044   6.911   1.669  0.1757 -0.1745 -0.2704
  100MOL   C16226100   6.858   7.016   1.770 -0.8837  0.2539 -0.1750
  100MOL   C16326101   6.929   6.596   1.648 -0.0178 -0.0842  0.1972
  100MOL   H16426102   7.048   6.649   1.828 -0.2713  0.2065  1.6213
  100MOL   H16526103   6.812   6.800   1.841 -0.3252  1.6251 -0.1187
  100MOL   H16626104   6.861   7.039   1.876  1.6432  0.2336 -0.2176
  100MOL   H16726105   6.883   7.102   1.708 -0.1430  0.1705  0.0020
  100MOL   H16826106   6.761   6.979   1.736 -0.7312 -0.5199  0.2158
  100MOL   H16926107   6.854   6.517   1.646 -0.5424  0.3510  1.6237
  100MOL   H17026108   6.878   6.674   1.590  3.0447  0.8886 -1.2613
  100MOL   C17126109   7.057   6.532   1.571 -0.6651  0.1986 -0.1808
  100MOL   N17226110   7.172   6.627   1.585 -0.5351 -0.0085  0.3335
  100MOL   C17326111   7.268   6.617   1.675  0.1535 -0.4940 -0.1245
  100MOL   O17426112   7.270   6.542   1.772 -0.1043  0.2017  0.1919
  100MOL   C17526113   7.392   6.716   1.666  0.6578 -0.6154 -0.2550
  100MOL   C17626114   7.018   6.506   1.422 -0.2537  0.9095 -0.6449
  100MOL   H17726115   7.081   6.437   1.619 -0.6087  0.1732 -0.2611
  100MOL   H17826116   7.166   6.716   1.537 -0.6277 -0.1966 -0.0054
  100MOL   H17926117   7.371   6.806   1.723 -0.6314 -2.7558  2.7424
  100MOL   H18026118   7.486   6.672   1.698  1.4134  0.5722 -0.7864
  100MOL   H18126119   7.389   6.731   1.558  0.2111  1.9533  0.0881
  100MOL   H18226120   6.978   6.600   1.384 -2.4941 -0.0334 -0.6873
  100MOL   H18326121   7.107   6.480   1.365 -0.0613 -0.7501  0.3743
  100MOL   C18426122   6.908   6.398   1.400  0.1810  0.5574 -0.1368
  100MOL   N18526123   6.971   6.268   1.352 -0.3453  0.4229  0.4417
  100MOL   C18626124   7.030   6.184   1.439 -0.0677 -0.1619 -0.1775
  100MOL   O18726125   7.019   6.200   1.559  0.4454 -0.3663 -0.1308
  100MOL   C18826126   7.107   6.066   1.386 -0.0329  0.5450 -0.7756
  100MOL   C18926127   6.817   6.456   1.289  0.2529  0.9320 -0.1983
  100MOL   H19026128   6.845   6.394   1.489 -1.4664  0.1195 -1.2949
  100MOL   H19126129   7.005   6.272   1.257 -0.4961 -1.7488  0.2781
  100MOL   H19226130   7.097   5.982   1.456  0.5845  0.9585 -0.1832
  100MOL   H19326131   7.079   6.043   1.283  0.5520 -0.7955 -0.6553
  100MOL   H19426132   7.211   6.094   1.374  1.0488 -3.0247 -0.4812
  100MOL   H19526133   6.784   6.557   1.314  0.3687  1.5525 -2.4664
  100MOL   H19626134   6.882   6.470   1.203  0.1162  0.6467 -0.3483
  100MOL   C19726135   6.693   6.375   1.240  0.4920  0.5541  0.2486
  100MOL   N19826136   6.614   6.462   1.149 -0.7847  0.2118 -0.1957
  100MOL   C19926137   6.554   6.574   1.174  0.5676 -0.5204 -0.0093
  100MOL   O20026138   6.552   6.618   1.286 -0.3549  0.0975 -0.0767
  100MOL   C20126139   6.479   6.648   1.067  0.0860  0.6267 -0.1069
  100MOL   C20226140   6.589   6.314   1.345  0.1834 -0.5321 -0.5372
  100MOL   H20326141   6.730   6.291   1.182  1.9654  0.6131  1.0923
  100MOL   H20426142   6.612   6.434   1.052 -1.1474  1.2880 -0.5116
  100MOL   H20526143   6.517   6.749   1.055 -2.5519  1.6827 -0.0176
  100MOL   H20626144   6.494   6.603   0.969 -1.5933 -2.6804  1.0819
  100MOL   H20726145   6.371   6.654   1.085  0.0272 -0.2861 -0.0989
  100MOL   H20826146   6.562   6.387   1.422 -0.4509 -2.0017  0.6384
  100MOL   H20926147   6.493   6.283   1.303 -0.1593 -0.4012  0.1431
  100MOL   C21026148   6.632   6.195   1.429 -0.4624 -0.3317  0.1887
  100MOL   N21126149   6.703   6.102   1.347 -0.2615  0.3958 -1.0772
  100MOL   C21226150   6.651   6.034   1.242  0.1218 -0.3360  0.6167
  100MOL   O21326151   6.538   6.051   1.198 -0.1337 -0.0573  0.0931
  100MOL   C21426152   6.745   5.944   1.164 -1.1289  0.2868 -0.0595
  100MOL   C21526153   6.526   6.139   1.520 -0.0642  0.1023  0.4880
  100MOL   H21626154   6.708   6.244   1.490 -1.1952  3.1943 -1.5873
  100MOL   H21726155   6.802   6.091   1.362 -0.2542  0.2528 -1.2284
  100MOL   H21826156   6.691   5.865   1.114  1.1278 -0.9479 -0.6101
  100MOL   H21926157   6.796   6.002   1.087  0.1042  0.0853  0.5900
  100MOL   H22026158   6.814   5.898   1.235 -0.9264 -1.3995 -1.3504
  100MOL   H22126159   6.446   6.107   1.453 -0.9277  2.5216  0.3161
  100MOL   H22226160   6.575   6.060   1.578 -0.4981  0.5179  1.4344
  100MOL   C22326161   6.467   6.238   1.621  0.3879  0.2418  0.5361
  100MOL   N22426162   6.448   6.163   1.742  0.0411  0.1027  0.1608
  100MOL   C22526163   6.530   6.170   1.848  0.0371 -0.6080 -0.1515
  100MOL   O22626164   6.614   6.256   1.857  0.0740 -0.1663  0.0685
  100MOL   C22726165   6.505   6.088   1.964  0.1399 -0.1656  0.4973
  100MOL   C22826166   6.340   6.310   1.587 -0.4871  0.5520  0.1088
  100MOL   H22926167   6.541   6.314   1.646  2.4630 -1.1127 -1.2898
  100MOL   H23026168   6.364   6.109   1.756  0.4274 -0.4327  0.4851
  100MOL   H23126169   6.417   6.125   2.018  0.3212 -0.9168  1.3251
  100MOL   H23226170   6.480   5.986   1.937  0.4745  0.0734 -0.7215
  100MOL   H23326171   6.590   6.086   2.033 -1.1429 -0.1098  2.1344
  100MOL   H23426172   6.331   6.337   1.482  3.5222  0.1451 -0.4012
  100MOL   H23526173   6.251   6.248   1.600  0.2283 -0.8487 -1.5541
  100MOL   C23626174   6.304   6.435   1.674 -0.3448 -0.0468 -0.0305
  100MOL   N23726175   6.166   6.474   1.642 -0.0648 -0.3323 -0.4353
  100MOL   C23826176   6.102   6.577   1.701  0.6081  0.4007 -0.3379
  100MOL   O23926177   6.154   6.653   1.780  0.0241  0.5427 -0.4144
  100MOL   C24026178   5.961   6.595   1.654 -0.5999 -0.2446 -0.5702
  100MOL   C24126179   6.393   6.559   1.640 -0.4272 -0.1649 -0.2040
  100MOL   H24226180   6.293   6.398   1.776 -1.6267  1.3878  0.3785
  100MOL   H24326181   6.128   6.427   1.561 -0.2513  0.1075 -0.6029
  100MOL   H24426182   5.924   6.504   1.608 -0.2975  0.5406 -2.4520
  100MOL   H24526183   5.909   6.624   1.745  0.7389  1.8699 -0.4459
  100MOL   H24626184   5.957   6.679   1.585  0.2086  0.9528  0.8052
  100MOL   H24726185   6.449   6.531   1.550 -1.5990 -0.0393 -0.9852
  100MOL   H24826186   6.341   6.652   1.615  1.7694  0.9911 -0.6499
  100MOL   C24926187   6.491   6.597   1.757 -0.3018  0.4841  0.6751
  100MOL   N25026188   6.412   6.616   1.874 -0.5394 -0.0874 -0.6529
  100MOL   C25126189   6.439   6.568   2.002 -0.0454 -0.0462 -0.3336
  100MOL   O25226190   6.554   6.556   2.041  0.1319  0.2454  0.0500
  100MOL   C25326191   6.320   6.537   2.094  0.0217  0.3487 -0.4369
  100MOL   C25426192   6.568   6.719   1.728 -0.2939  0.5065 -0.2036
  100MOL   H25526193   6.567   6.523   1.783 -1.7829 -1.1163  0.5484
  100MOL   H25626194   6.318   6.643   1.851 -0.8639  2.9277  3.5529
  100MOL   H25726195   6.231   6.507   2.037  2.2672  1.4078 -4.7196
  100MOL   H25826196   6.337   6.453   2.160 -1.5246  0.0562 -0.3859
  100MOL   H25926197   6.288   6.623   2.154  2.2613 -1.1094  2.9648
  100MOL   H26026198   6.506   6.798   1.686 -1.9515 -0.2721  0.7168
  100MOL   H26126199   6.611   6.754   1.822 -0.8932  2.1507 -0.5413
  100MOL   H26226200   6.655   6.695   1.666 -0.1744  0.2955  0.0456
  101MOL     C126201   2.824   7.141   0.217 -0.0826  0.0867 -0.5234
  101MOL     N226202   2.839   7.044   0.324  0.2870  0.1535 -0.0917
  101MOL     C326203   2.822   6.913   0.305  0.8580  0.3182  0.5856
  101MOL     O426204   2.770   6.862   0.200  0.0533 -0.0494  0.4119
  101MOL     C526205   2.854   6.831   0.429 -0.1813  0.3705  0.3516
  101MOL     C626206   2.685   7.176   0.182 -0.2163 -0.1596 -0.3053
  101MOL     H726207   2.873   7.233   0.248  1.8927 -0.7281 -1.1091
  101MOL     H826208   2.837   7.071   0.421 -0.2018  1.4619 -0.4584
  101MOL     H926209   2.831   6.726   0.414  0.4985 -0.3570  4.0774
  101MOL    H1026210   2.960   6.813   0.448 -0.2088 -0.4922 -0.2967
  101MOL    H1126211   2.796   6.866   0.514 -0.5505 -2.3988  1.2855
  101MOL    H1226212   2.638   7.092   0.130  0.6333  0.1409 -1.5823
  101MOL    H1326213   2.622   7.179   0.271  0.5288  0.6420  0.1976
  101MOL    H1426214   2.880   7.115   0.127  0.3886 -0.1442 -0.1660
  101MOL    C1526215   2.666   7.300   0.096 -0.7250 -0.2284  0.2752
  101MOL    N1626216   2.731   7.426   0.149 -0.4218  0.3543  0.6420
  101MOL    C1726217   2.690   7.498   0.256  0.2848 -0.6356  0.7241
  101MOL    O1826218   2.589   7.462   0.318 -0.0366  0.0452  0.0115
  101MOL    C1926219   2.775   7.620   0.296 -0.3472  0.3581 -0.4095
  101MOL    C2026220   2.515   7.322   0.064 -0.9082  0.2845  0.6108
  101MOL    H2126221   2.700   7.289   7.833  0.6303  3.7254  0.2323
  101MOL    H2226222   2.814   7.464   0.106 -0.3118  0.8115  1.2617
  101MOL    H2326223   2.871   7.584   0.333 -1.7877  0.8687  4.1968
  101MOL    H2426224   2.795   7.690   0.215  0.9992 -1.4995 -1.7188
  101MOL    H2526225   2.726   7.681   0.373  1.1849 -0.4065  1.2028
  101MOL    H2626226   2.489   7.221   0.032  2.2537 -0.5343  0.3749
  101MOL    H2726227   2.449   7.350   0.145 -1.3639  0.8154  0.0550
  101MOL    C2826228   2.484   7.421   7.792  0.1110  0.2136 -0.5492
  101MOL    N2926229   2.540   7.402   7.660  0.0748 -0.2975 -0.1711
  101MOL    C3026230   2.473   7.371   7.550 -0.3057  0.1051 -0.1437
  101MOL    O3126231   2.348   7.353   7.545  0.1234  0.0277  0.8652
  101MOL    C3226232   2.565   7.340   7.433 -0.1528  0.0267  0.1080
  101MOL    C3326233   2.502   7.571   7.830  0.1482 -0.3127 -0.3471
  101MOL    H3426234   2.376   7.419   7.775  0.1880  1.4719 -1.2635
  101MOL    H3526235   2.635   7.435   7.658  0.2492 -0.6306  1.6571
  101MOL    H3626236   2.503   7.286   7.362  0.1274  0.0418 -0.1485
  101MOL    H3726237   2.591   7.430   7.378  0.3468 -0.3188 -0.2153
  101MOL    H3826238   2.648   7.278   7.464  0.0429  0.0008 -0.4573
  101MOL    H3926239   2.477   7.595   0.093  0.0708 -3.2115  0.3421
  101MOL    H4026240   2.610   7.591   7.824 -0.1089  0.9979 -0.8384
  101MOL    C4126241   2.437   7.686   7.747  0.5571  0.2984 -0.8380
  101MOL    N4226242   2.506   7.815   7.773  0.3560 -0.0515 -0.1742
  101MOL    C4326243   2.559   0.054   7.677  0.1039 -0.1375  0.0852
  101MOL    O4426244   2.541   0.028   7.559 -0.1015  0.3939  0.8180
  101MOL    C4526245   2.629   0.177   7.719  0.0945 -0.4496  0.3021
  101MOL    C4626246   2.286   7.701   7.775  0.3581  0.2224  0.2690
  101MOL    H4726247   2.446   7.660   7.642 -3.2095  0.8767 -1.3682
  101MOL    H4826248   2.519   0.008   0.028 -2.5451 -1.1360  0.6415
  101MOL    H4926249   2.577   0.257   7.771  0.6938  0.2803 -0.2163
  101MOL    H5026250   2.706   0.138   7.786  2.5082  0.4507 -1.8455
  101MOL    H5126251   2.675   0.215   7.628  2.1815  1.0222  1.9475
  101MOL    H5226252   2.232   7.607   7.767  0.9743 -0.0461 -0.8176
  101MOL    H5326253   2.279   7.726   0.041  2.2820  0.5397  0.3406
  101MOL    C5426254   2.212   7.807   7.685 -0.1874  0.6007 -0.7773
  101MOL    N5526255   2.113   0.050   7.760 -0.0910 -0.0338  0.1142
  101MOL    C5626256   2.073   0.177   7.742  0.3601  0.4342  0.9785
  101MOL    O5726257   2.100   0.240   7.642  0.0609  0.1671  0.0413
  101MOL    C5826258   1.988   0.225   0.018 -0.4181  0.0358 -0.1945
  101MOL    C5926259   2.143   7.730   7.569 -0.0050 -0.7359 -0.6508
  101MOL    H6026260   2.287   0.037   7.648  1.8913 -0.7952  0.7732
  101MOL    H6126261   2.069   0.003   7.837  1.6989  0.3321  1.3985
  101MOL    H6226262   2.037   0.205   0.114 -2.1896 -0.2579  0.6654
  101MOL    H6326263   1.977   0.334   0.019 -3.8554 -0.2701 -1.2665
  101MOL    H6426264   1.887   0.184   0.015 -1.2792  2.1486 -1.2608
  101MOL    H6526265   2.179   7.627   7.573  2.6578  0.1855  1.3502
  101MOL    H6626266   2.039   7.719   7.598  0.1096 -0.1893 -0.0135
  101MOL    C6726267   2.147   7.791   7.426  0.6336 -0.1376 -0.3770
  101MOL    N6826268   2.151   0.101   7.418  0.8327  0.1707 -0.0465
  101MOL    C6926269   2.210   0.171   7.317 -0.2196  0.1145  0.2730
  101MOL    O7026270   2.229   0.118   7.204  0.2789  0.9625 -0.3645
  101MOL    C7126271   2.247   0.315   7.348 -0.0352  0.1067  0.5990
  101MOL    C7226272   2.043   7.728   7.325  0.0271 -0.5018  0.3384
  101MOL    H7326273   2.249   7.762   7.400 -0.0097 -2.2741 -0.6578
  101MOL    H7426274   2.133   0.149   7.505 -0.7495  1.0527 -0.8384
  101MOL    H7526275   2.266   0.326   7.454 -0.7727 -2.7399  1.0839
  101MOL    H7626276   2.334   0.352   7.294  0.0096  0.8073  1.1564
  101MOL    H7726277   2.163   0.382   7.332  2.6279  3.3474 -0.3210
  101MOL    H7826278   1.962   7.691   7.387  0.2190  0.0044  0.9111
  101MOL    H7926279   2.004   7.796   7.250  0.2885 -0.9121 -0.1677
  101MOL    C8026280   2.096   7.609   7.249  0.4823  0.7833 -0.3250
  101MOL    N8126281   2.213   7.651   7.172 -0.4360 -0.6342 -0.9106
  101MOL    C8226282   2.330   7.589   7.161  0.5981 -0.4079 -0.5651
  101MOL    O8326283   2.354   7.480   7.207  0.4140  0.2264 -0.5304
  101MOL    C8426284   2.445   7.654   7.089 -0.1559 -0.5259 -0.2974
  101MOL    C8526285   1.987   7.539   7.159 -0.0645  0.4232 -0.3445
  101MOL    H8626286   2.126   7.536   7.324 -0.6837  0.9390  0.3125
  101MOL    H8726287   2.207   7.745   7.134  3.3241 -0.0140 -0.1048
  101MOL    H8826288   2.413   7.741   7.031  2.9479  0.1655 -1.0921
  101MOL    H8926289   2.530   7.684   7.150 -0.9522  0.9802  0.0927
  101MOL    H9026290   2.474   7.575   7.019  0.5569 -0.3702 -0.1852
  101MOL    H9126291   1.891   7.545   7.210 -0.3599 -1.1482 -0.6846
  101MOL    H9226292   1.976   7.610   7.077  2.1635  0.7098 -0.4325
  101MOL    C9326293   2.016   7.397   7.104  0.6324 -0.0067  0.4664
  101MOL    N9426294   1.906   7.369   7.007  0.4138 -0.3494 -0.4836
  101MOL    C9526295   1.915   7.297   6.892  0.4014 -0.0509 -0.5578
  101MOL    O9626296   2.015   7.240   6.842 -0.9639 -0.2522 -1.3984
  101MOL    C9726297   1.784   7.272   6.817 -1.0573 -0.3349 -0.6803
  101MOL    C9826298   2.016   7.291   7.215 -0.5239 -0.3550  0.2022
  101MOL    H9926299   2.116   7.390   7.060  0.4985 -1.6697  0.3707
  101MOL   H10026300   1.815   7.410   7.025  1.0017  0.8392 -0.1515
  101MOL   H10126301   1.698   7.320   6.864  1.7154  3.1876  1.0161
  101MOL   H10226302   1.804   7.338   6.732 -0.8889  2.0274  1.1496
  101MOL   H10326303   1.760   7.168   6.793  0.7591 -0.9517  0.1446
  101MOL   H10426304   2.064   7.321   7.309 -1.0441 -1.0173  0.6863
  101MOL   H10526305   1.913   7.292   7.251 -1.0355  1.0722 -1.2629
  101MOL   C10626306   2.068   7.152   7.171  0.0465 -0.4448  0.8037
  101MOL   N10726307   2.034   7.052   7.269 -0.1188 -0.4594 -0.1774
  101MOL   C10826308   1.914   6.998   7.281  0.0671 -0.4047  0.2333
  101MOL   O10926309   1.808   7.062   7.282 -0.4280  0.9101  0.3061
  101MOL   C11026310   1.916   6.850   7.314  0.3766 -0.1008  0.1531
  101MOL   C11126311   2.222   7.160   7.161  1.0677 -0.2837  0.1668
  101MOL   H11226312   2.028   7.114   7.078  1.6376 -1.4029  0.4954
  101MOL   H11326313   2.114   7.013   7.316 -1.0814 -1.3577  0.7293
  101MOL   H11426314   2.011   6.803   7.291  1.0749  1.8608 -1.1740
  101MOL   H11526315   1.892   6.822   7.416  1.1926 -0.0282  0.3645
  101MOL   H11626316   1.845   6.810   7.241  0.3701 -0.5822  0.4280
  101MOL   H11726317   2.253   7.257   7.124  0.2314  0.0071  0.2087
  101MOL   H11826318   2.264   7.169   7.260  2.2170  1.3466 -0.4529
  101MOL   C11926319   2.297   7.043   7.098  0.2457  0.8550  0.5375
  101MOL   N12026320   2.437   7.065   7.111  0.1653 -0.3915  0.3519
  101MOL   C12126321   2.506   7.006   7.206  0.3284  1.2900  0.4312
  101MOL   O12226322   2.455   6.934   7.299  0.1965 -1.0819  0.4106
  101MOL   C12326323   2.656   7.021   7.198 -0.0077  0.4063  0.1415
  101MOL   C12426324   2.263   7.029   6.951  0.4841  1.1262  1.4319
  101MOL   H12526325   2.272   6.952   7.152  0.4579  0.9340  0.7654
  101MOL   H12626326   2.475   7.101   7.024  0.7033 -0.7814  0.4181
  101MOL   H12726327   2.688   6.917   7.187 -0.2499  0.2931  0.4912
  101MOL   H12826328   2.692   7.078   7.113  1.5931 -0.8752 -0.0722
  101MOL   H12926329   2.694   7.069   7.288  0.0273  0.1448  0.2679
  101MOL   H13026330   2.224   7.120   6.906 -2.3137 -1.0540 -0.7606
  101MOL   H13126331   2.353   6.998   6.898 -0.7366  1.4842 -0.8989
  101MOL   C13226332   2.169   6.904   6.922  0.3292 -0.4206  0.2747
  101MOL   N13326333   2.242   6.779   6.939 -0.0313  0.6502  0.5430
  101MOL   C13426334   2.225   6.669   7.015 -0.5516 -0.1084  0.2398
  101MOL   O13526335   2.127   6.653   7.088 -0.3489 -0.0557 -0.7498
  101MOL   C13626336   2.338   6.570   7.016 -0.7102  0.9032 -0.7155
  101MOL   C13726337   2.114   6.908   6.774 -0.1594  0.1123  0.0473
  101MOL   H13826338   2.098   6.906   7.005  0.2320 -1.3710  0.2258
  101MOL   H13926339   2.319   6.764   6.875 -0.9241  2.1587 -0.9355
  101MOL   H14026340   2.440   6.606   7.026 -0.1672 -0.3684 -1.5404
  101MOL   H14126341   2.327   6.481   7.077 -0.6138  0.4965 -1.2860
  101MOL   H14226342   2.342   6.540   6.911  1.4469  2.0372 -0.9879
  101MOL   H14326343   2.054   6.996   6.753  0.2832  0.0792 -1.4472
  101MOL   H14426344   2.196   6.923   6.704 -1.1852  1.8146 -0.7986
  101MOL   C14526345   2.019   6.790   6.734  0.3887  0.3793 -0.1542
  101MOL   N14626346   2.006   6.795   6.591  0.2977 -0.0134  0.1956
  101MOL   C14726347   2.019   6.686   6.512  0.1372  0.4807 -0.5924
  101MOL   O14826348   2.082   6.583   6.538 -0.6720  0.3936 -0.0047
  101MOL   C14926349   1.956   6.684   6.371  0.4096 -0.5375  0.2745
  101MOL   C15026350   1.873   6.804   6.792 -0.7350 -0.4600 -0.4654
  101MOL   H15126351   2.069   6.698   6.763  0.6939  0.3303 -0.8313
  101MOL   H15226352   1.980   6.883   6.548  0.3391 -0.9638 -1.8615
  101MOL   H15326353   1.990   6.613   6.295 -2.3926 -1.1452 -0.4783
  101MOL   H15426354   1.861   6.631   6.379  1.2558 -2.3454 -1.1734
  101MOL   H15526355   1.959   6.781   6.321  0.8375 -1.7744 -2.1801
  101MOL   H15626356   1.879   6.811   6.900  3.5429  0.5655 -0.6846
  101MOL   H15726357   1.840   6.900   6.750 -2.2964 -2.0174 -2.9759
  101MOL   C15826358   1.765   6.701   6.742  0.2214 -0.3737  0.1924
  101MOL   N15926359   1.634   6.732   6.809  0.3190  0.1386  0.2481
  101MOL   C16026360   1.547   6.827   6.769 -0.4590 -0.4340  0.2309
  101MOL   O16126361   1.548   6.876   6.652 -0.5116  0.3315 -0.1189
  101MOL   C16226362   1.451   6.884   6.877  0.2590 -0.2981  0.5247
  101MOL   C16326363   1.807   6.548   6.762  0.3533  0.2523  0.5480
  101MOL   H16426364   1.756   6.723   6.636  0.0795 -1.3246  0.0038
  101MOL   H16526365   1.613   6.688   6.897 -1.9828  1.1095  0.2205
  101MOL   H16626366   1.361   6.825   6.861 -0.1837  0.6498 -0.4594
  101MOL   H16726367   1.494   6.864   6.976  0.7396  1.7003  0.7338
  101MOL   H16826368   1.417   6.987   6.876 -0.6095 -0.5638 -2.2388
  101MOL   H16926369   1.725   6.497   6.711 -1.6892 -0.2655  4.1679
  101MOL   H17026370   1.899   6.520   6.712 -0.1434 -1.4120  0.5234
  101MOL   C17126371   1.813   6.514   6.910 -0.3871  0.1738  0.5466
  101MOL   N17226372   1.936   6.444   6.938 -0.3196  0.2184  0.3155
  101MOL   C17326373   1.993   6.335   6.882 -0.2069 -1.0338  0.4826
  101MOL   O17426374   1.945   6.267   6.794 -0.0806  0.0778 -0.4063
  101MOL   C17526375   2.135   6.300   6.930 -0.1934 -0.5064 -0.3802
  101MOL   C17626376   1.692   6.421   6.955  0.5449 -0.0802  0.1977
  101MOL   H17726377   1.814   6.606   6.968 -2.2938  0.8289 -0.4316
  101MOL   H17826378   1.997   6.496   6.999 -0.8983  1.8024 -0.4258
  101MOL   H17926379   2.215   6.371   6.909 -1.2256  0.4942 -1.0138
  101MOL   H18026380   2.134   6.279   7.037  2.2092  1.1914  0.0199
  101MOL   H18126381   2.167   6.213   6.874 -0.8950 -1.8063  1.2150
  101MOL   H18226382   1.609   6.471   6.906  0.7228 -0.3807 -0.4134
  101MOL   H18326383   1.694   6.333   6.891 -0.3803  0.0310  0.0053
  101MOL   C18426384   1.664   6.412   7.106  0.6344 -0.3025  0.4137
  101MOL   N18526385   1.771   6.351   7.180 -0.6359 -0.1977  0.5650
  101MOL   C18626386   1.843   6.416   7.276  0.0615  0.8272 -0.0900
  101MOL   O18726387   1.819   6.527   7.329 -0.6270 -0.0296 -0.1082
  101MOL   C18826388   1.980   6.363   7.307 -0.6180 -0.1057 -0.2235
  101MOL   C18926389   1.543   6.316   7.132  0.0225 -0.2046 -0.3468
  101MOL   H19026390   1.656   6.517   7.132  1.6629 -0.4468  1.3540
  101MOL   H19126391   1.808   6.268   7.135 -0.7587  0.8312 -1.5010
  101MOL   H19226392   1.974   6.316   7.405  0.6167  0.0653 -0.0613
  101MOL   H19326393   2.011   6.297   7.226  0.3776  1.1109 -0.8521
  101MOL   H19426394   2.051   6.445   7.313 -0.2514 -0.2483 -2.2224
  101MOL   H19526395   1.563   6.233   7.064  3.4959  1.5041 -1.5551
  101MOL   H19626396   1.558   6.275   7.232  1.1564 -1.2885 -0.9401
  101MOL   C19726397   1.404   6.376   7.112 -0.0270  0.2201 -0.1036
  101MOL   N19826398   1.390   6.483   7.212 -0.1821  0.6391 -0.2852
  101MOL   C19926399   1.375   6.612   7.183  0.0821 -0.3995  0.2289
  101MOL   O20026400   1.373   6.657   7.066  0.5900  0.1996 -0.4865
  101MOL   C20126401   1.372   6.712   7.296  0.0877 -0.6303 -0.4933
  101MOL   C20226402   1.277   6.275   7.129 -0.5967  0.1427 -0.3239
  101MOL   H20326403   1.395   6.421   7.013  0.7109 -0.8710 -0.6733
  101MOL   H20426404   1.399   6.453   7.308  1.2754 -1.5391 -1.0549
  101MOL   H20526405   1.467   6.717   7.350 -0.2808  1.1015  0.0480
  101MOL   H20626406   1.339   6.811   7.265  0.0468 -0.8357 -1.1045
  101MOL   H20726407   1.306   6.691   7.380 -0.5825 -0.7077 -1.0331
  101MOL   H20826408   1.291   6.191   7.060 -0.7697 -1.1936  1.2428
  101MOL   H20926409   1.273   6.232   7.229 -0.0873  0.2696 -0.2465
  101MOL   C21026410   1.147   6.349   7.087  0.2945 -0.1337 -0.3048
  101MOL   N21126411   1.055   6.360   7.202 -0.1822  0.1591  0.0436
  101MOL   C21226412   1.023   6.477   7.256  0.9549 -0.2686  0.1026
  101MOL   O21326413   1.069   6.582   7.215  0.0435 -1.1401  0.6829
  101MOL   C21426414   0.933   6.479   7.381  0.5476  0.6743 -0.4185
  101MOL   C21526415   1.076   6.271   6.977  0.1883  0.2954  0.4647
  101MOL   H21626416   1.177   6.445   7.045  1.0988 -0.0806  0.3925
  101MOL   H21726417   0.992   6.290   7.238 -0.7175  0.3651 -0.4920
  101MOL   H21826418   0.903   6.582   7.401 -0.6305  0.5390 -1.4054
  101MOL   H21926419   0.839   6.426   7.365  0.2399  0.9556  0.4662
  101MOL   H22026420   0.997   6.444   7.461 -0.9720 -1.1947  0.0186
  101MOL   H22126421   1.055   6.172   7.019  0.8465 -1.2547 -2.7546
  101MOL   H22226422   0.981   6.314   6.947 -0.1103  0.3945  1.5244
  101MOL   C22326423   1.153   6.257   6.838 -0.2504  0.4335 -0.2410
  101MOL   N22426424   1.189   6.389   6.787 -0.2708 -0.2857 -0.7854
  101MOL   C22526425   1.307   6.417   6.735 -0.1411 -1.1970  0.8036
  101MOL   O22626426   1.402   6.342   6.741  0.3345  0.4412  0.3647
  101MOL   C22726427   1.328   6.548   6.659 -0.4177 -0.2468 -0.0184
  101MOL   C22826428   1.072   6.186   6.732  0.3336  0.2785 -0.0312
  101MOL   H22926429   1.244   6.201   6.861 -2.0039 -1.8265  1.3419
  101MOL   H23026430   1.120   6.461   6.773 -1.1437 -0.9545  0.0241
  101MOL   H23126431   1.369   6.619   6.730  0.1058 -0.6419  0.0812
  101MOL   H23226432   1.398   6.531   6.577  0.5885  2.3659  0.2484
  101MOL   H23326433   1.232   6.579   6.617 -1.2189  0.1454  2.0800
  101MOL   H23426434   0.983   6.238   6.700 -0.5757 -0.2568  1.5406
  101MOL   H23526435   1.143   6.174   6.650  1.6673 -3.7018  1.5594
  101MOL   C23626436   1.029   6.043   6.765 -0.0724 -0.1996 -0.3741
  101MOL   N23726437   1.133   5.956   6.813  0.2017  0.7307 -0.1759
  101MOL   C23826438   1.133   5.877   6.919 -0.1992  0.1321  0.7122
  101MOL   O23926439   1.028   5.862   6.990  0.1358 -0.3666 -0.3287
  101MOL   C24026440   1.262   5.817   6.956 -0.5234  0.5830  0.3607
  101MOL   C24126441   0.954   5.989   6.644 -0.4202 -0.5400 -0.4677
  101MOL   H24226442   0.954   6.044   6.844 -0.4167  0.3627 -0.7092
  101MOL   H24326443   1.219   5.949   6.761  0.8794 -1.2549  1.1484
  101MOL   H24426444   1.303   5.841   7.054  0.0733  0.1730  0.2104
  101MOL   H24526445   1.255   5.708   6.956  4.0141  0.1907 -2.2314
  101MOL   H24626446   1.335   5.834   6.877 -1.2649  2.5541  0.0763
  101MOL   H24726447   0.876   6.060   6.620  0.4955  0.5212 -0.3669
  101MOL   H24826448   1.022   5.973   6.560  0.4468  2.0137 -0.2751
  101MOL   C24926449   0.867   5.855   6.665 -0.4162  0.2982  0.0558
  101MOL   N25026450   0.822   5.801   6.537  0.5157 -0.1647  0.0271
  101MOL   C25126451   0.905   5.734   6.453 -0.1161  0.1734  0.1111
  101MOL   O25226452   1.006   5.683   6.487 -0.7111  0.5646  0.6549
  101MOL   C25326453   0.864   5.717   6.308  0.0624 -0.6311 -0.2641
  101MOL   C25426454   0.745   5.874   6.751  0.2302  1.2013 -0.6227
  101MOL   H25526455   0.929   5.775   6.708 -1.1120 -0.0583  0.3975
  101MOL   H25626456   0.732   5.820   6.496 -0.4511  0.4076  2.2892
  101MOL   H25726457   0.757   5.697   6.314  0.2973 -1.7962  0.1245
  101MOL   H25826458   0.867   5.812   6.253 -0.1845  0.1520  1.0527
  101MOL   H25926459   0.908   5.631   6.258  0.6536 -1.6887  2.0060
  101MOL   H26026460   0.780   5.895   6.852  2.0007  0.3084 -1.0316
  101MOL   H26126461   0.678   5.955   6.724  0.5400  2.4980  2.3076
  101MOL   H26226462   0.680   5.786   6.750 -0.5396  1.7068  1.8216
  102MOL     C126463   1.600   1.929   5.952  0.0328 -0.1380 -0.1570
  102MOL     N226464   1.721   1.852   5.936 -0.8785  0.0528  0.0360
  102MOL     C326465   1.742   1.721   5.957  0.4042 -0.5278 -0.4178
  102MOL     O426466   1.647   1.643   5.986 -0.5090  0.6167 -0.3411
  102MOL     C526467   1.882   1.668   5.945 -0.4353  0.3169  0.6973
  102MOL     C626468   1.634   2.082   5.908 -0.3412 -0.4297 -0.0788
  102MOL     H726469   1.512   1.899   5.895 -1.0780 -0.5946  1.7382
  102MOL     H826470   1.805   1.909   5.940 -0.3953 -0.4117 -2.4965
  102MOL     H926471   1.896   1.583   5.878  0.1495 -1.5900  3.1614
  102MOL    H1026472   1.947   1.750   5.914 -1.6055  1.8446  2.2164
  102MOL    H1126473   1.913   1.625   6.040 -0.1523 -1.8798 -0.3602
  102MOL    H1226474   1.737   2.082   5.874 -0.4610  2.2970 -0.5060
  102MOL    H1326475   1.568   2.112   5.826 -1.5548 -0.0555  1.0162
  102MOL    H1426476   1.567   1.925   6.056 -1.1553 -0.0567 -0.5181
  102MOL    C1526477   1.613   2.187   6.021 -0.1308  0.8010 -0.4650
  102MOL    N1626478   1.464   2.204   6.043 -0.1566 -0.2052  0.2281
  102MOL    C1726479   1.378   2.262   5.961 -0.2895 -0.3630 -0.1858
  102MOL    O1826480   1.420   2.310   5.854  0.6956  0.5737  0.2572
  102MOL    C1926481   1.232   2.266   5.989  0.3660  0.1434  0.7128
  102MOL    C2026482   1.686   2.324   6.007 -0.5838  0.7390  0.7225
  102MOL    H2126483   1.656   2.136   6.108  0.5379  1.1448 -0.5885
  102MOL    H2226484   1.424   2.166   6.128 -0.9508 -1.9771 -0.9260
  102MOL    H2326485   1.193   2.366   6.009  3.0055  1.5926 -1.0339
  102MOL    H2426486   1.181   2.225   5.902 -0.7166  0.4159  1.2051
  102MOL    H2526487   1.215   2.206   6.078  1.0156  1.4202  1.7078
  102MOL    H2626488   1.643   2.364   5.915  1.3988 -2.5010 -1.7327
  102MOL    H2726489   1.643   2.389   6.083 -2.0815 -0.3189  0.8077
  102MOL    C2826490   1.836   2.337   5.993  0.8658 -0.0545 -0.2586
  102MOL    N2926491   1.905   2.249   6.095 -0.0274  0.3241  0.1898
  102MOL    C3026492   1.972   2.133   6.071  0.4116 -0.2941 -0.1518
  102MOL    O3126493   1.959   2.065   5.966  0.7293 -0.1237 -0.6223
  102MOL    C3226494   2.061   2.079   6.180  0.0675 -0.1775 -0.3097
  102MOL    C3326495   1.893   2.480   6.007  0.1241  0.1230  0.7986
  102MOL    H3426496   1.865   2.297   5.895  0.0773 -0.1974 -0.4349
  102MOL    H3526497   1.910   2.289   6.187  0.7932  0.0083  0.2885
  102MOL    H3626498   2.112   1.988   6.147  0.4621 -0.9157  2.2445
  102MOL    H3726499   2.134   2.155   6.207  0.1702 -0.8393  1.3571
  102MOL    H3826500   2.010   2.053   6.272  0.1465  2.7017  0.5921
  102MOL    H3926501   1.872   2.526   6.103 -0.8316  1.6744 -0.1317
  102MOL    H4026502   2.001   2.466   6.004  0.0154 -0.5109 -2.1375
  102MOL    C4126503   1.855   2.585   5.906 -0.2103  0.2211  0.3371
  102MOL    N4226504   1.719   2.636   5.941  0.0987 -0.5376 -0.2436
  102MOL    C4326505   1.687   2.752   6.001  0.1378  0.0329 -0.6181
  102MOL    O4426506   1.766   2.827   6.056 -0.6137 -0.2185  0.2910
  102MOL    C4526507   1.548   2.789   5.973  0.6204 -0.2238 -0.5114
  102MOL    C4626508   1.874   2.549   5.761 -0.3113 -0.0321  0.5503
  102MOL    H4726509   1.915   2.674   5.924  1.5154 -0.0487 -3.5141
  102MOL    H4826510   1.642   2.603   5.884  0.8127 -0.6265 -1.1689
  102MOL    H4926511   1.540   2.849   5.882  0.0759 -0.7476 -0.8096
  102MOL    H5026512   1.491   2.697   5.977 -0.8161  0.5502 -2.5032
  102MOL    H5126513   1.509   2.837   6.063  2.6620 -0.6638  0.6492
  102MOL    H5226514   1.812   2.461   5.739  1.1574 -0.9341 -0.0271
  102MOL    H5326515   1.847   2.635   5.700  1.4306 -0.7838 -1.3424
  102MOL    C5426516   2.016   2.506   5.727  0.6733 -0.4450  0.0714
  102MOL    N5526517   2.113   2.611   5.764  0.2296 -0.0121  0.0299
  102MOL    C5626518   2.244   2.579   5.789 -0.1179  0.1952  0.2476
  102MOL    O5726519   2.277   2.460   5.790 -0.8797 -0.0383 -0.0852
  102MOL    C5826520   2.348   2.696   5.801  0.2636  0.2086  0.3553
  102MOL    C5926521   2.032   2.484   5.569  0.0433  0.4159  0.2179
  102MOL    H6026522   2.038   2.416   5.786  2.4857  0.0391  0.1820
  102MOL    H6126523   2.083   2.705   5.784  1.0609 -0.0310  1.5139
  102MOL    H6226524   2.315   2.779   5.739 -2.9601 -2.5927 -1.9044
  102MOL    H6326525   2.365   2.726   5.904  2.2869  0.0232  0.1027
  102MOL    H6426526   2.446   2.661   5.767 -0.3424  0.0165 -1.2280
  102MOL    H6526527   2.001   2.578   5.524 -1.4585  0.6850  1.7621
  102MOL    H6626528   2.137   2.463   5.545  0.3493  0.9671  1.0265
  102MOL    C6726529   1.955   2.373   5.507  0.5336  0.4668  1.0394
  102MOL    N6826530   1.979   2.245   5.578  0.4777  0.0890 -0.1424
  102MOL    C6926531   2.087   2.172   5.588  0.0349  1.3292  0.0902
  102MOL    O7026532   2.195   2.189   5.520  1.1473 -0.2810  0.9413
  102MOL    C7126533   2.073   2.050   5.679  0.1769  0.6014  0.0861
  102MOL    C7226534   1.975   2.362   5.354 -0.0350 -0.0618  0.8699
  102MOL    H7326535   1.849   2.390   5.525 -0.3312 -2.4515 -0.9254
  102MOL    H7426536   1.905   2.229   5.644  0.7452  1.2016  0.4452
  102MOL    H7526537   2.134   2.069   5.768  1.9516 -0.6921 -0.8387
  102MOL    H7626538   1.972   2.042   5.720  0.4450 -1.2921  0.4205
  102MOL    H7726539   2.097   1.957   5.629 -1.2648  0.7093 -0.8023
  102MOL    H7826540   1.954   2.455   5.302  1.4804 -0.8669 -1.2626
  102MOL    H7926541   2.083   2.347   5.349  0.2668  1.0401  3.2142
  102MOL    C8026542   1.896   2.252   5.278  0.3536  0.3725 -0.4466
  102MOL    N8126543   1.922   2.268   5.129 -0.5687  0.1969  0.1855
  102MOL    C8226544   2.034   2.233   5.063  0.4579 -0.3517 -0.9829
  102MOL    O8326545   2.053   2.271   4.950 -0.4376 -0.4017 -0.5164
  102MOL    C8426546   2.140   2.149   5.133  0.0819 -0.1632  0.2983
  102MOL    C8526547   1.742   2.271   5.296  0.9528  0.1220  0.1897
  102MOL    H8626548   1.930   2.151   5.300  1.3198 -0.0137 -3.5250
  102MOL    H8726549   1.866   2.331   5.073 -0.5681 -0.5655 -0.6850
  102MOL    H8826550   2.201   2.103   5.055  0.9014  1.8149 -0.2423
  102MOL    H8926551   2.207   2.214   5.190  0.9840 -1.2324  0.4794
  102MOL    H9026552   2.101   2.064   5.190  2.6179 -2.1629 -0.8218
  102MOL    H9126553   1.728   2.260   5.404 -0.7756  2.0235  0.1780
  102MOL    H9226554   1.711   2.374   5.284 -0.4667 -0.3647 -0.4399
  102MOL    C9326555   1.643   2.171   5.236  0.7230 -0.2476  0.6807
  102MOL    N9426556   1.609   2.226   5.109  0.1371 -0.1248  0.2536
  102MOL    C9526557   1.571   2.160   4.998  0.5308  0.6274  0.1446
  102MOL    O9626558   1.580   2.036   4.993 -0.8484 -0.1082  0.0328
  102MOL    C9726559   1.513   2.237   4.880  0.0620  0.1164 -0.0447
  102MOL    C9826560   1.515   2.160   5.310 -0.3096 -0.4498 -0.6190
  102MOL    H9926561   1.696   2.077   5.226  2.3625  0.6061  1.1004
  102MOL   H10026562   1.596   2.326   5.103 -2.4750 -0.2453  2.6962
  102MOL   H10126563   1.417   2.279   4.911  0.9090  1.0868  1.3659
  102MOL   H10226564   1.574   2.325   4.860  0.2064 -0.0278 -0.2355
  102MOL   H10326565   1.518   2.168   4.796  0.7504 -0.0187  0.1024
  102MOL   H10426566   1.488   2.264   5.325 -1.4675 -0.6264 -1.4044
  102MOL   H10526567   1.443   2.102   5.251 -0.6434 -0.8583  0.1763
  102MOL   C10626568   1.516   2.091   5.449  0.4737 -0.2739  0.1085
  102MOL   N10726569   1.595   1.967   5.455  0.0204  0.2528  0.9965
  102MOL   C10826570   1.695   1.948   5.545 -0.9956 -0.6078 -0.3082
  102MOL   O10926571   1.726   2.039   5.626 -0.2271  0.3446 -0.1286
  102MOL   C11026572   1.777   1.822   5.543 -0.2861  0.5610 -0.4592
  102MOL   C11126573   1.376   2.070   5.520 -0.7849  0.3806 -0.1799
  102MOL   H11226574   1.561   2.167   5.512  0.0778  0.1770 -0.1521
  102MOL   H11326575   1.575   1.895   5.387 -1.0518 -0.9528  2.5588
  102MOL   H11426576   1.798   1.794   5.646 -0.3869 -0.3032 -0.6703
  102MOL   H11526577   1.732   1.744   5.482 -1.1991  0.1569  0.7151
  102MOL   H11626578   1.878   1.824   5.502  0.2746 -1.0997  0.7823
  102MOL   H11726579   1.341   1.974   5.483  0.6713  0.6110 -2.2661
  102MOL   H11826580   1.384   2.058   5.628  3.9162 -1.6499 -0.6488
  102MOL   C11926581   1.280   2.189   5.497 -0.1715 -0.9317  0.0670
  102MOL   N12026582   1.337   2.310   5.562 -0.0528 -0.4014  0.2812
  102MOL   C12126583   1.341   2.430   5.509  0.4203 -0.9541 -0.0303
  102MOL   O12226584   1.327   2.458   5.393  0.3111 -0.1567  0.3970
  102MOL   C12326585   1.356   2.549   5.595  0.6176 -0.4704 -0.1165
  102MOL   C12426586   1.132   2.154   5.545  0.1751 -0.0508 -0.0696
  102MOL   H12526587   1.273   2.207   5.390 -2.2356  0.0124  0.3282
  102MOL   H12626588   1.351   2.295   5.661 -1.3952 -2.9503  0.1334
  102MOL   H12726589   1.411   2.512   5.682  1.7228  0.8317 -0.2465
  102MOL   H12826590   1.419   2.621   5.545 -0.1938  1.7355  1.9314
  102MOL   H12926591   1.265   2.595   5.634 -0.4366 -1.8097 -0.9423
  102MOL   H13026592   1.083   2.081   5.481  0.9836 -0.7562  0.1130
  102MOL   H13126593   1.126   2.107   5.643 -0.7000 -0.4104 -0.2873
  102MOL   C13226594   1.029   2.272   5.547  0.0675 -0.1740  0.0052
  102MOL   N13326595   0.905   2.218   5.598  0.0758 -0.0368  0.3656
  102MOL   C13426596   0.831   2.240   5.706 -1.1149 -0.1608 -0.7905
  102MOL   O13526597   0.846   2.328   5.790  0.3308  0.2166  0.2725
  102MOL   C13626598   0.705   2.151   5.709 -0.0868  0.3001  0.3412
  102MOL   C13726599   0.999   2.343   5.408 -0.2346 -0.1908  0.1871
  102MOL   H13826600   1.062   2.341   5.625 -1.1636  0.7743 -0.2842
  102MOL   H13926601   0.857   2.158   5.532  0.4924  2.6640 -2.4812
  102MOL   H14026602   0.733   2.049   5.682 -0.8273 -0.2727  1.7334
  102MOL   H14126603   0.680   2.150   5.815 -0.6027 -0.4023  0.2087
  102MOL   H14226604   0.632   2.194   5.640 -1.2346 -3.0373 -0.6002
  102MOL   H14326605   1.090   2.334   5.349 -0.1140 -0.9831  0.4857
  102MOL   H14426606   0.920   2.287   5.357 -0.5581 -0.1047  0.5937
  102MOL   C14526607   0.956   2.493   5.409  0.4364  0.6511  0.6161
  102MOL   N14626608   0.844   2.520   5.496 -0.0886 -0.1810  1.0118
  102MOL   C14726609   0.715   2.484   5.503 -0.2248 -0.1518  0.7301
  102MOL   O14826610   0.668   2.411   5.419  0.0790 -0.1627  0.8373
  102MOL   C14926611   0.628   2.526   5.619 -0.4396  0.0586  0.3451
  102MOL   C15026612   0.927   2.548   5.260 -0.5302  0.4507  1.3139
  102MOL   H15126613   1.039   2.559   5.437  1.7643  0.0340 -1.7259
  102MOL   H15226614   0.879   2.576   5.573 -0.5317  0.4287  0.7716
  102MOL   H15326615   0.668   2.594   5.694  1.7989 -2.6391  1.7164
  102MOL   H15426616   0.538   2.570   5.575  2.0138  3.1729 -1.7720
  102MOL   H15526617   0.597   2.438   5.675 -1.2529 -1.4804 -2.4253
  102MOL   H15626618   0.848   2.489   5.213  3.0339 -1.2257 -2.9989
  102MOL   H15726619   0.893   2.651   5.260  0.1243  0.7305 -1.4960
  102MOL   C15826620   1.047   2.542   5.157 -0.5641  0.7539  0.3700
  102MOL   N15926621   1.166   2.622   5.198  0.4168  0.4262  0.4144
  102MOL   C16026622   1.168   2.755   5.212  0.4126 -0.2655  0.4088
  102MOL   O16126623   1.081   2.825   5.161  0.8033  0.3828  0.5550
  102MOL   C16226624   1.283   2.815   5.286 -0.2660  0.0787  0.0764
  102MOL   C16326625   1.001   2.577   5.010  0.0405  0.8379  0.5490
  102MOL   H16426626   1.089   2.442   5.160 -1.2421  0.4907  1.6882
  102MOL   H16526627   1.239   2.566   5.241 -0.0541  1.2682  2.3963
  102MOL   H16626628   1.379   2.788   5.242  0.8412 -0.2090  2.5976
  102MOL   H16726629   1.275   2.923   5.292  0.6207  0.0955  1.0577
  102MOL   H16826630   1.282   2.782   5.390 -2.3032  1.4367  0.5153
  102MOL   H16926631   0.947   2.671   5.010 -0.6190  0.4678 -0.7190
  102MOL   H17026632   1.087   2.607   4.949  0.2600 -1.0572 -0.1142
  102MOL   C17126633   0.912   2.472   4.937 -0.0530  0.3320 -0.8014
  102MOL   N17226634   0.979   2.407   4.825  0.2442 -0.6513 -0.5277
  102MOL   C17326635   0.993   2.472   4.710 -0.1696  0.0359  0.0076
  102MOL   O17426636   0.964   2.586   4.689 -0.1873  0.3256 -0.2982
  102MOL   C17526637   1.037   2.388   4.596  0.0695  0.3302 -0.5914
  102MOL   C17626638   0.765   2.520   4.914 -0.1680  0.4118  0.4884
  102MOL   H17726639   0.918   2.380   4.996  1.3477 -0.3884 -2.0127
  102MOL   H17826640   1.021   2.316   4.828 -1.3930 -1.3813  1.0279
  102MOL   H17926641   1.038   2.451   4.507 -3.7661  4.0466  1.8514
  102MOL   H18026642   1.132   2.336   4.609  0.3544  1.4270  1.9761
  102MOL   H18126643   0.970   2.304   4.576  1.1921 -0.2094 -2.1801
  102MOL   H18226644   0.717   2.541   5.010  1.1976  0.0204  1.2658
  102MOL   H18326645   0.759   2.615   4.861  1.7086  0.6670  0.7112
  102MOL   C18426646   0.671   2.442   4.822  0.6165  0.4656  0.0508
  102MOL   N18526647   0.540   2.516   4.819  0.5995 -0.2773  0.1366
  102MOL   C18626648   0.457   2.503   4.711  0.2389 -0.7564 -0.2092
  102MOL   O18726649   0.481   2.431   4.617  0.2509  0.2511 -0.0642
  102MOL   C18826650   0.321   2.581   4.724 -0.1371  0.3294  0.4286
  102MOL   C18926651   0.672   2.294   4.860  0.0252 -0.3582  0.1829
  102MOL   H19026652   0.708   2.453   4.720 -1.0189  0.5714 -0.5443
  102MOL   H19126653   0.513   2.576   4.895 -0.5677 -2.6224  1.6391
  102MOL   H19226654   0.251   2.534   4.794 -0.6795  2.9694  1.7196
  102MOL   H19326655   0.332   2.686   4.750 -1.0637  1.5527 -3.6948
  102MOL   H19426656   0.273   2.580   4.626 -0.7187 -0.8351  0.7170
  102MOL   H19526657   0.610   2.246   4.784 -0.0789 -2.7390  1.7127
  102MOL   H19626658   0.774   2.263   4.842  0.8722  1.4682  1.6412
  102MOL   C19726659   0.632   2.250   4.997  0.2303  0.1448 -0.0606
  102MOL   N19826660   0.687   2.115   5.025  0.0232 -0.4398  0.1720
  102MOL   C19926661   0.804   2.089   5.086  0.1421 -0.0940 -0.0958
  102MOL   O20026662   0.895   2.166   5.117  0.0619  0.1848 -0.7028
  102MOL   C20126663   0.820   1.946   5.134  0.7163  0.0021  0.8775
  102MOL   C20226664   0.477   2.253   5.024 -0.5049  0.1098 -0.3494
  102MOL   H20326665   0.688   2.307   5.072 -0.3883  1.3110 -0.4730
  102MOL   H20426666   0.619   2.041   5.016 -0.0647 -0.1981 -1.1897
  102MOL   H20526667   0.814   1.872   5.053 -1.3058 -0.6392  1.5899
  102MOL   H20626668   0.916   1.930   5.184 -0.8034 -1.5469  3.4268
  102MOL   H20726669   0.740   1.931   5.206 -0.3157  1.5185  0.0596
  102MOL   H20826670   0.436   2.331   4.960 -1.5487  0.7065  1.0123
  102MOL   H20926671   0.435   2.158   4.992 -0.2021 -0.3055  0.4576
  102MOL   C21026672   0.437   2.283   5.171 -0.3405  0.0029 -0.0295
  102MOL   N21126673   0.483   2.189   5.271  0.1255 -1.0994  0.9055
  102MOL   C21226674   0.463   2.062   5.295 -0.4983 -0.3940 -0.1421
  102MOL   O21326675   0.406   1.987   5.218 -0.3505  0.3754 -0.2129
  102MOL   C21426676   0.493   2.018   5.439  0.0219 -0.0711  0.5139
  102MOL   C21526677   0.281   2.316   5.191  0.9317 -0.3277  1.2095
  102MOL   H21626678   0.489   2.377   5.188  0.0866 -0.1221 -0.6537
  102MOL   H21726679   0.538   2.229   5.345  1.1840 -2.0506  0.6544
  102MOL   H21826680   0.505   1.909   5.445  1.1404  0.0589  0.7794
  102MOL   H21926681   0.592   2.061   5.457 -0.2668  0.2670  1.3361
  102MOL   H22026682   0.414   2.053   5.505 -0.3289  1.2045 -0.5762
  102MOL   H22126683   0.221   2.242   5.137 -1.5625  1.4976  1.3717
  102MOL   H22226684   0.248   2.313   5.294 -0.6653  1.8904  0.7985
  102MOL   C22326685   0.232   2.453   5.137  0.3401 -0.2464 -0.4183
  102MOL   N22426686   0.293   2.566   5.204 -0.2993 -0.3321  0.1537
  102MOL   C22526687   0.350   2.671   5.142  0.7387 -0.2621  0.2579
  102MOL   O22626688   0.355   2.680   5.015 -0.5443 -0.3495  1.2546
  102MOL   C22726689   0.379   2.798   5.227 -0.7397 -0.4489 -0.2642
  102MOL   C22826690   0.074   2.465   5.153  1.0724 -0.0754 -0.5228
  102MOL   H22926691   0.260   2.456   5.032  0.6744  2.5644 -0.2896
  102MOL   H23026692   0.279   2.568   5.304 -0.2029  1.5727  0.1425
  102MOL   H23126693   0.382   2.884   5.160  0.4461  0.9669  1.5570
  102MOL   H23226694   0.298   2.819   5.297 -1.7802 -2.0651 -0.9602
  102MOL   H23326695   0.478   2.790   5.272 -0.9279  1.5725  0.5423
  102MOL   H23426696   0.047   2.462   5.258  1.2480  2.0007 -0.3947
  102MOL   H23526697   0.034   2.564   5.129  0.5240 -0.7195 -2.3066
  102MOL   C23626698   7.825   2.352   5.084 -0.9312  0.2014 -0.8851
  102MOL   N23726699   7.814   2.224   5.152 -0.1141  0.0828 -0.4342
  102MOL   C23826700   7.753   2.199   5.267 -0.0695 -0.3875 -0.2630
  102MOL   O23926701   7.682   2.285   5.329 -0.1347 -0.1391 -0.0848
  102MOL   C24026702   7.775   2.060   5.322 -0.0787  0.5597 -0.1702
  102MOL   C24126703   0.025   2.320   4.932  0.4815  0.1381  0.2562
  102MOL   H24226704   7.721   2.387   5.080 -0.9328  0.2109 -0.7436
  102MOL   H24326705   7.837   2.141   5.099 -0.6166 -0.7225  0.6036
  102MOL   H24426706   7.680   2.008   5.320 -0.0007  0.4177 -0.2190
  102MOL   H24526707   0.000   2.004   5.254  2.7454  1.8421  1.3687
  102MOL   H24626708   7.808   2.061   5.426 -1.9493 -1.2288  0.4830
  102MOL   H24726709   0.048   2.420   4.896  1.5168 -0.1799 -0.0083
  102MOL   H24826710   0.119   2.265   4.930 -0.7815 -2.0805  0.7479
  102MOL   C24926711   7.754   2.259   4.836 -0.1740 -0.6173  0.6067
  102MOL   N25026712   7.673   2.141   4.878 -0.7706  0.2400 -0.1667
  102MOL   C25126713   7.712   2.027   4.934  0.1600 -0.1086  0.2175
  102MOL   O25226714   7.829   2.014   4.971 -0.3559 -0.1740  0.0900
  102MOL   C25326715   7.613   1.909   4.950  0.3323 -0.0799  0.0518
  102MOL   C25426716   7.813   2.221   4.696 -0.1063 -0.4440  0.0924
  102MOL   H25526717   7.677   2.335   4.818  2.0597  1.2926 -1.1543
  102MOL   H25626718   7.574   2.156   4.875 -0.9805 -0.7435  1.1962
  102MOL   H25726719   7.533   1.954   5.008  1.3855  0.1443  1.3719
  102MOL   H25826720   7.572   1.871   4.857  1.8265  0.2133 -0.7545
  102MOL   H25926721   7.653   1.818   4.996  0.5895  0.6228  1.2644
  102MOL   H26026722   7.835   2.303   4.628  0.2971  0.7327  1.6319
  102MOL   H26126723   0.060   2.156   4.707  1.0025  0.8866 -0.6612
  102MOL   H26226724   7.739   2.164   4.640  0.1428  0.4990 -1.2250
  103MOL     C126725   6.457   5.399   0.001 -0.1126  0.4366 -0.6954
  103MOL     N226726   6.520   5.529   7.834 -0.4371  0.8798 -0.3173
  103MOL     C326727   6.473   5.640   7.771 -0.5437  0.0320 -0.3928
  103MOL     O426728   6.363   5.645   7.721  0.0249  0.5450 -0.1124
  103MOL     C526729   6.580   5.758   7.773  0.4228 -0.2551 -0.2656
  103MOL     C626730   6.492   5.330   0.131 -0.2245 -0.8252 -0.0834
  103MOL     H726731   6.350   5.406   7.823 -0.4882 -1.4445  0.6018
  103MOL     H826732   6.615   5.540   0.025  0.5901 -1.8200 -2.3016
  103MOL     H926733   6.569   5.802   0.032  0.1500  2.1270 -1.3354
  103MOL    H1026734   6.678   5.727   7.735  0.2365 -0.4205 -0.6069
  103MOL    H1126735   6.532   5.836   7.715 -3.6258  0.1528  3.3905
  103MOL    H1226736   6.600   5.331   0.129 -0.1721  1.7236  1.4579
  103MOL    H1326737   6.470   5.393   0.217 -0.1695 -0.9371  0.0133
  103MOL    H1426738   6.490   5.332   7.762  1.0195 -0.0059  0.1361
  103MOL    C1526739   6.427   5.193   0.152 -0.3882 -0.5135 -0.4275
  103MOL    N1626740   6.281   5.183   0.149  0.5007  0.5623  0.6417
  103MOL    C1726741   6.201   5.075   0.135 -0.6724  0.7070 -0.4524
  103MOL    O1826742   6.251   4.959   0.122 -0.6468 -0.6970 -0.1236
  103MOL    C1926743   6.046   5.092   0.137  0.4809  0.1305  0.1658
  103MOL    C2026744   6.494   5.118   0.268 -0.4832 -0.0010 -0.1589
  103MOL    H2126745   6.458   5.135   0.065 -1.8407 -2.2485  0.1851
  103MOL    H2226746   6.219   5.262   0.159 -0.4390 -0.4869  3.7071
  103MOL    H2326747   5.995   4.999   0.112  1.5660 -0.5410  0.3829
  103MOL    H2426748   6.023   5.133   0.235  1.4582 -0.3871  0.6239
  103MOL    H2526749   6.020   5.165   0.060 -2.4715 -0.7739  0.2661
  103MOL    H2626750   6.426   5.035   0.285 -2.0565  0.5622 -3.4592
  103MOL    H2726751   6.587   5.082   0.224 -0.3433  0.1465  0.0141
  103MOL    C2826752   6.529   5.185   0.404 -1.1303 -0.0548 -0.5756
  103MOL    N2926753   6.603   5.078   0.474  0.4407  0.1172 -0.4094
  103MOL    C3026754   6.736   5.081   0.488  0.2650  0.3635  0.2281
  103MOL    O3126755   6.806   5.158   0.427  0.1051 -0.2742  0.7524
  103MOL    C3226756   6.795   4.964   0.558 -0.1671 -0.7755  0.7249
  103MOL    C3326757   6.411   5.248   0.484 -0.2458  0.3712 -0.0842
  103MOL    H3426758   6.584   5.277   0.386  0.3766 -0.4362  1.8042
  103MOL    H3526759   6.552   4.991   0.480  1.7597 -0.5203  2.2178
  103MOL    H3626760   6.856   4.998   0.641 -0.5493 -1.3598  1.2500
  103MOL    H3726761   6.717   4.896   0.595 -1.8783 -0.0652 -1.4751
  103MOL    H3826762   6.853   4.904   0.488 -0.6122  0.7338 -0.9724
  103MOL    H3926763   6.374   5.341   0.441 -0.7800  0.7116  1.0774
  103MOL    H4026764   6.328   5.178   0.476 -0.7982  0.7244  2.1314
  103MOL    C4126765   6.426   5.277   0.631  0.2880 -0.2479 -0.3156
  103MOL    N4226766   6.308   5.351   0.689 -0.1706 -0.0305  0.4007
  103MOL    C4326767   6.271   5.478   0.676 -0.8654 -0.8464 -0.2574
  103MOL    O4426768   6.330   5.555   0.596 -0.0983  0.3163  0.1919
  103MOL    C4526769   6.143   5.519   0.748 -0.0451  0.0313 -0.3158
  103MOL    C4626770   6.554   5.359   0.665  0.3513  0.0603  0.1726
  103MOL    H4726771   6.422   5.174   0.667 -2.8510  0.4963  1.5477
  103MOL    H4826772   6.253   5.303   0.759 -1.6237  0.1743 -0.5739
  103MOL    H4926773   6.063   5.533   0.674 -1.4319  0.1505  1.1827
  103MOL    H5026774   6.119   5.444   0.823  0.1649  0.6928  0.4084
  103MOL    H5126775   6.164   5.617   0.790  1.3564 -0.2769 -0.2668
  103MOL    H5226776   6.631   5.326   0.595 -1.7561 -1.8733 -1.2829
  103MOL    H5326777   6.546   5.464   0.638 -1.1172 -0.1468 -0.2376
  103MOL    C5426778   6.596   5.348   0.817 -0.1301 -0.2338  0.4294
  103MOL    N5526779   6.513   5.426   0.909  0.6547 -0.3274  0.4540
  103MOL    C5626780   6.509   5.556   0.928 -1.2455 -0.7302 -0.3165
  103MOL    O5726781   6.577   5.626   0.858 -0.6809  0.2578 -0.4196
  103MOL    C5826782   6.424   5.602   1.041  0.5505 -0.5500 -0.1532
  103MOL    C5926783   6.754   5.360   0.843 -0.4299  0.2019  0.4020
  103MOL    H6026784   6.564   5.247   0.840  0.7079 -0.4368  0.6915
  103MOL    H6126785   6.472   5.372   0.984 -3.0426 -1.4770 -2.2635
  103MOL    H6226786   6.319   5.578   1.026 -0.5053  2.4301  1.7907
  103MOL    H6326787   6.467   5.568   1.136  0.8094 -0.5371 -0.2639
  103MOL    H6426788   6.429   5.711   1.044  0.3262 -0.5495  0.1942
  103MOL    H6526789   6.789   5.318   0.749  0.6490  1.8589  0.0489
  103MOL    H6626790   6.790   5.463   0.837  2.8389 -0.8437  1.1464
  103MOL    C6726791   6.814   5.266   0.954 -0.7984 -0.4074 -0.2087
  103MOL    N6826792   6.948   5.309   0.990  0.0892 -0.4447 -0.2528
  103MOL    C6926793   6.993   5.321   1.116 -0.3956 -0.7838  0.5916
  103MOL    O7026794   6.919   5.305   1.215 -0.0172 -0.0596  0.0534
  103MOL    C7126795   7.145   5.353   1.127  0.2895  0.1197  0.2963
  103MOL    C7226796   6.818   5.122   0.901 -0.4923  0.1175  0.1995
  103MOL    H7326797   6.752   5.287   1.042  1.5319 -1.7755  1.8216
  103MOL    H7426798   7.009   5.341   0.916 -0.2605 -0.0248 -0.3616
  103MOL    H7526799   7.177   5.457   1.124  1.7147 -0.3235  0.0696
  103MOL    H7626800   7.190   5.287   1.200 -0.1772 -2.5539 -1.7753
  103MOL    H7726801   7.189   5.323   1.032  1.8158  3.7050 -0.2196
  103MOL    H7826802   6.739   5.101   0.829 -1.8621  1.6834  1.2168
  103MOL    H7926803   6.904   5.104   0.836 -0.2132  3.3421 -0.3847
  103MOL    C8026804   6.817   5.022   1.016 -0.0209 -0.2681  0.1509
  103MOL    N8126805   6.919   4.926   0.990  0.0413 -0.9299  0.9962
  103MOL    C8226806   7.014   4.881   1.069 -0.6446  0.2620 -0.0811
  103MOL    O8326807   7.011   4.918   1.185 -0.0910  0.0945 -0.3330
  103MOL    C8426808   7.118   4.783   1.025 -0.2528 -0.1020  0.1292
  103MOL    C8526809   6.683   4.943   1.029  0.3433 -0.6415  0.0450
  103MOL    H8626810   6.825   5.064   1.117  0.3297  2.6114 -1.0394
  103MOL    H8726811   6.934   4.899   0.893  0.8060  0.0935  0.8248
  103MOL    H8826812   7.189   4.825   0.953 -0.5162  0.3887  0.1510
  103MOL    H8926813   7.181   4.748   1.106 -0.0996 -1.6274 -0.6440
  103MOL    H9026814   7.066   4.700   0.979 -0.5021  0.2579 -0.2458
  103MOL    H9126815   6.663   4.897   0.932 -0.5122  0.7298 -0.4307
  103MOL    H9226816   6.691   4.858   1.096 -0.3139  0.7542  1.9250
  103MOL    C9326817   6.557   5.028   1.064  0.2004 -0.2253 -0.0052
  103MOL    N9426818   6.580   5.098   1.189 -0.1830  0.2141 -0.5306
  103MOL    C9526819   6.545   5.227   1.218  0.0194 -0.5063  0.5751
  103MOL    O9626820   6.464   5.296   1.151  0.5403 -0.1220  0.5901
  103MOL    C9726821   6.586   5.277   1.352  0.1770  0.5314  0.8263
  103MOL    C9826822   6.426   4.949   1.074 -0.3798 -0.5310 -0.2247
  103MOL    H9926823   6.550   5.110   0.993  0.2119  0.4026  0.7134
  103MOL   H10026824   6.638   5.063   1.264  0.1068 -1.2099 -1.3871
  103MOL   H10126825   6.578   5.384   1.368 -1.3850  0.5821 -0.2148
  103MOL   H10226826   6.537   5.229   1.437  0.2232 -1.7045 -0.3681
  103MOL   H10326827   6.689   5.251   1.376  0.7042  1.5134 -0.3511
  103MOL   H10426828   6.412   4.885   1.162 -2.6663  2.1941  1.4725
  103MOL   H10526829   6.357   5.027   1.105  0.2581 -0.1262  0.1991
  103MOL   C10626830   6.381   4.896   0.939 -0.8084 -0.1500  0.1459
  103MOL   N10726831   6.245   4.936   0.905  0.5014 -0.5072  0.5296
  103MOL   C10826832   6.199   5.063   0.880  0.3300  0.0694 -0.0145
  103MOL   O10926833   6.268   5.157   0.900 -0.0315 -0.0577 -0.1617
  103MOL   C11026834   6.049   5.080   0.828 -0.9564  0.3503  0.9366
  103MOL   C11126835   6.419   4.743   0.906 -0.4619 -0.1334  0.1204
  103MOL   H11226836   6.439   4.957   0.869  0.4305 -3.0130 -1.4037
  103MOL   H11326837   6.178   4.860   0.901  0.1079 -0.1571  0.5313
  103MOL   H11426838   6.040   5.019   0.739  2.4079  1.4294 -0.2258
  103MOL   H11526839   5.973   5.052   0.901 -1.2233 -0.9621  0.1799
  103MOL   H11626840   6.032   5.183   0.797 -0.9310 -0.2505 -1.1749
  103MOL   H11726841   6.501   4.709   0.971 -1.5319  0.5261  1.8338
  103MOL   H11826842   6.337   4.682   0.943 -0.9418 -0.0094 -0.7358
  103MOL   C11926843   6.455   4.712   0.756 -0.1372 -0.5462 -0.7678
  103MOL   N12026844   6.336   4.721   0.676  0.1824 -0.5016  0.2266
  103MOL   C12126845   6.301   4.819   0.593 -0.1921 -0.1573 -0.6788
  103MOL   O12226846   6.382   4.906   0.556  0.5349 -0.2892 -0.3428
  103MOL   C12326847   6.158   4.832   0.544  0.5994 -0.5969 -0.4159
  103MOL   C12426848   6.539   4.583   0.737  0.1348 -0.2198 -0.2802
  103MOL   H12526849   6.527   4.791   0.736  0.7721 -1.3075 -0.5050
  103MOL   H12626850   6.257   4.670   0.713 -0.3025  1.3089  1.8206
  103MOL   H12726851   6.147   4.928   0.494  2.0733  1.1129  2.4424
  103MOL   H12826852   6.148   4.766   0.457 -0.8851  0.0241 -0.7305
  103MOL   H12926853   6.080   4.815   0.618 -0.7389 -0.2596 -1.7156
  103MOL   H13026854   6.464   4.508   0.762 -1.4912  1.3137 -0.4778
  103MOL   H13126855   6.565   4.581   0.631 -0.1021  0.6557 -0.3567
  103MOL   C13226856   6.667   4.570   0.824  0.3900  0.1176  0.2115
  103MOL   N13326857   6.781   4.543   0.736 -0.2262 -0.0940  0.2128
  103MOL   C13426858   6.876   4.639   0.710 -0.1127 -0.3505  0.1839
  103MOL   O13526859   6.879   4.752   0.761 -0.9429 -0.4720  0.3156
  103MOL   C13626860   6.985   4.593   0.620 -0.2421  0.5612  0.4520
  103MOL   C13726861   6.655   4.449   0.922 -0.4467 -0.2467  0.4789
  103MOL   H13826862   6.681   4.667   0.870 -1.1923 -0.4088  1.8313
  103MOL   H13926863   6.785   4.456   0.685  2.3320  0.3747 -0.4687
  103MOL   H14026864   7.021   4.505   0.674  2.7297  1.3310 -0.1960
  103MOL   H14126865   6.960   4.552   0.522 -1.8795  0.9614  0.6909
  103MOL   H14226866   7.072   4.659   0.611  2.4071 -3.0589 -2.0654
  103MOL   H14326867   6.556   4.446   0.968 -1.1932 -0.6661 -1.1224
  103MOL   H14426868   6.666   4.351   0.876 -0.5557 -0.7869  1.5960
  103MOL   C14526869   6.757   4.445   1.038  0.1685  0.7276  0.5566
  103MOL   N14626870   6.740   4.321   1.121  0.7874  0.1594 -0.2076
  103MOL   C14726871   6.828   4.223   1.137 -0.0816  0.5422 -0.2490
  103MOL   O14826872   6.938   4.218   1.092 -0.0492  0.0724  0.3720
  103MOL   C14926873   6.778   4.103   1.224 -0.9655 -0.1134  0.0823
  103MOL   C15026874   6.738   4.572   1.118  0.5551  0.8682  0.3731
  103MOL   H15126875   6.859   4.450   0.999 -0.5049  0.5038 -1.3152
  103MOL   H15226876   6.652   4.315   1.170 -0.9190  2.4098 -2.8374
  103MOL   H15326877   6.707   4.052   1.159 -0.5628 -0.4538 -0.0908
  103MOL   H15426878   6.861   4.036   1.243  1.0880  1.6958 -2.2015
  103MOL   H15526879   6.736   4.131   1.321 -0.4914 -1.7097  0.7666
  103MOL   H15626880   6.790   4.656   1.071  1.0590 -0.2916 -1.1662
  103MOL   H15726881   6.636   4.611   1.123 -1.0390 -2.9582 -0.8519
  103MOL   C15826882   6.795   4.574   1.262 -0.2553 -0.4166  0.3167
  103MOL   N15926883   6.734   4.691   1.328  0.0088 -0.2759  0.0849
  103MOL   C16026884   6.618   4.692   1.394 -0.1551 -0.3358 -0.4445
  103MOL   O16126885   6.558   4.587   1.418  0.1377 -0.0099  0.2276
  103MOL   C16226886   6.563   4.820   1.446 -0.1045  0.6459  0.0511
  103MOL   C16326887   6.943   4.582   1.268 -0.2142 -0.5019 -0.6991
  103MOL   H16426888   6.773   4.478   1.309  0.1750 -0.1101  1.1584
  103MOL   H16526889   6.774   4.784   1.319  0.9847 -0.8107 -1.1570
  103MOL   H16626890   6.639   4.887   1.485  1.0561 -0.2946 -0.5861
  103MOL   H16726891   6.505   4.875   1.372 -0.9540  0.5277  0.6199
  103MOL   H16826892   6.487   4.799   1.522  1.1379 -1.1840  0.8134
  103MOL   H16926893   6.975   4.480   1.254  1.4162 -0.5705  2.9547
  103MOL   H17026894   6.982   4.643   1.187 -2.4946 -0.8184 -2.0856
  103MOL   C17126895   7.002   4.634   1.408 -0.1332  0.5398  0.0774
  103MOL   N17226896   6.996   4.778   1.425  0.4034 -0.1100  0.5669
  103MOL   C17326897   6.938   4.849   1.521  0.4443  0.2357 -0.2727
  103MOL   O17426898   6.886   4.796   1.618 -0.1020 -0.3965 -0.2856
  103MOL   C17526899   6.935   5.001   1.497  0.1026  0.0932  0.3428
  103MOL   C17626900   7.156   4.597   1.420 -0.3105  0.7651 -0.4981
  103MOL   H17726901   6.948   4.583   1.487 -1.7852  1.0195 -0.7166
  103MOL   H17826902   7.015   4.837   1.345  1.1551 -1.0153  0.0679
  103MOL   H17926903   6.840   5.017   1.447 -0.6525 -0.3257  1.6132
  103MOL   H18026904   6.940   5.055   1.592 -1.7016  0.3725  0.3067
  103MOL   H18126905   7.021   5.034   1.440 -0.0616 -2.4680 -1.5020
  103MOL   H18226906   7.174   4.492   1.396  1.2410  0.6647  0.9827
  103MOL   H18326907   7.212   4.651   1.345  2.0369 -0.2833  0.4612
  103MOL   C18426908   7.209   4.617   1.568 -0.2321  0.6607 -0.9188
  103MOL   N18526909   7.355   4.638   1.563  0.5243  0.4881  0.4011
  103MOL   C18626910   7.421   4.727   1.641 -0.0183 -0.3025 -0.6893
  103MOL   O18726911   7.362   4.804   1.717  0.0054  0.1456  0.3624
  103MOL   C18826912   7.573   4.728   1.626  0.3537 -0.3451 -0.4714
  103MOL   C18926913   7.171   4.494   1.662  0.4033 -0.2382  0.2922
  103MOL   H19026914   7.162   4.705   1.613 -1.6647  0.1144 -1.3226
  103MOL   H19126915   7.412   4.578   1.505 -2.9734 -2.0013 -0.6353
  103MOL   H19226916   7.620   4.725   1.724 -1.1960  1.2686  0.3593
  103MOL   H19326917   7.614   4.641   1.574 -0.8730 -0.4529 -1.2890
  103MOL   H19426918   7.608   4.812   1.566  1.8893 -1.0645 -0.5850
  103MOL   H19526919   7.064   4.485   1.646  0.1952 -1.3536  2.2521
  103MOL   H19626920   7.217   4.405   1.618  1.2027 -0.0112  0.6593
  103MOL   C19726921   7.196   4.491   1.808  0.0702 -0.0144  0.0986
  103MOL   N19826922   7.197   4.629   1.857  0.0645  0.2393 -0.8906
  103MOL   C19926923   7.152   4.677   1.972 -0.2293  0.1458  0.3563
  103MOL   O20026924   7.100   4.603   2.058  0.3396 -0.0793 -0.2407
  103MOL   C20126925   7.156   4.826   1.993 -0.2449 -0.5458 -0.5813
  103MOL   C20226926   7.319   4.405   1.858  0.4248 -0.5371  0.4140
  103MOL   H20326927   7.107   4.440   1.846 -1.0012  0.4033 -1.7796
  103MOL   H20426928   7.241   4.695   1.795  0.3325 -1.6285 -2.7251
  103MOL   H20526929   7.083   4.874   1.928 -1.0297  0.6830  1.1792
  103MOL   H20626930   7.129   4.845   2.096 -1.4388 -0.1824 -0.9570
  103MOL   H20726931   7.249   4.876   1.966 -0.0265 -0.2739  0.6381
  103MOL   H20826932   7.393   4.394   1.780 -0.2246 -2.3587  0.0221
  103MOL   H20926933   7.362   4.472   1.933  1.1296 -1.6259  0.9965
  103MOL   C21026934   7.273   4.273   1.923 -0.0626 -0.4077  0.1862
  103MOL   N21126935   7.207   4.306   2.050 -0.1126 -0.3374 -0.7392
  103MOL   C21226936   7.120   4.228   2.113 -0.2063 -0.1100 -0.3746
  103MOL   O21326937   7.098   4.109   2.089 -0.1903  0.4746 -0.2984
  103MOL   C21426938   7.035   4.293   2.217  0.7304  0.9337 -0.5243
  103MOL   C21526939   7.394   4.178   1.959  0.1590  0.0795  0.2776
  103MOL   H21626940   7.200   4.222   1.860 -1.7856 -0.3815  2.0850
  103MOL   H21726941   7.216   4.403   2.078  0.2180  0.0743 -2.1889
  103MOL   H21826942   7.080   4.380   2.265 -0.4741  1.3663 -0.1709
  103MOL   H21926943   6.930   4.310   2.196  0.5363  3.4974  2.2161
  103MOL   H22026944   7.038   4.221   2.299 -0.2611  2.5173  0.9327
  103MOL   H22126945   7.469   4.232   2.017  0.6573  0.2772 -0.5462
  103MOL   H22226946   7.359   4.100   2.027  0.2477 -0.6676 -0.5307
  103MOL   C22326947   7.467   4.103   1.844  0.5285 -0.8242 -0.7401
  103MOL   N22426948   7.545   4.204   1.774 -0.0235  0.2947  1.0381
  103MOL   C22526949   7.678   4.228   1.802  0.6977 -0.1301 -0.6485
  103MOL   O22626950   7.745   4.142   1.862  0.3377 -0.1090  0.0149
  103MOL   C22726951   7.730   4.358   1.761 -0.0185  0.1112 -0.2006
  103MOL   C22826952   7.390   4.011   1.744 -0.5936  0.3142  0.1716
  103MOL   H22926953   7.542   4.036   1.886  0.1485 -0.5808  0.3372
  103MOL   H23026954   7.504   4.269   1.708 -0.1268 -0.9738 -0.1642
  103MOL   H23126955   7.773   4.407   1.849  2.4416 -2.0182 -0.1609
  103MOL   H23226956   7.805   4.342   1.684 -0.6494 -0.2918 -0.7387
  103MOL   H23326957   7.659   4.429   1.720 -0.8047 -0.5618 -0.0252
  103MOL   H23426958   7.315   4.066   1.687 -1.2673  0.6171  1.3289
  103MOL   H23526959   7.468   3.986   1.671  0.6517  3.3813  0.3897
  103MOL   C23626960   7.340   3.875   1.788  0.0504  0.6339 -0.5354
  103MOL   N23726961   7.319   3.785   1.671 -1.0835 -0.2271  0.2587
  103MOL   C23826962   7.222   3.782   1.577 -0.0834 -0.0667  0.1817
  103MOL   O23926963   7.121   3.846   1.584  0.4266  0.4814 -1.0890
  103MOL   C24026964   7.246   3.696   1.455 -0.0056  0.0885  0.3633
  103MOL   C24126965   7.218   3.893   1.880  0.2711  0.1565 -0.2705
  103MOL   H24226966   7.412   3.818   1.846  0.4577  1.2649 -0.4166
  103MOL   H24326967   7.395   3.721   1.653 -0.7278 -1.2677  4.7560
  103MOL   H24426968   7.150   3.694   1.403 -0.0963 -0.4223  0.5392
  103MOL   H24526969   7.301   3.758   1.384 -1.9748  1.4522  0.0038
  103MOL   H24626970   7.286   3.595   1.465 -0.9251 -0.2553  0.6117
  103MOL   H24726971   7.257   3.930   1.975  0.0795 -1.8575  0.6208
  103MOL   H24826972   7.158   3.968   1.829 -0.3884  0.0927  0.4052
  103MOL   C24926973   7.134   3.771   1.910 -1.0696  0.1862 -0.0420
  103MOL   N25026974   7.028   3.824   1.986 -0.6686  0.2890  0.3055
  103MOL   C25126975   6.910   3.772   2.003 -0.1100  0.2582  0.2848
  103MOL   O25226976   6.875   3.669   1.943  0.3729  0.0778 -0.3691
  103MOL   C25326977   6.817   3.857   2.087  0.0825  1.2841  0.2564
  103MOL   C25426978   7.198   3.650   1.983 -1.1016  0.3929 -0.5082
  103MOL   H25526979   7.086   3.738   1.817 -0.8832 -0.9967  0.2810
  103MOL   H25626980   7.059   3.908   2.033  1.1521  0.4056 -1.0540
  103MOL   H25726981   6.809   3.959   2.050 -2.0505  0.5427 -1.4581
  103MOL   H25826982   6.716   3.818   2.105  0.1575  1.5661  1.3223
  103MOL   H25926983   6.858   3.865   2.187  0.5944  1.0183  0.0713
  103MOL   H26026984   7.230   3.688   2.080  1.0137 -2.1402 -0.1629
  103MOL   H26126985   7.126   3.569   1.996  0.4506 -0.4068  3.7513
  103MOL   H26226986   7.281   3.603   1.929  0.6059  1.2448  1.3133
  104MOL     C126987   3.708   1.167   7.092 -0.4849  0.4015  0.0735
  104MOL     N226988   3.667   1.143   7.227 -0.5235  0.5800 -0.0738
  104MOL     C326989   3.740   1.200   7.318  0.3622 -0.3582 -0.4222
  104MOL     O426990   3.844   1.264   7.296  0.1708 -0.2060  0.3251
  104MOL     C526991   3.692   1.181   7.463 -0.0715  0.1918  0.0075
  104MOL     C626992   3.601   1.108   6.998  0.5280 -0.3298 -0.3377
  104MOL     H726993   3.721   1.273   7.075  0.5422 -0.0077 -1.8209
  104MOL     H826994   3.577   1.110   7.258  0.0801  0.1057  1.2286
  104MOL     H926995   3.720   1.084   7.504  0.7091  0.3244 -0.2084
  104MOL    H1026996   3.748   1.253   7.523  0.1434 -0.5155  0.6630
  104MOL    H1126997   3.585   1.197   7.473 -0.2851  0.0549 -1.8473
  104MOL    H1226998   3.562   1.017   7.043  0.7448 -0.4793 -0.4546
  104MOL    H1326999   3.517   1.177   6.987  1.4664  1.2346  1.8899
  104MOL    H1427000   3.808   1.124   7.078 -0.4840  0.7360 -1.0280
  104MOL    C1527001   3.642   1.072   6.851  0.5167 -0.7836  0.7649
  104MOL    N1627002   3.678   1.189   6.771 -0.0050  0.2718  0.1653
  104MOL    C1727003   3.804   1.235   6.756 -0.7024  0.0003  0.3034
  104MOL    O1827004   3.898   1.208   6.829  0.9448 -0.5331  0.2095
  104MOL    C1927005   3.827   1.324   6.633 -0.3256  0.8350  0.2317
  104MOL    C2027006   3.538   0.994   6.771 -0.5378  0.2544  0.0273
  104MOL    H2127007   3.727   1.004   6.855  2.9004  2.0373  0.0230
  104MOL    H2227008   3.606   1.239   6.722  0.3903  0.9503  0.2821
  104MOL    H2327009   3.821   1.431   6.656 -0.8855  0.4607  1.9592
  104MOL    H2427010   3.918   1.295   6.580 -0.8112 -0.8081  0.2675
  104MOL    H2527011   3.749   1.290   6.565  1.1796  0.1233 -1.1803
  104MOL    H2627012   3.521   0.897   6.819  1.1275 -0.3837 -0.6362
  104MOL    H2727013   3.443   1.042   6.793 -0.3969  0.5135  0.0669
  104MOL    C2827014   3.564   0.964   6.621  0.1007 -0.1659 -0.9443
  104MOL    N2927015   3.440   0.901   6.566  0.3845 -0.0809 -0.8288
  104MOL    C3027016   3.415   0.892   6.433  0.1480  0.4198  0.1053
  104MOL    O3127017   3.499   0.921   6.347  0.0852 -0.2473  0.4137
  104MOL    C3227018   3.273   0.867   6.393  0.2771 -0.4002 -0.1205
  104MOL    C3327019   3.691   0.870   6.602 -0.4754 -0.1012  0.1158
  104MOL    H3427020   3.567   1.059   6.567 -1.1676  1.9304  2.5230
  104MOL    H3527021   3.374   0.880   6.639  0.7732  1.5514  0.0078
  104MOL    H3627022   3.249   0.944   6.319  2.4120  0.6459  0.2468
  104MOL    H3727023   3.260   0.763   6.362 -0.1688 -0.8685  1.5906
  104MOL    H3827024   3.200   0.872   6.474  0.2628 -1.7962 -0.0396
  104MOL    H3927025   3.710   0.820   6.697  0.5068  0.0240 -0.0157
  104MOL    H4027026   3.660   0.789   6.534 -2.4315 -2.0424  3.1949
  104MOL    C4127027   3.812   0.944   6.526  0.0381 -0.5464  0.3581
  104MOL    N4227028   3.776   0.968   6.383  0.4504 -0.4339  0.4499
  104MOL    C4327029   3.840   1.055   6.304  0.7712  0.3249  0.0352
  104MOL    O4427030   3.940   1.119   6.340  0.2811  0.1387 -0.0872
  104MOL    C4527031   3.772   1.066   6.164  0.4544 -0.3890 -0.8085
  104MOL    C4627032   3.940   0.852   6.540  0.8565  0.2606  0.7278
  104MOL    H4727033   3.828   1.038   6.578  0.0528 -0.4158  0.1176
  104MOL    H4827034   3.687   0.933   6.351  0.6808 -0.0063 -0.6745
  104MOL    H4927035   3.810   1.154   6.111 -1.4016  1.5653  1.0222
  104MOL    H5027036   3.783   0.979   6.100 -0.8313 -1.6376  0.6354
  104MOL    H5127037   3.665   1.073   6.181  0.5831  0.1447 -0.1751
  104MOL    H5227038   3.919   0.745   6.544 -1.9090  0.7835  0.9955
  104MOL    H5327039   3.995   0.862   6.446 -1.7660  0.5200 -0.8189
  104MOL    C5427040   4.037   0.886   6.653 -0.1187 -0.1290  0.0669
  104MOL    N5527041   3.968   0.883   6.789 -0.4118 -0.9039 -0.0010
  104MOL    C5627042   3.920   0.773   6.850 -0.0325 -0.2407 -0.2475
  104MOL    O5727043   3.905   0.673   6.786 -0.2544  0.1612 -0.1204
  104MOL    C5827044   3.898   0.785   7.004 -0.1418  0.0871  0.3865
  104MOL    C5927045   4.094   1.027   6.628 -0.4615  0.7578 -0.0261
  104MOL    H6027046   4.118   0.815   6.640  1.3972  2.0009 -2.6679
  104MOL    H6127047   3.980   0.967   6.844 -1.1176 -0.0883 -1.0770
  104MOL    H6227048   3.941   0.882   7.029  0.5387 -0.6256  2.0203
  104MOL    H6327049   3.791   0.788   7.021 -0.1609  3.9607  0.0239
  104MOL    H6427050   3.943   0.702   7.059 -0.9668 -1.2265 -0.9023
  104MOL    H6527051   4.135   1.018   6.528  0.4549  0.7629  0.3483
  104MOL    H6627052   4.012   1.099   6.629 -1.9481 -0.8831 -0.4584
  104MOL    C6727053   4.209   1.066   6.711  0.6813  0.5327 -0.3744
  104MOL    N6827054   4.156   1.125   6.835  0.6410  0.6277 -0.2391
  104MOL    C6927055   4.216   1.128   6.950  0.0497  0.0311  0.2007
  104MOL    O7027056   4.323   1.061   6.962  0.0210 -0.3838 -0.2401
  104MOL    C7127057   4.166   1.195   7.074  0.0879 -0.7803  0.4645
  104MOL    C7227058   4.295   1.171   6.637 -0.1934 -0.5054 -0.1286
  104MOL    H7327059   4.270   0.979   6.732 -0.1986  0.1833  0.7781
  104MOL    H7427060   4.078   1.189   6.833 -0.1241 -0.2278  1.3487
  104MOL    H7527061   4.058   1.208   7.078 -0.0059 -0.5947 -2.2120
  104MOL    H7627062   4.225   1.164   7.161  2.2807  1.6828 -0.0443
  104MOL    H7727063   4.189   1.301   7.062 -2.8295 -0.3989 -2.2214
  104MOL    H7827064   4.227   1.236   6.582 -0.5046 -0.1190  0.7213
  104MOL    H7927065   4.342   1.228   6.717 -0.8063 -1.3790  0.8676
  104MOL    C8027066   4.401   1.133   6.537  0.2666 -0.1749  0.2245
  104MOL    N8127067   4.512   1.062   6.595 -0.5711 -0.2038 -0.1988
  104MOL    C8227068   4.517   0.931   6.616 -0.0912 -0.1276  0.9298
  104MOL    O8327069   4.431   0.854   6.580  0.3627 -0.3668  0.0537
  104MOL    C8427070   4.642   0.877   6.683 -0.4705  0.2163  0.3371
  104MOL    C8527071   4.450   1.259   6.449 -1.2556 -0.1954  0.0282
  104MOL    H8627072   4.350   1.063   6.470  0.2524  1.5501 -1.6081
  104MOL    H8727073   4.589   1.112   6.638 -1.2579 -0.9447  1.9692
  104MOL    H8827074   4.641   0.904   6.788  1.6213  1.8550 -0.0348
  104MOL    H8927075   4.636   0.769   6.668  0.8213  0.0789  0.7859
  104MOL    H9027076   4.733   0.911   6.634 -0.4337  0.9194  0.8880
  104MOL    H9127077   4.449   1.341   6.521 -0.9499 -0.2531  0.0987
  104MOL    H9227078   4.554   1.237   6.426 -0.8709  1.2496  0.3088
  104MOL    C9327079   4.381   1.299   6.312 -0.1148 -0.1690 -0.7009
  104MOL    N9427080   4.438   1.430   6.265 -0.0778 -0.1225 -0.6165
  104MOL    C9527081   4.554   1.445   6.202  0.1315 -0.3432 -0.5810
  104MOL    O9627082   4.635   1.356   6.166  0.1529 -0.0487  0.2554
  104MOL    C9727083   4.584   1.588   6.164 -0.2642 -0.3456 -1.2217
  104MOL    C9827084   4.230   1.299   6.308 -0.0821  0.1060 -0.4713
  104MOL    H9927085   4.412   1.223   6.241  0.3690 -1.8464  1.2662
  104MOL   H10027086   4.377   1.508   6.282 -1.0705 -1.4938  2.4902
  104MOL   H10127087   4.669   1.583   6.096  1.0846 -0.5488  0.4628
  104MOL   H10227088   4.499   1.643   6.125 -0.3162  1.2110  1.0198
  104MOL   H10327089   4.614   1.645   6.252 -2.7615 -0.3306 -0.3392
  104MOL   H10427090   4.189   1.205   6.342 -2.7640  0.5327 -2.3293
  104MOL   H10527091   4.200   1.375   6.380  1.0750  0.7282 -0.6249
  104MOL   C10627092   4.162   1.335   6.172  0.5649  0.3039 -0.2936
  104MOL   N10727093   4.014   1.342   6.201  0.0124  0.8267  0.1529
  104MOL   C10827094   3.936   1.448   6.182 -0.3188 -0.5877  0.3771
  104MOL   O10927095   3.984   1.554   6.139 -0.5733  0.5240 -0.2074
  104MOL   C11027096   3.786   1.439   6.204 -0.2368 -0.7069 -0.2093
  104MOL   C11127097   4.195   1.224   6.072  0.2176 -0.2481  0.8069
  104MOL   H11227098   4.192   1.429   6.126 -0.0631 -0.3620 -2.1087
  104MOL   H11327099   3.982   1.261   6.253  0.0327  0.4002 -0.4838
  104MOL   H11427100   3.771   1.391   6.301  1.2336 -0.2040  0.2724
  104MOL   H11527101   3.752   1.542   6.213 -0.4519 -0.7086 -0.9633
  104MOL   H11627102   3.733   1.378   6.131  0.9962 -0.9297 -0.9236
  104MOL   H11727103   4.302   1.235   6.054 -0.0830  0.2209 -0.7924
  104MOL   H11827104   4.180   1.130   6.126 -0.9099  0.1187  1.1489
  104MOL   C11927105   4.123   1.225   5.938 -0.6733  0.0670 -0.1674
  104MOL   N12027106   4.123   1.087   5.877  0.1663 -0.5594  0.1605
  104MOL   C12127107   4.224   0.999   5.853  0.3401 -0.6406 -0.4270
  104MOL   O12227108   4.332   1.007   5.911 -0.1561 -0.6327 -0.1080
  104MOL   C12327109   4.202   0.884   5.760  0.3721 -0.2979  0.0090
  104MOL   C12427110   4.179   1.326   5.833  0.3994 -0.2363  0.1829
  104MOL   H12527111   4.019   1.243   5.965 -0.2929  1.1495  0.6099
  104MOL   H12627112   4.036   1.059   5.834  0.1861  0.4116 -0.5313
  104MOL   H12727113   4.142   0.805   5.804  0.6265 -0.0044  0.8910
  104MOL   H12827114   4.151   0.914   5.668 -0.7243 -0.4796  0.5486
  104MOL   H12927115   4.296   0.843   5.724  0.2194 -0.8081  0.1851
  104MOL   H13027116   4.218   1.414   5.884 -0.1921 -0.6638  1.4027
  104MOL   H13127117   4.261   1.272   5.786  1.6403  1.4471  0.3748
  104MOL   C13227118   4.067   1.366   5.733  0.2227  0.3055  0.1812
  104MOL   N13327119   4.113   1.358   5.597 -0.3545 -0.5535  0.1079
  104MOL   C13427120   4.218   1.424   5.544  0.6486  0.6175  0.0906
  104MOL   O13527121   4.293   1.502   5.604  0.2071 -0.1871  0.0744
  104MOL   C13627122   4.244   1.396   5.396 -0.8405 -0.2541 -0.1815
  104MOL   C13727123   3.999   1.497   5.778  0.1178 -0.4074  0.0378
  104MOL   H13827124   3.997   1.282   5.733 -0.7392  1.0834 -1.4430
  104MOL   H13927125   4.063   1.290   5.542 -0.3864 -0.3051 -0.1693
  104MOL   H14027126   4.202   1.464   5.322 -1.6914 -2.7789 -2.1129
  104MOL   H14127127   4.351   1.392   5.375 -0.4878  0.3012  1.4571
  104MOL   H14227128   4.203   1.298   5.368 -0.6393 -0.2717 -0.4148
  104MOL   H14327129   4.001   1.501   5.887  0.8214  2.1700 -0.0356
  104MOL   H14427130   4.064   1.577   5.743 -0.3594 -0.5015 -1.0636
  104MOL   C14527131   3.859   1.512   5.724 -0.4709 -0.3042  0.3643
  104MOL   N14627132   3.853   1.589   5.596  0.2408  0.1112 -0.4019
  104MOL   C14727133   3.858   1.548   5.470  0.3882  0.6254 -0.2847
  104MOL   O14827134   3.868   1.426   5.435  0.0362 -0.9637  0.5490
  104MOL   C14927135   3.860   1.660   5.368  0.4393  0.1393 -0.6625
  104MOL   C15027136   3.758   1.572   5.825 -0.3600 -0.1094  0.5639
  104MOL   H15127137   3.816   1.417   5.695  1.2421 -1.1150  0.4250
  104MOL   H15227138   3.854   1.690   5.603  1.8442  0.0473  0.5199
  104MOL   H15327139   3.938   1.729   5.400  0.9999 -1.1557  0.8102
  104MOL   H15427140   3.888   1.622   5.270  1.2471 -0.2677 -0.2772
  104MOL   H15527141   3.760   1.704   5.363 -0.5970 -2.1183 -0.3236
  104MOL   H15627142   3.755   1.515   5.917 -2.1749 -0.6546  0.1920
  104MOL   H15727143   3.790   1.674   5.848  4.5679 -0.8840 -2.0877
  104MOL   C15827144   3.604   1.574   5.779  0.2042  0.0568  0.0500
  104MOL   N15927145   3.534   1.690   5.841 -0.0580 -0.6232  0.0302
  104MOL   C16027146   3.506   1.709   5.971 -0.2196 -0.2702  0.3281
  104MOL   O16127147   3.539   1.632   6.062  0.3846 -0.2681  0.0592
  104MOL   C16227148   3.426   1.832   6.004  0.3981  0.4931 -0.3984
  104MOL   C16327149   3.522   1.450   5.802  0.0011 -0.0144  0.1675
  104MOL   H16427150   3.606   1.589   5.671 -0.5555 -2.1591 -0.2860
  104MOL   H16527151   3.485   1.746   5.773 -0.3243  0.1469  0.8562
  104MOL   H16627152   3.431   1.915   5.933 -0.2218  0.4584 -0.4887
  104MOL   H16727153   3.323   1.796   6.002  1.2832 -2.0664 -0.9362
  104MOL   H16827154   3.457   1.868   6.102  1.7100  0.8569 -0.9377
  104MOL   H16927155   3.515   1.442   5.910  1.7448 -0.1310  0.2909
  104MOL   H17027156   3.416   1.465   5.780 -0.5087 -0.0331  2.4889
  104MOL   C17127157   3.564   1.320   5.725  0.4987  0.2146  0.2686
  104MOL   N17227158   3.439   1.259   5.668  0.0532 -0.2162 -0.1096
  104MOL   C17327159   3.428   1.215   5.538 -0.3349 -0.5492 -0.0082
  104MOL   O17427160   3.515   1.218   5.446  0.1305  0.4318 -0.1975
  104MOL   C17527161   3.295   1.158   5.497 -0.3311 -0.5730 -0.4838
  104MOL   C17627162   3.644   1.218   5.814 -0.6291  0.0741 -0.3162
  104MOL   H17727163   3.621   1.349   5.637  1.8562 -0.6867  0.8157
  104MOL   H17827164   3.355   1.277   5.720  0.0328 -0.6921  0.0319
  104MOL   H17927165   3.290   1.060   5.546 -0.4162 -1.2730 -1.8673
  104MOL   H18027166   3.212   1.216   5.538 -0.9599 -2.2472  0.7003
  104MOL   H18127167   3.293   1.149   5.389  2.9316 -1.1175 -0.5614
  104MOL   H18227168   3.736   1.264   5.850  0.0663  0.6929 -2.7679
  104MOL   H18327169   3.586   1.210   5.905 -2.5162  1.1051 -1.4003
  104MOL   C18427170   3.678   1.079   5.763  0.0918  0.3712  0.2781
  104MOL   N18527171   3.712   1.083   5.625  0.2103  0.0317 -0.2147
  104MOL   C18627172   3.836   1.079   5.569  0.7439  0.3002  0.8345
  104MOL   O18727173   3.938   1.069   5.640  0.0232  0.4118 -0.4378
  104MOL   C18827174   3.835   1.069   5.415 -0.5892 -0.7647  0.0795
  104MOL   C18927175   3.566   0.984   5.790  0.0852 -0.3457  0.2334
  104MOL   H19027176   3.766   1.039   5.813  0.4925 -0.5532 -1.1175
  104MOL   H19127177   3.635   1.092   5.560 -1.8964 -0.3819  2.1316
  104MOL   H19227178   3.758   0.997   5.387  0.3994 -1.5298 -0.6695
  104MOL   H19327179   3.815   1.157   5.354  0.5961 -2.3732 -2.7240
  104MOL   H19427180   3.924   1.025   5.371 -1.1665 -0.6672 -1.2005
  104MOL   H19527181   3.547   0.984   5.898  0.5810  6.0346  0.4818
  104MOL   H19627182   3.477   1.012   5.734 -0.8191  0.4348  2.0258
  104MOL   C19727183   3.601   0.837   5.748  0.0590 -0.5317  0.2532
  104MOL   N19827184   3.492   0.789   5.660  0.0050  0.2887 -0.0986
  104MOL   C19927185   3.471   0.823   5.528  0.2841  0.3769 -0.1058
  104MOL   O20027186   3.559   0.877   5.468 -0.3835 -0.4785 -0.4424
  104MOL   C20127187   3.344   0.783   5.458 -0.0980  0.4544  0.3927
  104MOL   C20227188   3.607   0.738   5.875 -0.3573  0.0543 -0.0456
  104MOL   H20327189   3.695   0.842   5.694 -0.4802 -0.3706 -0.6873
  104MOL   H20427190   3.421   0.736   5.707  0.8287  0.4729  1.3948
  104MOL   H20527191   3.263   0.747   5.520 -1.0436  0.6356 -0.7295
  104MOL   H20627192   3.303   0.861   5.393 -0.0937 -0.7523 -1.0748
  104MOL   H20727193   3.363   0.704   5.386 -1.9668 -0.1835  0.5813
  104MOL   H20827194   3.657   0.795   5.953 -0.6316 -0.7637  0.7434
  104MOL   H20927195   3.502   0.720   5.902 -0.5419  2.2644  0.8608
  104MOL   C21027196   3.686   0.605   5.848 -1.1771 -0.6533  0.4782
  104MOL   N21127197   3.621   0.523   5.744  0.2741  0.1508  0.4789
  104MOL   C21227198   3.497   0.473   5.729  0.2031  0.3954  0.5309
  104MOL   O21327199   3.396   0.515   5.790  0.1785  0.3524  0.1100
  104MOL   C21427200   3.482   0.389   5.605 -0.5980 -0.1771 -0.2250
  104MOL   C21527201   3.714   0.529   5.974 -0.0241  0.0067  0.5379
  104MOL   H21627202   3.785   0.627   5.808 -1.1712 -0.7002  0.4671
  104MOL   H21727203   3.684   0.498   5.669  0.0913  1.2061 -0.0328
  104MOL   H21827204   3.577   0.382   5.551 -0.2623  1.2756  0.1650
  104MOL   H21927205   3.441   0.290   5.623  1.1668 -0.8989 -0.0136
  104MOL   H22027206   3.411   0.446   5.546  1.1697  2.1542 -0.1964
  104MOL   H22127207   3.720   0.608   6.049  3.2379  0.4259 -0.0506
  104MOL   H22227208   3.625   0.470   5.996 -1.2804  0.8348 -2.1554
  104MOL   C22327209   3.843   0.443   5.982 -0.2439  0.2654 -0.6213
  104MOL   N22427210   3.849   0.332   5.879 -0.2366  0.0404  0.0544
  104MOL   C22527211   3.753   0.237   5.867 -0.0980 -0.5530  0.1891
  104MOL   O22627212   3.660   0.214   5.946 -0.1459  0.4126  0.2295
  104MOL   C22727213   3.761   0.150   5.747  0.1297  0.1343  0.7892
  104MOL   C22827214   3.863   0.397   6.121  0.0489  0.3435 -0.1461
  104MOL   H22927215   3.918   0.515   5.948 -1.0715  1.1948 -0.4970
  104MOL   H23027216   3.921   0.335   5.808  0.6387  0.1660  0.9434
  104MOL   H23127217   3.665   0.142   5.697  0.6619  1.0168 -0.4119
  104MOL   H23227218   3.834   0.193   5.678 -1.6091  0.1931 -1.0686
  104MOL   H23327219   3.794   0.050   5.774 -1.3932  0.3152  3.4653
  104MOL   H23427220   3.772   0.346   6.153  0.4565 -1.1806 -1.3986
  104MOL   H23527221   3.929   0.312   6.136 -0.1192  0.2657  0.1689
  104MOL   C23627222   3.888   0.502   6.237 -0.5019  0.0524 -0.1955
  104MOL   N23727223   4.007   0.578   6.210 -0.0109 -0.6301  0.5091
  104MOL   C23827224   4.008   0.713   6.182 -0.7110  0.3987 -0.2416
  104MOL   O23927225   3.904   0.780   6.168 -0.2984  0.0161 -0.4870
  104MOL   C24027226   4.143   0.772   6.170  0.6607 -0.1549 -0.0414
  104MOL   C24127227   3.909   0.435   6.373 -0.1748 -0.1432 -0.1568
  104MOL   H24227228   3.807   0.574   6.250  1.0709  1.3359  3.0878
  104MOL   H24327229   4.092   0.525   6.209 -0.7316 -1.9075  3.1095
  104MOL   H24427230   4.168   0.776   6.064 -1.9883 -1.2779 -0.7557
  104MOL   H24527231   4.148   0.870   6.218 -0.9437  0.0168 -0.2058
  104MOL   H24627232   4.222   0.717   6.220 -1.0497 -0.9853  1.8119
  104MOL   H24727233   3.974   0.350   6.353 -1.2420 -0.3007 -3.2335
  104MOL   H24827234   3.957   0.506   6.439  0.5150 -1.7861  1.1574
  104MOL   C24927235   3.779   0.388   6.454  0.4387 -0.0045  0.1813
  104MOL   N25027236   3.697   0.275   6.395 -0.0024  0.2138  0.1927
  104MOL   C25127237   3.726   0.148   6.372  0.7278  0.2367  0.2739
  104MOL   O25227238   3.846   0.108   6.384 -0.0025 -0.0726  0.5021
  104MOL   C25327239   3.612   0.049   6.337 -0.0512 -1.3149  0.0307
  104MOL   C25427240   3.694   0.513   6.503  0.0302  0.3833  0.0041
  104MOL   H25527241   3.830   0.345   6.540  1.3047 -1.8051 -1.1829
  104MOL   H25627242   3.603   0.311   6.384 -0.1587 -0.5678 -1.1291
  104MOL   H25727243   3.527   0.079   6.398  0.7836  1.0119  0.1088
  104MOL   H25827244   3.567   0.074   6.241 -1.8443  0.1449  1.2315
  104MOL   H25927245   3.650   7.789   6.357 -0.0790 -1.4774 -0.7043
  104MOL   H26027246   3.756   0.586   6.554  1.4802 -1.0340  0.2931
  104MOL   H26127247   3.646   0.570   6.423  0.4591 -0.2676 -0.7271
  104MOL   H26227248   3.626   0.481   6.582  0.4059 -3.8887 -1.2290
  105MOL     C127249   3.904   2.006   7.552 -0.1926  0.3390 -0.0633
  105MOL     N227250   3.996   2.052   7.660  0.0999 -0.1017 -0.3023
  105MOL     C327251   4.127   2.078   7.646 -0.0896  0.1256 -0.2995
  105MOL     O427252   4.180   2.061   7.535 -0.0085  0.0966 -0.3776
  105MOL     C527253   4.211   2.129   7.764 -0.3316 -0.2900 -0.4839
  105MOL     C627254   3.924   1.854   7.525 -0.4708  0.6022  0.7952
  105MOL     H727255   3.805   1.998   7.597  1.5830 -3.9382  3.5251
  105MOL     H827256   3.947   2.076   7.745 -0.8296 -1.5520 -0.4115
  105MOL     H927257   4.167   2.084   0.013 -2.9749  1.0412 -1.0848
  105MOL    H1027258   4.310   2.084   7.768  0.3353  0.7893 -3.6006
  105MOL    H1127259   4.222   2.237   7.771 -2.6103 -0.0742  0.1697
  105MOL    H1227260   4.029   1.830   7.510 -0.9268 -0.5100 -0.7247
  105MOL    H1327261   3.914   1.802   7.621 -0.5095 -1.8578 -0.5149
  105MOL    H1427262   3.898   2.064   7.460 -0.5216  1.3087  0.5729
  105MOL    C1527263   3.850   1.799   7.406 -0.1578  0.3876  0.1125
  105MOL    N1627264   3.708   1.845   7.390 -0.2310 -0.1380  0.2856
  105MOL    C1727265   3.669   1.939   7.304  0.4822 -1.0675  0.4101
  105MOL    O1827266   3.746   2.010   7.241  0.4462  0.2096  0.3313
  105MOL    C1927267   3.526   1.962   7.274  0.3447  0.5483 -0.8314
  105MOL    C2027268   3.850   1.644   7.425  0.5703 -0.1393 -0.0367
  105MOL    H2127269   3.906   1.827   7.317  2.1395  1.3055  1.8047
  105MOL    H2227270   3.635   1.789   7.433 -0.6769 -0.2961 -0.6697
  105MOL    H2327271   3.473   1.871   7.300 -0.9596  1.2910 -0.8600
  105MOL    H2427272   3.482   2.049   7.324 -1.4620 -0.2776 -0.9605
  105MOL    H2527273   3.510   1.989   7.170  0.4051  3.5553 -0.1225
  105MOL    H2627274   3.847   1.616   7.530  1.3059 -1.1631 -0.2802
  105MOL    H2727275   3.767   1.592   7.377  1.5232  0.8401 -2.8309
  105MOL    C2827276   3.984   1.578   7.364 -0.6290 -0.4203 -0.7033
  105MOL    N2927277   3.958   1.529   7.225  0.5788 -0.4874 -0.0059
  105MOL    C3027278   4.009   1.592   7.117 -0.0541 -0.0439 -0.9404
  105MOL    O3127279   4.068   1.705   7.125  0.4910  0.3446 -0.0550
  105MOL    C3227280   4.005   1.524   6.978 -0.3470 -0.0214  0.5345
  105MOL    C3327281   4.055   1.458   7.444 -0.1273 -0.4328 -0.0518
  105MOL    H3427282   4.054   1.661   7.359 -0.8086 -0.2625 -0.6153
  105MOL    H3527283   3.912   1.439   7.225 -1.8474  0.7076 -1.6057
  105MOL    H3627284   3.912   1.469   6.966 -0.6359  0.7023 -0.6296
  105MOL    H3727285   3.989   1.599   6.901 -0.6206 -0.4138  0.2077
  105MOL    H3827286   4.098   1.473   6.953 -0.0056 -0.3430  2.3793
  105MOL    H3927287   3.975   1.388   7.466 -0.5882 -0.2521 -1.0969
  105MOL    H4027288   4.121   1.402   7.377  0.1629 -1.9569  1.4805
  105MOL    C4127289   4.129   1.483   7.575 -0.2006 -0.5733  0.1981
  105MOL    N4227290   4.207   1.605   7.576 -0.0171  0.0717  0.0517
  105MOL    C4327291   4.211   1.685   7.687  1.1895 -0.7290 -0.1003
  105MOL    O4427292   4.114   1.689   7.768 -0.0339 -0.3671 -0.4080
  105MOL    C4527293   4.342   1.767   7.699 -0.8936 -0.5596 -0.1325
  105MOL    C4627294   4.212   1.362   7.605 -0.6316 -0.0541 -0.4223
  105MOL    H4727295   4.045   1.497   7.644 -1.4262 -0.2835 -1.3394
  105MOL    H4827296   4.273   1.606   7.500 -0.8802 -0.0348 -0.7229
  105MOL    H4927297   4.331   1.868   7.739  0.4526  0.7543 -2.9162
  105MOL    H5027298   4.406   1.713   7.769  0.0020  1.5722  0.7289
  105MOL    H5127299   4.395   1.780   7.604 -0.4124  1.1923  0.3608
  105MOL    H5227300   4.169   1.269   7.568 -0.1253 -0.7050  0.6105
  105MOL    H5327301   4.304   1.364   7.546 -0.6114 -2.1093 -0.5006
  105MOL    C5427302   4.240   1.336   7.757  0.0786 -0.6227  0.2651
  105MOL    N5527303   4.355   1.241   7.764 -0.5561 -0.8158 -0.6107
  105MOL    C5627304   4.373   1.113   7.732  0.7631  0.6081 -0.5297
  105MOL    O5727305   4.282   1.048   7.681 -0.3802 -0.6381  0.8546
  105MOL    C5827306   4.510   1.054   7.761 -0.2955 -0.4375  0.3033
  105MOL    C5927307   4.121   1.271   7.840 -0.3829  0.1617 -0.2056
  105MOL    H6027308   4.262   1.431   7.807 -2.1969 -0.2292  0.5694
  105MOL    H6127309   4.434   1.279   7.814 -3.0466  0.3677  2.5570
  105MOL    H6227310   4.526   0.950   7.732 -1.7483 -0.2761 -1.1843
  105MOL    H6327311   4.584   1.115   7.710 -1.1180  2.3004  2.3031
  105MOL    H6427312   4.527   1.062   0.028  1.2804 -2.1174  0.1966
  105MOL    H6527313   4.023   1.318   7.833  0.3647  1.4708 -2.2200
  105MOL    H6627314   4.115   1.171   7.796 -1.1663 -0.2788  0.8893
  105MOL    C6727315   4.147   1.264   0.151  0.3601 -0.2470  0.2746
  105MOL    N6827316   4.042   1.196   0.227 -0.4607  0.2805  0.6951
  105MOL    C6927317   4.062   1.090   0.311 -0.4106  0.4026  0.1567
  105MOL    O7027318   4.174   1.038   0.336 -0.4500 -0.2667  0.4188
  105MOL    C7127319   3.940   1.026   0.378 -1.1313 -0.9841  0.8104
  105MOL    C7227320   4.183   1.401   0.210 -0.4649  0.4250 -0.2684
  105MOL    H7327321   4.234   1.202   0.173  0.2887 -0.4288  0.0477
  105MOL    H7427322   3.949   1.231   0.208 -0.0030  1.8171  1.1564
  105MOL    H7527323   3.874   1.099   0.424 -2.8815 -1.5905 -0.6498
  105MOL    H7627324   3.882   0.985   0.295  1.5106 -0.9151 -1.1378
  105MOL    H7727325   3.957   0.941   0.443 -0.9662  0.1321  2.2485
  105MOL    H7827326   4.224   1.371   0.306 -1.5549 -0.2588 -0.0061
  105MOL    H7927327   4.264   1.450   0.156  0.5587 -0.4206  0.4691
  105MOL    C8027328   4.069   1.495   0.241 -0.2244 -0.1131  0.2104
  105MOL    N8127329   3.980   1.535   0.128 -0.1242  0.3502  0.1268
  105MOL    C8227330   3.855   1.488   0.118 -0.2408  0.2271 -0.1830
  105MOL    O8327331   3.820   1.402   0.200  0.2208  0.3952 -0.5797
  105MOL    C8427332   3.757   1.528   0.009  0.0234 -0.1499 -0.3569
  105MOL    C8527333   4.128   1.618   0.309 -0.0804 -0.3191 -1.1998
  105MOL    H8627334   4.013   1.449   0.322 -1.4007 -1.1029 -1.1404
  105MOL    H8727335   4.005   1.596   0.052  0.6455 -0.9614 -0.6848
  105MOL    H8827336   3.778   1.620   7.794 -0.0931  0.9862  1.4567
  105MOL    H8927337   3.774   1.446   7.780 -1.4562 -0.1294 -0.7761
  105MOL    H9027338   3.659   1.524   0.057  0.4716  0.7605  0.6706
  105MOL    H9127339   4.205   1.580   0.376 -0.0129 -0.2709 -1.2505
  105MOL    H9227340   4.172   1.682   0.232  1.7310 -1.0045 -0.7596
  105MOL    C9327341   4.020   1.685   0.401 -0.4041 -0.3390  0.2834
  105MOL    N9427342   4.035   1.833   0.389  0.0253 -0.2879  0.4140
  105MOL    C9527343   3.935   1.911   0.339 -0.0127  0.3434  0.1148
  105MOL    O9627344   3.820   1.874   0.324 -0.7558  0.4148  0.0952
  105MOL    C9727345   3.965   2.048   0.279  0.1745  0.5619 -0.0172
  105MOL    C9827346   4.034   1.646   0.542  0.1108 -0.1505  0.7047
  105MOL    H9927347   3.918   1.652   0.380  0.1583 -0.9705 -1.6121
  105MOL   H10027348   4.128   1.871   0.392 -1.2270  3.2297 -1.9757
  105MOL   H10127349   3.976   2.114   0.365  2.0108 -0.3760  0.4929
  105MOL   H10227350   4.061   2.042   0.227  0.6163 -1.3914  0.9711
  105MOL   H10327351   3.889   2.075   0.206  2.4792 -0.6190 -2.9801
  105MOL   H10427352   4.018   1.539   0.547  0.4306 -0.2321 -0.0274
  105MOL   H10527353   4.132   1.672   0.583 -0.3777  2.2553  0.3939
  105MOL   C10627354   3.948   1.712   0.660  0.0907  0.1863 -0.7111
  105MOL   N10727355   3.993   1.665   0.790 -0.2526 -0.3366 -0.4316
  105MOL   C10827356   4.019   1.743   0.891  0.0342 -0.9759 -0.1198
  105MOL   O10927357   3.993   1.863   0.899  0.4071 -0.3233  0.0031
  105MOL   C11027358   4.079   1.672   1.007  0.0638 -0.4674  0.0613
  105MOL   C11127359   3.795   1.677   0.651 -0.7624 -0.7249 -0.0988
  105MOL   H11227360   3.957   1.820   0.645  0.2769  0.2778  0.0187
  105MOL   H11327361   4.018   1.568   0.798  2.3598  0.3140 -0.1300
  105MOL   H11427362   4.174   1.716   1.036 -0.4825  2.3018 -2.1757
  105MOL   H11527363   4.008   1.674   1.090  1.1358  1.9657  0.9611
  105MOL   H11627364   4.087   1.565   0.989  1.1352 -0.1530 -1.4275
  105MOL   H11727365   3.776   1.724   0.554  0.6224  1.0709  0.4564
  105MOL   H11827366   3.788   1.570   0.634  1.9925 -1.6182  3.9021
  105MOL   C11927367   3.694   1.728   0.753 -0.1772 -0.4463  0.5904
  105MOL   N12027368   3.701   1.652   0.882  0.5400 -0.3814 -0.0084
  105MOL   C12127369   3.607   1.630   0.976  0.5984  0.5100 -0.1554
  105MOL   O12227370   3.487   1.663   0.968  0.1014 -0.0674  0.0728
  105MOL   C12327371   3.656   1.548   1.096  0.2111  0.1770 -0.1622
  105MOL   C12427372   3.553   1.734   0.685 -0.2266 -0.2063  0.7419
  105MOL   H12527373   3.726   1.825   0.792 -0.7427  0.5421 -1.3206
  105MOL   H12627374   3.795   1.617   0.892  1.4682  2.5303  2.0573
  105MOL   H12727375   3.760   1.528   1.070  0.3539 -0.6881  1.0633
  105MOL   H12827376   3.654   1.598   1.193  3.9272 -1.6326  0.9530
  105MOL   H12927377   3.600   1.455   1.097  0.2281  0.1738  0.6211
  105MOL   H13027378   3.548   1.636   0.638  0.1950  0.3565 -0.5078
  105MOL   H13127379   3.467   1.741   0.752  0.2667 -1.0755  1.4803
  105MOL   C13227380   3.517   1.854   0.592 -0.2307 -0.1285 -0.2864
  105MOL   N13327381   3.548   1.828   0.452 -0.2923  0.7861  0.2737
  105MOL   C13427382   3.483   1.736   0.377 -0.1491  0.2803 -0.4213
  105MOL   O13527383   3.388   1.668   0.419 -0.3514 -0.1166 -0.2536
  105MOL   C13627384   3.518   1.726   0.231  0.0248  0.1395 -0.2312
  105MOL   C13727385   3.561   1.997   0.621 -0.8544 -0.3014  0.5771
  105MOL   H13827386   3.408   1.863   0.602 -0.4373  1.4108 -3.3930
  105MOL   H13927387   3.620   1.882   0.408 -1.5367  1.2820 -1.2091
  105MOL   H14027388   3.460   1.650   0.178  0.5635  0.2329 -0.9720
  105MOL   H14127389   3.489   1.812   0.172  0.4651  0.9906  0.7800
  105MOL   H14227390   3.622   1.693   0.219 -0.9006 -2.6438 -1.1222
  105MOL   H14327391   3.670   1.997   0.629 -0.8577 -2.9515  1.1651
  105MOL   H14427392   3.543   2.058   0.533  0.8469 -1.6505 -0.7335
  105MOL   C14527393   3.495   2.064   0.744  0.1734 -0.3742  0.0225
  105MOL   N14627394   3.496   2.208   0.736  0.0184  0.2849  0.5101
  105MOL   C14727395   3.396   2.289   0.713  0.8595 -0.0937  0.5871
  105MOL   O14827396   3.281   2.250   0.703  0.0876  0.0628 -0.0511
  105MOL   C14927397   3.422   2.436   0.718  0.7374  0.4184  0.6576
  105MOL   C15027398   3.539   2.028   0.890  0.1591  0.1018  0.2044
  105MOL   H15127399   3.391   2.034   0.737  0.0076 -0.0826  1.2407
  105MOL   H15227400   3.584   2.257   0.739  0.2366  0.0623 -1.5042
  105MOL   H15327401   3.426   2.452   0.826 -1.3879  0.3155  0.7628
  105MOL   H15427402   3.522   2.467   0.686  0.3723  1.6003  0.6383
  105MOL   H15527403   3.332   2.491   0.691  0.5635 -1.2837 -2.4674
  105MOL   H15627404   3.469   2.074   0.959  1.1986  0.3682  1.0912
  105MOL   H15727405   3.530   1.921   0.912  2.6849 -0.4475 -1.2018
  105MOL   C15827406   3.677   2.082   0.940  0.4174  0.1124  0.1256
  105MOL   N15927407   3.783   2.083   0.835 -0.6054 -0.1373 -0.2897
  105MOL   C16027408   3.834   2.199   0.787 -0.1223 -0.1597 -1.1112
  105MOL   O16127409   3.790   2.310   0.817  0.1664 -0.3988  0.4952
  105MOL   C16227410   3.942   2.185   0.682 -0.3006  0.3956 -0.2015
  105MOL   C16327411   3.713   1.999   1.063 -0.2866 -0.7280 -0.1121
  105MOL   H16427412   3.658   2.182   0.979  0.6298  0.5355 -0.8425
  105MOL   H16527413   3.848   2.006   0.825 -2.1147 -1.3088 -1.5116
  105MOL   H16627414   4.027   2.121   0.707 -0.6167 -0.1015 -0.3954
  105MOL   H16727415   3.897   2.128   0.601  0.8100  2.4157 -2.2960
  105MOL   H16827416   3.994   2.273   0.645 -0.6466 -0.2546 -2.3060
  105MOL   H16927417   3.625   1.985   1.127 -0.9981  1.1617 -0.6422
  105MOL   H17027418   3.745   1.897   1.041  0.4025 -0.3516 -0.8989
  105MOL   C17127419   3.841   2.053   1.135  0.1117 -0.7181  0.3574
  105MOL   N17227420   3.858   1.975   1.254  0.4566 -0.5925  0.1939
  105MOL   C17327421   3.966   1.894   1.285  0.0825  0.3273  0.6279
  105MOL   O17427422   4.072   1.882   1.223  0.8554  0.3484 -0.2557
  105MOL   C17527423   3.947   1.821   1.413 -0.0423 -0.5455 -0.0800
  105MOL   C17627424   3.862   2.208   1.157  0.2594 -0.1133 -0.2808
  105MOL   H17727425   3.926   2.031   1.071  1.7661  2.0922  1.4649
  105MOL   H17827426   3.780   1.988   1.317 -1.2317  1.2811 -2.1870
  105MOL   H17927427   3.847   1.833   1.455 -0.5567  3.4869 -2.2121
  105MOL   H18027428   3.953   1.715   1.388 -1.1455 -0.8329  0.8401
  105MOL   H18127429   4.028   1.833   1.485 -0.1747  0.9211 -0.1737
  105MOL   H18227430   3.858   2.269   1.067 -1.2232  1.3074  0.7344
  105MOL   H18327431   3.785   2.246   1.225 -2.1520 -0.6398 -2.6274
  105MOL   C18427432   3.998   2.240   1.216  0.5054  0.0047 -1.3218
  105MOL   N18527433   3.999   2.388   1.250 -0.3053 -1.0666  0.1033
  105MOL   C18627434   3.933   2.447   1.352  0.2523 -0.2721 -0.0533
  105MOL   O18727435   3.842   2.392   1.415 -0.1286  0.1939  0.2111
  105MOL   C18827436   3.954   2.593   1.373 -0.0367 -0.2123  0.6500
  105MOL   C18927437   4.113   2.216   1.119 -0.1775  0.0868 -0.1451
  105MOL   H19027438   4.017   2.189   1.310 -1.3620  0.8020 -0.4858
  105MOL   H19127439   4.061   2.452   1.201 -0.1292 -0.4693  1.0950
  105MOL   H19227440   3.890   2.631   1.453 -1.5215 -2.7343  0.7066
  105MOL   H19327441   4.058   2.618   1.397 -0.5069  1.8844  0.5678
  105MOL   H19427442   3.932   2.648   1.282  1.0471  0.8145  0.9884
  105MOL   H19527443   4.088   2.133   1.052  0.5430 -0.8925  0.7839
  105MOL   H19627444   4.130   2.300   1.051 -2.5273  0.0963 -0.7786
  105MOL   C19727445   4.240   2.169   1.188  0.3197 -0.1530  0.6445
  105MOL   N19827446   4.311   2.273   1.258  0.3240 -0.4847  0.1081
  105MOL   C19927447   4.301   2.313   1.384 -0.3574  0.1401 -0.4992
  105MOL   O20027448   4.241   2.253   1.474 -0.7764 -0.4836  0.0746
  105MOL   C20127449   4.371   2.440   1.415  0.1366  0.2706 -0.4903
  105MOL   C20227450   4.328   2.100   1.077  0.3354  0.1754  0.4764
  105MOL   H20327451   4.222   2.084   1.253 -2.2329 -0.7818 -0.8327
  105MOL   H20427452   4.350   2.344   1.197 -2.9577  0.9307 -0.4310
  105MOL   H20527453   4.347   2.480   1.514 -0.7133 -0.1600 -0.5212
  105MOL   H20627454   4.480   2.442   1.415  0.1765  0.6772  2.7102
  105MOL   H20727455   4.336   2.519   1.349  0.2537 -0.3733 -1.3189
  105MOL   H20827456   4.261   2.029   1.030  0.9553 -0.2609  0.2375
  105MOL   H20927457   4.356   2.170   0.998 -0.2637  2.2438  2.0297
  105MOL   C21027458   4.450   2.008   1.113  0.7262  0.7541 -0.1337
  105MOL   N21127459   4.520   1.966   0.986  0.4807 -0.2222  0.1699
  105MOL   C21227460   4.611   2.030   0.913  0.0947 -0.0148  0.1687
  105MOL   O21327461   4.659   1.985   0.806  0.0035  0.0099 -0.5080
  105MOL   C21427462   4.665   2.169   0.968  0.3031 -0.4335 -0.4346
  105MOL   C21527463   4.412   1.881   1.189 -0.2070 -0.3652  0.2181
  105MOL   H21627464   4.513   2.068   1.178 -0.2306  1.5690  0.0527
  105MOL   H21727465   4.513   1.871   0.954 -0.2407 -0.5144  1.1750
  105MOL   H21827466   4.762   2.184   0.921  1.1187 -4.1026 -0.0998
  105MOL   H21927467   4.594   2.249   0.944 -0.0202 -0.0947  1.5777
  105MOL   H22027468   4.680   2.173   1.076  1.0501 -0.3594 -0.5391
  105MOL   H22127469   4.374   1.918   1.285  0.4431 -1.0966  0.7593
  105MOL   H22227470   4.331   1.834   1.134  0.0321  0.3725 -0.7772
  105MOL   C22327471   4.525   1.772   1.207 -0.6829  0.0495  0.2580
  105MOL   N22427472   4.471   1.639   1.171 -0.3096 -0.3889 -0.3491
  105MOL   C22527473   4.440   1.603   1.048 -0.0648  0.0747 -0.2152
  105MOL   O22627474   4.459   1.681   0.955 -0.5623  0.0878  0.2539
  105MOL   C22727475   4.392   1.459   1.017  0.0078  0.2677  0.6617
  105MOL   C22827476   4.602   1.781   1.347  0.2983 -0.1048  0.5644
  105MOL   H22927477   4.598   1.787   1.126  0.5214  2.8435  1.7724
  105MOL   H23027478   4.459   1.570   1.244 -1.2432  1.4494  1.2637
  105MOL   H23127479   4.475   1.388   1.009 -1.6134 -1.4795 -1.0877
  105MOL   H23227480   4.335   1.420   1.101  0.2395  1.5735  1.4249
  105MOL   H23327481   4.330   1.459   0.927  0.7681 -0.3204  0.1249
  105MOL   H23427482   4.571   1.852   1.424  1.4542 -1.0778  1.9647
  105MOL   H23527483   4.587   1.688   1.402 -1.4672  0.2107  0.6446
  105MOL   C23627484   4.755   1.789   1.323  0.0891 -0.1231  0.8300
  105MOL   N23727485   4.830   1.740   1.447 -0.0797 -0.4765  0.3082
  105MOL   C23827486   4.855   1.613   1.474 -0.0460 -0.5703 -0.6929
  105MOL   O23927487   4.820   1.524   1.400  0.4977 -0.2044 -0.5839
  105MOL   C24027488   4.954   1.573   1.581  0.2988  0.4990  0.0636
  105MOL   C24127489   4.798   1.936   1.289  0.4178 -0.4924 -0.2928
  105MOL   H24227490   4.782   1.728   1.236 -0.6301 -0.0433  0.5497
  105MOL   H24327491   4.882   1.813   1.493  0.5756  0.1385 -1.3480
  105MOL   H24427492   4.954   1.642   1.666 -1.1826 -0.8775  1.2196
  105MOL   H24527493   4.931   1.483   1.639 -1.1621  0.3017 -0.7809
  105MOL   H24627494   5.058   1.563   1.551  0.6005 -1.5021  1.7144
  105MOL   H24727495   4.733   1.955   1.203 -1.1996  0.1211  1.0328
  105MOL   H24827496   4.764   2.007   1.365  1.2379 -1.6312  1.1644
  105MOL   C24927497   4.947   1.937   1.245  0.1159  0.4528 -0.0591
  105MOL   N25027498   5.011   2.057   1.286 -0.7621 -0.4860  0.5126
  105MOL   C25127499   5.142   2.081   1.311 -0.0416 -0.7020 -0.7429
  105MOL   O25227500   5.166   2.191   1.351 -0.7690  0.2777 -0.4138
  105MOL   C25327501   5.260   1.990   1.281 -0.0709  0.2890  0.1569
  105MOL   C25427502   4.957   1.927   1.094 -0.1811  0.2840 -0.3210
  105MOL   H25527503   5.008   1.859   1.292 -0.6611 -1.2059 -1.7325
  105MOL   H25627504   4.949   2.136   1.289 -1.1646 -0.8248  1.1784
  105MOL   H25727505   5.283   2.002   1.175  0.3770  1.6806  0.4052
  105MOL   H25827506   5.342   2.024   1.343 -0.0016  1.6717 -0.6631
  105MOL   H25927507   5.232   1.885   1.292 -0.9249  0.3450 -1.3699
  105MOL   H26027508   5.060   1.939   1.063 -0.7702  2.7417 -1.3982
  105MOL   H26127509   4.920   1.834   1.051 -0.4322  0.8933 -1.4453
  105MOL   H26227510   4.906   2.012   1.051 -0.7934  0.4703  0.7407
  106MOL     C127511   6.659   1.357   3.236  0.5019 -0.2132  0.0411
  106MOL     N227512   6.675   1.489   3.306  0.1143 -0.3623  0.3374
  106MOL     C327513   6.586   1.555   3.371 -0.3660 -0.2676 -0.4280
  106MOL     O427514   6.464   1.524   3.373  0.2975 -0.0601 -0.3836
  106MOL     C527515   6.649   1.675   3.444  0.1045 -0.4774  0.7793
  106MOL     C627516   6.634   1.240   3.339 -0.1723 -0.4496  0.3084
  106MOL     H727517   6.576   1.355   3.165  0.9045 -1.0874 -0.4097
  106MOL     H827518   6.769   1.525   3.320 -0.0476  0.3441 -0.3656
  106MOL     H927519   6.576   1.755   3.453 -1.6142 -2.0763  1.2653
  106MOL    H1027520   6.681   1.642   3.543  1.1390  1.3642  1.0813
  106MOL    H1127521   6.728   1.723   3.387 -1.9821  1.2630 -0.7200
  106MOL    H1227522   6.703   1.262   3.421  0.8941 -0.6938 -0.5124
  106MOL    H1327523   6.534   1.250   3.380 -0.1394 -1.6810  0.7007
  106MOL    H1427524   6.741   1.329   3.170 -0.1538  0.1455 -0.9568
  106MOL    C1527525   6.658   1.100   3.273  0.0004 -0.8084 -0.4860
  106MOL    N1627526   6.540   1.062   3.186  0.7138  0.5234 -0.1212
  106MOL    C1727527   6.531   1.077   3.056  0.1202  0.3857 -0.5129
  106MOL    O1827528   6.607   1.144   2.980 -0.1882  0.5685 -0.0596
  106MOL    C1927529   6.399   1.032   3.004 -0.2106  0.1125 -0.1031
  106MOL    C2027530   6.676   0.985   3.376 -0.1206  0.1285  0.2777
  106MOL    H2127531   6.745   1.103   3.207  1.4406 -2.5013  1.3129
  106MOL    H2227532   6.465   1.011   3.230  1.1616  1.1292  1.3952
  106MOL    H2327533   6.394   1.052   2.897 -0.4052 -1.2356 -0.3617
  106MOL    H2427534   6.387   0.924   3.017  1.0566 -0.0611 -0.3340
  106MOL    H2527535   6.323   1.089   3.058 -0.2019  0.6532 -0.6550
  106MOL    H2627536   6.594   0.986   3.447 -0.1356  0.2201  0.2581
  106MOL    H2727537   6.675   0.890   3.321  1.9193  1.1249 -1.5813
  106MOL    C2827538   6.800   0.992   3.459 -0.0208  0.7951  0.5439
  106MOL    N2927539   6.917   1.016   3.368  0.2501  0.0482  0.4686
  106MOL    C3027540   6.995   1.123   3.376  0.3753  0.1554 -0.2890
  106MOL    O3127541   6.996   1.195   3.472  0.2533 -0.0196  0.3790
  106MOL    C3227542   7.086   1.154   3.258  0.0301 -0.4770 -0.4306
  106MOL    C3327543   6.830   0.871   3.545 -0.5177  0.1551 -0.4514
  106MOL    H3427544   6.792   1.083   3.519 -0.3498  1.8495 -1.0580
  106MOL    H3527545   6.928   0.959   3.285 -1.4363  0.4951 -0.0826
  106MOL    H3627546   7.058   1.089   3.175  1.0337  0.0049 -1.1602
  106MOL    H3727547   7.055   1.253   3.223  0.3029  0.2551  1.3109
  106MOL    H3827548   7.194   1.142   3.272 -0.2160 -2.3455 -0.0286
  106MOL    H3927549   6.860   0.794   3.475  0.0970  0.8925 -0.9986
  106MOL    H4027550   6.922   0.873   3.603 -0.7182 -0.9863 -0.0839
  106MOL    C4127551   6.717   0.815   3.642  0.7059 -0.6162 -0.2787
  106MOL    N4227552   6.725   0.861   3.784  0.4615 -0.1136 -0.0869
  106MOL    C4327553   6.695   0.988   3.827 -0.0080  0.2487  0.5541
  106MOL    O4427554   6.668   1.079   3.744  0.0871 -0.2336 -0.4054
  106MOL    C4527555   6.712   1.020   3.974  0.0481 -0.0871 -0.3823
  106MOL    C4627556   6.717   0.663   3.647  0.3212 -0.1835  0.0039
  106MOL    H4727557   6.622   0.858   3.610  0.5863 -1.8391 -1.6124
  106MOL    H4827558   6.758   0.799   3.857 -2.2395 -1.6067 -0.0775
  106MOL    H4927559   6.663   0.950   4.042  1.3574 -2.8844 -2.2281
  106MOL    H5027560   6.818   1.021   4.000 -0.6666  0.3531  2.7024
  106MOL    H5127561   6.681   1.121   4.000  1.3844  0.1854  0.1933
  106MOL    H5227562   6.812   0.619   3.679 -0.6909 -1.2403  1.5918
  106MOL    H5327563   6.655   0.640   3.733  0.3787 -0.5480 -0.0487
  106MOL    C5427564   6.655   0.597   3.522 -0.9358  0.5410  0.5950
  106MOL    N5527565   6.508   0.622   3.524  0.0038 -0.1335 -0.3741
  106MOL    C5627566   6.436   0.683   3.433  0.1535  0.2627 -0.0441
  106MOL    O5727567   6.475   0.720   3.324 -0.3428 -0.0926  0.9620
  106MOL    C5827568   6.284   0.684   3.457  0.5217 -0.8420  0.1495
  106MOL    C5927569   6.692   0.447   3.511  0.3143  0.4317  0.0825
  106MOL    H6027570   6.691   0.650   3.434 -1.3312 -0.9383 -0.4708
  106MOL    H6127571   6.456   0.588   3.604 -1.6705  0.7425 -1.0735
  106MOL    H6227572   6.254   0.784   3.425 -1.6763 -1.1377  1.2299
  106MOL    H6327573   6.231   0.602   3.411 -0.1379  0.2637 -1.0977
  106MOL    H6427574   6.255   0.692   3.562  0.8032 -0.9760  0.2380
  106MOL    H6527575   6.649   0.411   3.605  1.3908 -0.2107  0.3362
  106MOL    H6627576   6.635   0.390   3.438  2.1152 -1.7993  0.3862
  106MOL    C6727577   6.846   0.406   3.490  0.2859  0.3467 -0.2221
  106MOL    N6827578   6.890   0.476   3.374  0.4779 -0.2071  0.0186
  106MOL    C6927579   7.015   0.537   3.366 -0.9001  0.8206 -0.2848
  106MOL    O7027580   7.106   0.531   3.448  0.3435  0.3098  0.1543
  106MOL    C7127581   7.039   0.602   3.234 -0.8427 -0.0998  0.4635
  106MOL    C7227582   6.878   0.255   3.485 -0.1810 -1.1584 -0.0442
  106MOL    H7327583   6.889   0.430   3.587 -1.1022 -0.8441  0.7196
  106MOL    H7427584   6.835   0.464   3.291 -0.7885  0.7998  0.6892
  106MOL    H7527585   7.059   0.531   3.154 -0.3073 -0.0557  0.5563
  106MOL    H7627586   6.962   0.669   3.197  0.1636  1.0911  0.4527
  106MOL    H7727587   7.124   0.668   3.255 -1.0802  0.7176 -1.0916
  106MOL    H7827588   6.976   0.245   3.531  1.1380  1.9686 -2.0143
  106MOL    H7927589   6.818   0.193   3.551 -0.7910 -0.6581 -0.1159
  106MOL    C8027590   6.854   0.193   3.353  0.6683  0.5782 -0.4402
  106MOL    N8127591   6.712   0.193   3.308  0.0431 -0.3735 -0.0018
  106MOL    C8227592   6.620   0.107   3.360  0.2765 -0.3016  0.3003
  106MOL    O8327593   6.636   0.042   3.458 -0.4126 -0.2943  0.2932
  106MOL    C8427594   6.501   0.081   3.268 -0.1776 -0.4399 -0.6832
  106MOL    C8527595   6.915   0.056   3.333 -0.5720 -0.3371  0.8749
  106MOL    H8627596   6.902   0.250   3.272  0.4751  0.9535 -0.2937
  106MOL    H8727597   6.688   0.232   3.218 -0.3836  0.0797  0.3099
  106MOL    H8827598   6.445   0.171   3.241 -0.0567 -0.5710 -1.3748
  106MOL    H8927599   6.541   0.018   3.188 -1.0977 -0.2498 -1.3046
  106MOL    H9027600   6.438   0.020   3.332  0.1952  0.6970  0.7961
  106MOL    H9127601   7.022   0.054   3.355 -0.5181  1.1379  0.7896
  106MOL    H9227602   6.883   7.825   3.410 -0.3956  1.6586  2.8263
  106MOL    C9327603   6.905   0.001   3.188  0.8478 -0.6843  0.8208
  106MOL    N9427604   6.923   7.689   3.197  0.3419  0.5113 -0.2195
  106MOL    C9527605   6.827   7.596   3.169  0.8525 -0.0454  0.7957
  106MOL    O9627606   6.707   7.620   3.141 -0.2732  0.0463 -0.0752
  106MOL    C9727607   6.866   7.452   3.168 -0.6434  0.7303 -0.0136
  106MOL    C9827608   6.999   0.072   3.084 -0.1665 -0.3096  0.3674
  106MOL    H9927609   6.801   0.014   3.159  1.1175 -0.8054 -0.2336
  106MOL   H10027610   7.018   7.661   3.217 -0.2933 -1.7524 -0.2238
  106MOL   H10127611   6.857   7.411   3.269  2.0348 -2.7124 -1.0825
  106MOL   H10227612   6.791   7.392   3.116 -1.0124  2.1402 -1.1682
  106MOL   H10327613   6.965   7.428   3.130 -0.3508 -1.0119  1.7556
  106MOL   H10427614   7.017   0.175   3.114  1.3458 -1.2428  2.7239
  106MOL   H10527615   7.096   0.028   3.105  1.0629  2.4840  0.7880
  106MOL   C10627616   6.944   0.071   2.940  0.3503  0.4126 -0.8847
  106MOL   N10727617   7.057   0.123   2.861  0.3278 -0.6081 -0.2077
  106MOL   C10827618   7.087   0.070   2.741  0.4572 -0.2132 -0.5159
  106MOL   O10927619   7.028   7.814   2.692 -0.2627  0.4384 -0.7381
  106MOL   C11027620   7.212   0.118   2.673 -0.2967 -0.0907  0.8858
  106MOL   C11127621   6.808   0.143   2.913  0.4651 -0.5817 -0.2041
  106MOL   H11227622   6.931   7.805   2.917  2.5367  0.3460 -1.9145
  106MOL   H11327623   7.098   0.210   2.894 -0.7279 -0.1255 -0.1432
  106MOL   H11427624   7.160   0.154   2.584 -1.1718  2.2504  2.3164
  106MOL   H11527625   7.265   0.196   2.728  0.4314  1.6611 -2.1462
  106MOL   H11627626   7.276   0.030   2.665 -0.9540 -0.3172 -2.9481
  106MOL   H11727627   6.763   0.104   2.822 -1.2565 -0.0141  0.3835
  106MOL   H11827628   6.743   0.113   2.996 -1.1754 -0.0202 -1.2491
  106MOL   C11927629   6.801   0.297   2.911 -0.1047 -0.5290  0.4822
  106MOL   N12027630   6.667   0.342   2.960 -0.8057  0.1863 -0.1525
  106MOL   C12127631   6.650   0.420   3.063  0.0360  0.1675  0.0971
  106MOL   O12227632   6.742   0.453   3.139  0.2908 -0.0338  0.2569
  106MOL   C12327633   6.512   0.471   3.097  0.3453 -0.0642 -0.0784
  106MOL   C12427634   6.806   0.342   2.762 -0.0120 -0.1313 -0.2068
  106MOL   H12527635   6.881   0.337   2.974 -1.4778  0.3118  1.7240
  106MOL   H12627636   6.589   0.328   2.898 -0.8639 -2.4450  0.4703
  106MOL   H12727637   6.502   0.572   3.059 -0.7096  0.6580  2.0186
  106MOL   H12827638   6.439   0.411   3.043  1.3619  0.1759 -1.7553
  106MOL   H12927639   6.481   0.475   3.202  0.1622  0.0203 -0.1362
  106MOL   H13027640   6.873   0.280   2.702 -1.6185 -1.0227 -1.1137
  106MOL   H13127641   6.706   0.323   2.722 -0.3952 -1.0396  1.1389
  106MOL   C13227642   6.828   0.494   2.742 -0.0385 -0.0068 -0.1279
  106MOL   N13327643   6.812   0.516   2.597 -0.1604  0.8097 -0.5373
  106MOL   C13427644   6.799   0.639   2.542 -0.7087 -0.7567  0.5067
  106MOL   O13527645   6.803   0.737   2.611 -0.1758 -0.6601 -0.4061
  106MOL   C13627646   6.776   0.643   2.390  0.2619  0.5782  0.8211
  106MOL   C13727647   6.969   0.546   2.800 -0.3802  0.7085 -0.4432
  106MOL   H13827648   6.745   0.545   2.790 -0.4717 -0.2128 -0.6593
  106MOL   H13927649   6.788   0.432   2.548  0.9565  0.3610 -0.3239
  106MOL   H14027650   6.864   0.602   2.341 -0.5800  0.3952 -0.5401
  106MOL   H14127651   6.690   0.579   2.371 -0.7750  2.1135  0.3071
  106MOL   H14227652   6.757   0.738   2.341  2.6227  1.2624  1.1940
  106MOL   H14327653   6.966   0.654   2.788 -2.1638  0.5602 -1.4259
  106MOL   H14427654   6.968   0.533   2.909  1.3506  1.4480 -0.3318
  106MOL   C14527655   7.101   0.488   2.742  0.2797  0.5317  0.9276
  106MOL   N14627656   7.212   0.515   2.832 -0.3914  0.1554 -0.0563
  106MOL   C14727657   7.247   0.436   2.939  0.2740 -0.8821 -0.6936
  106MOL   O14827658   7.183   0.337   2.973  0.5234 -0.0741 -0.0931
  106MOL   C14927659   7.367   0.487   3.023  0.1495 -0.1480  0.0128
  106MOL   C15027660   7.140   0.539   2.602  0.3807  0.2605 -0.3705
  106MOL   H15127661   7.095   0.380   2.729 -0.2908  0.9074 -2.3016
  106MOL   H15227662   7.266   0.598   2.816 -0.5837  0.1088 -0.9450
  106MOL   H15327663   7.334   0.581   3.067 -1.2257  0.6876 -2.7071
  106MOL   H15427664   7.390   0.406   3.091 -2.5254  0.3791  1.6145
  106MOL   H15527665   7.460   0.504   2.968  0.0421  1.0011  0.1578
  106MOL   H15627666   7.053   0.542   2.536  0.1979  1.9142 -0.0823
  106MOL   H15727667   7.154   0.646   2.616 -2.4003  0.5261  0.8158
  106MOL   C15827668   7.248   0.465   2.519  0.0004 -0.0240  0.6019
  106MOL   N15927669   7.374   0.505   2.591 -0.3950 -0.3226  0.0957
  106MOL   C16027670   7.478   0.420   2.620 -0.2800 -0.2274 -0.5443
  106MOL   O16127671   7.481   0.303   2.588 -0.3248 -0.3147 -0.4050
  106MOL   C16227672   7.597   0.467   2.709 -0.9054 -0.0536 -0.1006
  106MOL   C16327673   7.276   0.508   2.378  0.0066 -0.4296  0.8471
  106MOL   H16427674   7.223   0.360   2.533 -0.9294 -0.4980 -3.8508
  106MOL   H16527675   7.375   0.599   2.629 -1.6242 -0.8137  1.4226
  106MOL   H16627676   7.645   0.394   2.773 -0.7226 -0.1884 -0.3868
  106MOL   H16727677   7.685   0.508   2.658  0.0555 -1.2581  0.5689
  106MOL   H16827678   7.569   0.542   2.782 -1.5226  2.2031 -2.5828
  106MOL   H16927679   7.289   0.616   2.390  2.1685 -0.5458 -0.3506
  106MOL   H17027680   7.369   0.466   2.340 -0.2560 -0.2923  0.0492
  106MOL   C17127681   7.164   0.469   2.283 -0.1872 -0.2069  0.1641
  106MOL   N17227682   7.158   0.324   2.258  0.0603 -0.0931  0.6026
  106MOL   C17327683   7.079   0.240   2.321 -0.2952  0.0504  0.3059
  106MOL   O17427684   6.995   0.285   2.397 -0.1015  0.6039 -0.7646
  106MOL   C17527685   7.105   0.085   2.311  0.9215 -0.4415  0.6946
  106MOL   C17627686   7.175   0.552   2.148 -0.0604 -0.8814 -0.1726
  106MOL   H17727687   7.067   0.500   2.321 -0.7022 -2.0813  0.4107
  106MOL   H17827688   7.235   0.272   2.218 -0.0614 -0.6797  1.1324
  106MOL   H17927689   7.033   0.035   2.246  0.6349  0.8538 -0.0141
  106MOL   H18027690   7.207   0.062   2.279 -0.7071 -4.0294 -2.3485
  106MOL   H18127691   7.093   0.035   2.407 -0.9921  0.3646  0.8962
  106MOL   H18227692   7.145   0.657   2.157  0.2484 -0.5269 -2.9753
  106MOL   H18327693   7.277   0.548   2.110 -0.0172  0.2118 -0.1894
  106MOL   C18427694   7.096   0.512   2.021  0.4585 -0.2381  0.3376
  106MOL   N18527695   7.140   0.602   1.912  0.2632 -0.6240 -0.3377
  106MOL   C18627696   7.139   0.571   1.784 -0.0192  0.3220  0.1298
  106MOL   O18727697   7.099   0.460   1.741 -0.6953  0.1216  0.2087
  106MOL   C18827698   7.174   0.666   1.674  0.5314 -0.0188 -0.5563
  106MOL   C18927699   6.936   0.515   2.048 -0.0032  0.9928  0.2877
  106MOL   H19027700   7.140   0.414   2.003  0.7991 -0.1863  0.8861
  106MOL   H19127701   7.170   0.697   1.926  1.0972 -0.8611 -0.4782
  106MOL   H19227702   7.140   0.764   1.708 -0.2407 -0.9672  1.4369
  106MOL   H19327703   7.277   0.662   1.638  0.2483 -2.6266 -1.2051
  106MOL   H19427704   7.109   0.650   1.588  0.5866 -0.0585 -0.5910
  106MOL   H19527705   6.911   0.482   2.149 -0.7974 -1.8828 -0.7924
  106MOL   H19627706   6.912   0.621   2.051 -1.4203  0.6473  2.5495
  106MOL   C19727707   6.854   0.433   1.941 -0.3212  0.1525  0.1507
  106MOL   N19827708   6.724   0.489   1.921  0.5660  0.4709 -0.0367
  106MOL   C19927709   6.626   0.493   2.010  0.1001 -0.0201  0.1504
  106MOL   O20027710   6.632   0.465   2.132 -0.4081 -0.0729 -0.1183
  106MOL   C20127711   6.491   0.541   1.956 -0.2466  0.5642  0.1365
  106MOL   C20227712   6.848   0.276   1.963 -0.2914 -0.2719 -0.2548
  106MOL   H20327713   6.907   0.450   1.847  1.9842 -0.9100  1.2083
  106MOL   H20427714   6.695   0.508   1.826 -0.4714  0.6537  0.3048
  106MOL   H20527715   6.426   0.455   1.943  1.0185 -0.9337  3.1541
  106MOL   H20627716   6.438   0.587   2.039 -0.7542 -2.5718  1.6414
  106MOL   H20727717   6.480   0.612   1.874 -0.2335 -1.1792 -1.4041
  106MOL   H20827718   6.953   0.246   1.971 -0.1300  0.6540  1.3062
  106MOL   H20927719   6.797   0.265   2.059  0.7116  4.5669  1.0000
  106MOL   C21027720   6.783   0.193   1.856 -0.3744  0.8413  0.0244
  106MOL   N21127721   6.693   0.087   1.910 -0.2506  0.2994 -0.4867
  106MOL   C21227722   6.563   0.104   1.942 -0.7024 -0.4761 -0.3226
  106MOL   O21327723   6.502   0.214   1.932 -0.1108 -0.3287 -0.2897
  106MOL   C21427724   6.484   7.826   1.998  0.1461 -0.2638  0.9289
  106MOL   C21527725   6.886   0.141   1.751  0.1786  0.6017  0.3800
  106MOL   H21627726   6.710   0.249   1.796 -2.2353 -0.1041  1.3527
  106MOL   H21727727   6.743   0.014   1.959 -1.9964 -1.0806 -0.7194
  106MOL   H21827728   6.552   7.744   1.973 -0.6642 -0.3492 -1.0654
  106MOL   H21927729   6.469   7.838   2.106 -0.8658 -3.0744  1.1380
  106MOL   H22027730   6.391   7.815   1.944  0.6223  0.5701 -0.0767
  106MOL   H22127731   6.953   0.222   1.723  1.3483 -0.7507 -0.7714
  106MOL   H22227732   6.945   0.074   1.813 -0.9362 -0.2881  0.5085
  106MOL   C22327733   6.816   0.076   1.631 -0.1383 -0.0885 -0.5529
  106MOL   N22427734   6.916   0.000   1.563  0.2021 -0.1029  0.1118
  106MOL   C22527735   6.899   7.732   1.485 -0.3399  0.5060 -0.1110
  106MOL   O22627736   6.787   7.701   1.444 -0.2094 -0.3218  0.3026
  106MOL   C22727737   7.026   7.670   1.416 -0.0412  0.0186 -0.0777
  106MOL   C22827738   6.739   0.166   1.531  0.5128 -0.6922 -0.3792
  106MOL   H22927739   6.746   0.009   1.681 -0.0135 -0.2464 -0.5892
  106MOL   H23027740   7.012   0.031   1.564 -0.4868  2.1485 -0.4475
  106MOL   H23127741   7.092   7.610   1.479  1.0189 -0.2513 -1.4123
  106MOL   H23227742   6.981   7.603   1.342 -0.8755  0.2333  0.2281
  106MOL   H23327743   7.066   7.753   1.359  1.3208  0.0004  0.8365
  106MOL   H23427744   6.703   0.103   1.450  2.4705 -1.4776 -0.6707
  106MOL   H23527745   6.661   0.210   1.594 -0.5475 -1.0171 -1.4544
  106MOL   C23627746   6.797   0.289   1.465 -0.2024 -0.8663  0.0267
  106MOL   N23727747   6.689   0.389   1.448 -0.0840 -0.0153  0.1983
  106MOL   C23827748   6.678   0.505   1.513 -0.7509 -0.1753  0.3185
  106MOL   O23927749   6.763   0.555   1.599  0.1799  0.4230 -0.3266
  106MOL   C24027750   6.549   0.577   1.481  0.1093 -0.0393 -0.3779
  106MOL   C24127751   6.877   0.263   1.341  0.0895 -0.2556  0.3560
  106MOL   H24227752   6.866   0.340   1.533 -0.8600  0.7791 -0.5063
  106MOL   H24327753   6.621   0.366   1.378 -1.2581  0.6329  1.1170
  106MOL   H24427754   6.547   0.682   1.510  1.1055  0.7150 -2.9027
  106MOL   H24527755   6.531   0.565   1.374  1.4471  0.4648 -0.6744
  106MOL   H24627756   6.471   0.528   1.538  0.5504 -1.0113 -0.6008
  106MOL   H24727757   6.926   0.357   1.319 -0.3997  0.0364  0.5019
  106MOL   H24827758   6.962   0.196   1.356  0.2886 -0.4338 -1.4045
  106MOL   C24927759   6.799   0.233   1.213  0.0564  0.5106  0.8012
  106MOL   N25027760   6.894   0.166   1.117 -0.1720  0.3428  0.3780
  106MOL   C25127761   6.854   0.109   0.995 -0.3187  0.3814  0.8115
  106MOL   O25227762   6.743   0.129   0.954  0.4367 -0.2369 -0.6516
  106MOL   C25327763   6.961   0.041   0.914 -0.4300  0.1552  0.3348
  106MOL   C25427764   6.736   0.364   1.144  0.0956 -0.0662 -0.2029
  106MOL   H25527765   6.723   0.160   1.242 -1.7328  2.7097  1.8633
  106MOL   H25627766   6.994   0.168   1.133 -0.4623  2.5543  2.0614
  106MOL   H25727767   6.919   0.002   0.822  1.8731 -1.4133 -0.0981
  106MOL   H25827768   7.037   0.111   0.881 -1.9654  1.7034  0.0109
  106MOL   H25927769   7.001   7.800   0.976 -1.9914 -2.1235 -1.5702
  106MOL   H26027770   6.803   0.450   1.151 -0.7602  0.7389 -1.6357
  106MOL   H26127771   6.715   0.361   1.038  0.0808 -1.3127 -0.1713
  106MOL   H26227772   6.644   0.407   1.185  1.4735  2.7352  0.0714
  107MOL     C127773   2.080   1.606   3.364 -0.6671  0.7040 -0.7832
  107MOL     N227774   2.093   1.717   3.278 -0.1450  0.1030 -0.1557
  107MOL     C327775   1.995   1.789   3.228  0.2123 -0.4948 -0.4960
  107MOL     O427776   1.878   1.757   3.260  0.2798 -0.2562 -0.7656
  107MOL     C527777   2.027   1.914   3.151 -0.2763 -0.0523 -0.2833
  107MOL     C627778   2.165   1.635   3.496 -0.0291  0.0485 -0.8045
  107MOL     H727779   1.979   1.588   3.402 -1.3598  0.2370 -2.8024
  107MOL     H827780   2.186   1.751   3.259 -0.2468  0.3890 -0.1506
  107MOL     H927781   1.940   1.940   3.091  1.9831  2.9054 -2.4123
  107MOL    H1027782   2.061   1.986   3.225  1.8608 -1.4978  0.2048
  107MOL    H1127783   2.113   1.906   3.085  1.2044 -0.5850  1.6525
  107MOL    H1227784   2.264   1.661   3.457  0.3696 -1.7324 -1.0626
  107MOL    H1327785   2.125   1.724   3.544 -0.3102  0.0419 -1.0302
  107MOL    H1427786   2.113   1.514   3.317 -0.0493  0.5055  0.0368
  107MOL    C1527787   2.177   1.520   3.605 -0.2491  0.2171  0.8671
  107MOL    N1627788   2.249   1.569   3.725  0.2769  0.8826 -0.1285
  107MOL    C1727789   2.192   1.634   3.828  0.3413 -0.3912 -0.5132
  107MOL    O1827790   2.072   1.655   3.815 -0.5120  0.3609 -0.4591
  107MOL    C1927791   2.263   1.688   3.949  0.7005 -0.7157  0.5612
  107MOL    C2027792   2.230   1.384   3.551 -0.1897  0.3552  1.0855
  107MOL    H2127793   2.075   1.492   3.631 -0.3754 -0.1749 -0.0231
  107MOL    H2227794   2.346   1.540   3.734 -0.1417 -0.3185  0.6060
  107MOL    H2327795   2.324   1.610   3.993  1.7330 -1.4060 -2.0166
  107MOL    H2427796   2.324   1.772   3.916 -1.6392 -0.0087 -2.1302
  107MOL    H2527797   2.188   1.731   4.016  0.6546  0.4294 -0.2221
  107MOL    H2627798   2.141   1.341   3.507 -0.3460  1.1448  0.6254
  107MOL    H2727799   2.292   1.409   3.465 -1.9706  0.3366 -0.2183
  107MOL    C2827800   2.305   1.279   3.645 -0.5855 -0.6924  0.3341
  107MOL    N2927801   2.339   1.153   3.570 -0.2256 -0.3415 -0.0723
  107MOL    C3027802   2.415   1.151   3.464 -0.8162  0.4181 -0.2430
  107MOL    O3127803   2.478   1.247   3.420 -0.4238  0.3410  0.1169
  107MOL    C3227804   2.404   1.030   3.379 -0.8449 -0.0101  0.5387
  107MOL    C3327805   2.214   1.247   3.772 -1.1878 -0.6935 -0.5279
  107MOL    H3427806   2.397   1.327   3.676 -0.0209 -1.7602  0.3354
  107MOL    H3527807   2.304   1.065   3.605  0.2167 -1.0235 -1.3064
  107MOL    H3627808   2.305   0.983   3.382 -0.2789 -1.3431 -0.8090
  107MOL    H3727809   2.424   1.065   3.278 -1.7524  2.1409  1.0694
  107MOL    H3827810   2.487   0.961   3.393  0.1443  0.8542 -0.9514
  107MOL    H3927811   2.185   1.344   3.812  2.3033  1.3018 -2.5748
  107MOL    H4027812   2.128   1.204   3.722 -0.8527 -2.2738  0.1999
  107MOL    C4127813   2.264   1.153   3.881 -0.4494 -0.4143 -0.0282
  107MOL    N4227814   2.181   1.136   3.996  0.1170 -0.6153 -0.4486
  107MOL    C4327815   2.134   1.227   4.081 -0.9849  0.1908  0.2951
  107MOL    O4427816   2.164   1.346   4.074  0.0102 -0.0530  0.7553
  107MOL    C4527817   2.045   1.175   4.194  0.1956 -0.4771  0.6267
  107MOL    C4627818   2.403   1.174   3.937  0.3454  0.0726 -0.1572
  107MOL    H4727819   2.265   1.052   3.839 -0.6770 -0.6188  0.4416
  107MOL    H4827820   2.162   1.040   4.022 -1.2668  0.0946  1.2738
  107MOL    H4927821   1.945   1.147   4.162  0.7591 -1.5986 -0.2103
  107MOL    H5027822   2.095   1.087   4.236  0.7799 -0.0534  0.8250
  107MOL    H5127823   2.021   1.256   4.263 -0.0215  1.6224 -1.8725
  107MOL    H5227824   2.422   1.281   3.938 -2.6748  0.6748  2.9179
  107MOL    H5327825   2.404   1.146   4.042 -1.2421 -3.4818 -1.0185
  107MOL    C5427826   2.515   1.077   3.872 -0.1375 -0.6996 -0.9149
  107MOL    N5527827   2.482   0.935   3.893 -0.1664  0.3495 -0.3375
  107MOL    C5627828   2.451   0.857   3.791 -0.0509 -0.5937 -0.6061
  107MOL    O5727829   2.427   0.901   3.675  0.4796 -0.1648 -0.4467
  107MOL    C5827830   2.470   0.707   3.812 -0.7422 -0.0733  0.0281
  107MOL    C5927831   2.653   1.094   3.939 -0.8886 -0.5313 -0.0169
  107MOL    H6027832   2.527   1.097   3.766 -0.1284  0.7721 -0.6434
  107MOL    H6127833   2.499   0.901   3.987  0.1273 -0.8808 -0.8291
  107MOL    H6227834   2.380   0.649   3.833 -0.4281 -0.6644 -0.2470
  107MOL    H6327835   2.524   0.659   3.731 -0.5704  2.9175 -1.7257
  107MOL    H6427836   2.541   0.701   3.894 -0.0287 -1.2076 -0.6654
  107MOL    H6527837   2.623   1.093   4.044 -0.5151  0.1323  0.1002
  107MOL    H6627838   2.712   1.003   3.929 -1.5058 -1.0048  0.6366
  107MOL    C6727839   2.727   1.222   3.894 -0.0938  0.1038  0.0244
  107MOL    N6827840   2.863   1.180   3.860  0.5720  0.0388  0.5804
  107MOL    C6927841   2.902   1.180   3.732  0.5334 -0.0491  1.0934
  107MOL    O7027842   2.833   1.195   3.633 -0.2541  0.1262  0.2911
  107MOL    C7127843   3.053   1.165   3.720  0.1994 -0.3793 -0.2624
  107MOL    C7227844   2.721   1.350   3.985 -0.2457 -0.3057  0.6504
  107MOL    H7327845   2.667   1.256   3.809  0.2683  2.8018  0.8147
  107MOL    H7427846   2.936   1.174   3.930  2.2417  1.3054 -0.9815
  107MOL    H7527847   3.091   1.132   3.624 -0.7329 -0.2548 -0.6826
  107MOL    H7627848   3.099   1.262   3.741  1.3331 -0.5948 -1.7131
  107MOL    H7727849   3.080   1.085   3.789  0.5471  0.3132  0.4124
  107MOL    H7827850   2.615   1.366   4.000  0.3429  3.4219  1.2301
  107MOL    H7927851   2.761   1.314   4.079  0.3559  1.4519  1.0867
  107MOL    C8027852   2.780   1.485   3.934 -0.7869 -0.5781  0.3412
  107MOL    N8127853   2.744   1.499   3.792 -0.2033 -0.1298  0.0648
  107MOL    C8227854   2.628   1.534   3.736  0.5986  0.4898 -0.0683
  107MOL    O8327855   2.528   1.577   3.798 -0.3001 -0.2613 -0.1058
  107MOL    C8427856   2.618   1.526   3.585  1.1738 -0.5560 -0.0982
  107MOL    C8527857   2.931   1.496   3.948 -0.2779  1.1846  0.1458
  107MOL    H8627858   2.733   1.564   3.993  0.0684 -1.1883  1.8665
  107MOL    H8727859   2.824   1.490   3.731  1.5413  0.7347  2.1262
  107MOL    H8827860   2.626   1.421   3.557  0.6118 -0.1693 -1.7216
  107MOL    H8927861   2.517   1.550   3.551  1.4444  1.1987  0.3034
  107MOL    H9027862   2.689   1.594   3.537  1.5932 -1.2300 -0.4373
  107MOL    H9127863   2.989   1.404   3.955 -1.2883  0.6151  1.1308
  107MOL    H9227864   2.964   1.573   3.877 -0.9501  0.9679 -0.4114
  107MOL    C9327865   2.975   1.550   4.081  0.2568  0.3813 -0.3217
  107MOL    N9427866   2.932   1.687   4.093 -0.4188  0.3423  0.4524
  107MOL    C9527867   2.847   1.733   4.179  0.5392 -0.3425  0.3347
  107MOL    O9627868   2.772   1.664   4.250 -0.4068 -0.5960  0.7024
  107MOL    C9727869   2.850   1.884   4.184  0.1385 -0.2587  0.2374
  107MOL    C9827870   3.134   1.542   4.091  0.4558  0.1039 -0.8161
  107MOL    H9927871   2.921   1.498   4.161 -0.5305  0.5909 -0.7140
  107MOL   H10027872   3.008   1.744   4.056 -0.7652  1.0946  0.8789
  107MOL   H10127873   2.750   1.924   4.200  0.6646  0.5982  1.4437
  107MOL   H10227874   2.900   1.914   4.276  0.2279  1.0646 -0.2203
  107MOL   H10327875   2.901   1.928   4.098 -0.1702  2.0696  1.1886
  107MOL   H10427876   3.179   1.596   4.008  0.6730  0.5783 -0.3931
  107MOL   H10527877   3.161   1.604   4.176  0.1530  1.7786 -1.9306
  107MOL   C10627878   3.198   1.399   4.112 -0.2541  0.2223  0.7771
  107MOL   N10727879   3.132   1.319   4.218 -0.7764  0.1102 -0.1348
  107MOL   C10827880   3.052   1.217   4.203 -0.1974 -0.1225 -0.5961
  107MOL   O10927881   3.012   1.172   4.095 -0.2122  0.0074  0.4562
  107MOL   C11027882   3.012   1.149   4.328  0.3445  0.1232  0.0229
  107MOL   C11127883   3.349   1.410   4.138 -1.0305 -0.1183  0.8754
  107MOL   H11227884   3.200   1.348   4.016 -2.6153  2.3274 -0.4335
  107MOL   H11327885   3.155   1.341   4.314 -1.1285  0.0759 -0.0432
  107MOL   H11427886   3.012   1.213   4.416  1.8470  1.5247 -0.9640
  107MOL   H11527887   2.911   1.111   4.314  0.0814  0.4389  0.9994
  107MOL   H11627888   3.081   1.069   4.355 -0.6912 -0.6449  0.4144
  107MOL   H11727889   3.401   1.443   4.048 -0.6504 -4.7933 -0.7341
  107MOL   H11827890   3.362   1.500   4.198 -0.6053 -0.5676  1.4642
  107MOL   C11927891   3.445   1.297   4.188  0.2441 -0.8811 -0.3427
  107MOL   N12027892   3.577   1.361   4.215 -0.2765 -0.2597 -0.0902
  107MOL   C12127893   3.613   1.419   4.333  0.3184 -0.5359  0.3229
  107MOL   O12227894   3.531   1.441   4.422 -0.6784 -0.4027 -0.6540
  107MOL   C12327895   3.751   1.472   4.350 -0.7644  0.9046  0.9589
  107MOL   C12427896   3.457   1.183   4.089 -0.6614 -0.0933  0.3301
  107MOL   H12527897   3.395   1.265   4.279 -0.5750 -1.0001 -0.8278
  107MOL   H12627898   3.648   1.335   4.148 -0.4123 -2.7573  0.7122
  107MOL   H12727899   3.782   1.491   4.453 -2.2813 -0.3543  1.6698
  107MOL   H12827900   3.823   1.403   4.307 -3.3053 -1.5668  0.5684
  107MOL   H12927901   3.749   1.565   4.293 -0.4609 -0.1676 -0.8217
  107MOL   H13027902   3.352   1.162   4.069 -0.0490  0.0006 -3.4512
  107MOL   H13127903   3.501   1.234   4.003 -0.3411  2.5606  2.0253
  107MOL   C13227904   3.527   1.053   4.142 -0.8100 -0.8422  0.2867
  107MOL   N13327905   3.673   1.076   4.164  0.2526  0.0643  0.2607
  107MOL   C13427906   3.742   1.068   4.280  0.0097 -0.0731  0.4981
  107MOL   O13527907   3.692   1.038   4.386 -0.2383 -0.1075 -0.7737
  107MOL   C13627908   3.886   1.100   4.268  0.1649 -0.0090 -1.0000
  107MOL   C13727909   3.497   0.936   4.045  0.4784 -0.2618 -0.0846
  107MOL   H13827910   3.480   1.031   4.237 -1.6216 -1.7313 -0.3064
  107MOL   H13927911   3.725   1.118   4.089 -1.0430 -1.3656 -1.4956
  107MOL   H14027912   3.913   1.144   4.364  2.9203 -0.5508 -1.5025
  107MOL   H14127913   3.940   1.006   4.260 -0.7108 -0.4983 -1.2847
  107MOL   H14227914   3.899   1.167   4.183  0.6576  0.6397 -0.4223
  107MOL   H14327915   3.412   0.972   3.987  0.1339  0.3040  0.7447
  107MOL   H14427916   3.582   0.913   3.981 -0.9877 -1.4164 -1.6521
  107MOL   C14527917   3.456   0.806   4.131  0.7526 -0.2811  0.5466
  107MOL   N14627918   3.536   0.779   4.248  0.2720 -0.7068  0.2320
  107MOL   C14727919   3.495   0.718   4.357  0.4602 -0.0660  0.6885
  107MOL   O14827920   3.380   0.680   4.373 -0.4189 -0.3288  0.1202
  107MOL   C14927921   3.595   0.709   4.470  0.3230  0.4741  0.5665
  107MOL   C15027922   3.457   0.678   4.036 -0.1348 -0.4194 -0.1121
  107MOL   H15127923   3.355   0.822   4.168  0.5242 -1.4386  0.4448
  107MOL   H15227924   3.634   0.805   4.249 -0.0453  0.9680 -3.1322
  107MOL   H15327925   3.563   0.759   4.562  1.0859  1.0224  0.5415
  107MOL   H15427926   3.602   0.605   4.500  1.6000  0.4342  0.1320
  107MOL   H15527927   3.698   0.741   4.453 -0.0803  1.2086 -0.5662
  107MOL   H15627928   3.552   0.670   3.983  0.5809  0.3229  1.0167
  107MOL   H15727929   3.442   0.590   4.100  0.3942 -0.3950  0.0491
  107MOL   C15827930   3.350   0.676   3.932  0.1100  0.5458  0.9918
  107MOL   N15927931   3.224   0.680   4.006 -0.5131  0.0867  0.1169
  107MOL   C16027932   3.139   0.781   4.016  0.2741  0.0279  0.0697
  107MOL   O16127933   3.158   0.885   3.951  0.9554  0.0741  0.2017
  107MOL   C16227934   3.021   0.777   4.112  0.0626  0.0320  0.4944
  107MOL   C16327935   3.355   0.555   3.838 -0.5647  0.0081  0.2997
  107MOL   H16427936   3.363   0.765   3.869 -0.4015 -0.3522 -0.4229
  107MOL   H16527937   3.200   0.597   4.059  0.8715 -0.5622 -0.2343
  107MOL   H16627938   3.011   0.677   4.156  1.8906 -0.5320 -0.3161
  107MOL   H16727939   3.038   0.850   4.191  2.2853 -0.9983  1.0153
  107MOL   H16827940   2.932   0.797   4.053 -0.8072 -3.1554  0.6095
  107MOL   H16927941   3.448   0.564   3.782 -1.0527  2.0150 -0.2046
  107MOL   H17027942   3.362   0.459   3.891  1.5351 -0.6874 -1.1973
  107MOL   C17127943   3.246   0.522   3.737  0.2097 -0.5786 -0.6122
  107MOL   N17227944   3.285   0.426   3.632 -0.2188  0.0622  0.0386
  107MOL   C17327945   3.239   0.300   3.619  0.6596  0.0592  0.2993
  107MOL   O17427946   3.139   0.267   3.678  0.2803 -0.4843  0.2619
  107MOL   C17527947   3.318   0.193   3.539  0.2335 -0.2506 -0.6469
  107MOL   C17627948   3.195   0.648   3.661  1.0885 -0.1433 -0.0171
  107MOL   H17727949   3.165   0.483   3.799 -1.0861  0.4390 -1.6252
  107MOL   H17827950   3.355   0.449   3.563  0.0793  2.3256  1.0482
  107MOL   H17927951   3.263   0.122   3.479 -1.7874  1.4576 -0.8936
  107MOL   H18027952   3.393   0.246   3.480 -0.4615  0.4665 -0.9011
  107MOL   H18127953   3.374   0.139   3.615  1.0056 -1.8712 -2.3480
  107MOL   H18227954   3.201   0.735   3.726 -1.8636  0.1155 -0.0261
  107MOL   H18327955   3.261   0.664   3.576 -0.6436 -2.4585 -1.8541
  107MOL   C18427956   3.050   0.635   3.616 -0.9448  0.1250 -0.1207
  107MOL   N18527957   3.022   0.764   3.549  0.8428 -0.4948  0.3748
  107MOL   C18627958   2.902   0.815   3.501  0.2832 -0.0997 -0.3006
  107MOL   O18727959   2.806   0.737   3.489  0.2998  0.4354 -0.5313
  107MOL   C18827960   2.904   0.951   3.437  0.3668 -0.2287 -0.1650
  107MOL   C18927961   2.955   0.614   3.744  0.1109 -0.1098 -0.0156
  107MOL   H19027962   3.048   0.558   3.538 -1.2754  0.7803 -0.7643
  107MOL   H19127963   3.098   0.830   3.538  0.2706 -0.1327 -1.8038
  107MOL   H19227964   2.809   1.004   3.439 -0.1998 -1.1388 -1.8287
  107MOL   H19327965   2.991   1.005   3.476 -0.2925 -0.1303  1.1805
  107MOL   H19427966   2.930   0.933   3.332  0.7884  1.5633 -0.3883
  107MOL   H19527967   3.019   0.620   3.832 -0.5513  0.2364  0.4493
  107MOL   H19627968   2.882   0.695   3.744 -0.8140 -0.9312 -0.5485
  107MOL   C19727969   2.862   0.489   3.735  0.2762 -0.0214 -0.4132
  107MOL   N19827970   2.765   0.499   3.629  0.5875  0.4104  0.0477
  107MOL   C19927971   2.690   0.405   3.577 -0.3608  0.1233 -0.7874
  107MOL   O20027972   2.690   0.295   3.629 -0.0726  0.0203 -0.1115
  107MOL   C20127973   2.590   0.450   3.476  0.6054 -0.0797  0.2308
  107MOL   C20227974   2.789   0.456   3.871  0.0010 -0.7912 -0.3759
  107MOL   H20327975   2.919   0.399   3.716 -0.1775 -0.0610 -1.6309
  107MOL   H20427976   2.767   0.589   3.584  1.5991 -0.8399 -2.5521
  107MOL   H20527977   2.599   0.557   3.460  0.9506  0.1204  1.7439
  107MOL   H20627978   2.598   0.398   3.380 -0.5867 -1.2046  0.7235
  107MOL   H20727979   2.493   0.410   3.506  0.9568 -0.6989  0.5477
  107MOL   H20827980   2.724   0.543   3.878 -0.2036 -0.8940 -0.9189
  107MOL   H20927981   2.739   0.362   3.848 -0.5481 -0.2888 -1.2902
  107MOL   C21027982   2.884   0.455   3.991  0.4653 -0.5237  0.0816
  107MOL   N21127983   2.988   0.362   3.963 -0.1936  0.6344  0.7135
  107MOL   C21227984   3.101   0.345   4.026 -0.5950 -0.2463 -0.2108
  107MOL   O21327985   3.130   0.426   4.116 -0.0573  0.1993  0.1371
  107MOL   C21427986   3.199   0.234   3.987  0.1173  0.0820  0.1361
  107MOL   C21527987   2.814   0.421   4.130  0.0694 -0.5970  0.1561
  107MOL   H21627988   2.944   0.546   3.997  0.5257 -0.6021  0.7579
  107MOL   H21727989   2.982   0.304   3.880 -0.1400  1.8591 -0.1629
  107MOL   H21827990   3.252   0.197   4.075  1.3166 -2.8094 -1.7097
  107MOL   H21927991   3.137   0.155   3.944 -0.4414  1.3809 -1.4956
  107MOL   H22027992   3.283   0.267   3.925  1.7110 -0.1793  2.1111
  107MOL   H22127993   2.786   0.317   4.113  1.6069 -1.0790  0.4230
  107MOL   H22227994   2.895   0.432   4.202 -0.6368  1.7625  0.6268
  107MOL   C22327995   2.694   0.515   4.170 -0.0247 -0.7100  0.6292
  107MOL   N22427996   2.735   0.647   4.220 -0.0235 -0.2482 -1.0307
  107MOL   C22527997   2.679   0.763   4.205  0.7022  0.5969 -0.3439
  107MOL   O22627998   2.582   0.781   4.136  0.1703  1.0912 -0.0889
  107MOL   C22727999   2.749   0.883   4.262 -0.2811 -0.2088 -0.2296
  107MOL   C22828000   2.606   0.439   4.271 -0.4031 -0.3067  0.0236
  107MOL   H22928001   2.629   0.523   4.083 -2.1708  2.6825  2.4129
  107MOL   H23028002   2.817   0.641   4.279  1.0133  0.4835 -2.3662
  107MOL   H23128003   2.683   0.915   4.343 -0.2973 -1.6446  0.3252
  107MOL   H23228004   2.845   0.870   4.311  0.3029 -0.4362 -1.4258
  107MOL   H23328005   2.751   0.958   4.183  1.1111  0.3484  0.3116
  107MOL   H23428006   2.653   0.429   4.369 -2.2003 -0.8535  0.8421
  107MOL   H23528007   2.523   0.507   4.291 -0.5439 -0.3642 -0.3613
  107MOL   C23628008   2.528   0.309   4.239  0.3034  0.4442  0.1091
  107MOL   N23728009   2.476   0.329   4.104 -0.0020  0.7548 -0.2803
  107MOL   C23828010   2.509   0.268   3.989  0.0861  0.5792 -0.8562
  107MOL   O23928011   2.602   0.185   3.973 -0.4369  0.1645 -0.2763
  107MOL   C24028012   2.438   0.316   3.868  0.4341 -0.2604 -0.1416
  107MOL   C24128013   2.421   0.282   4.349 -0.2949 -0.2743 -0.3801
  107MOL   H24228014   2.602   0.229   4.232 -0.8046 -0.6598  0.8236
  107MOL   H24328015   2.393   0.387   4.096  0.7960  1.8771 -0.4938
  107MOL   H24428016   2.331   0.324   3.888  0.6648 -0.0136  1.0115
  107MOL   H24528017   2.470   0.419   3.854 -0.8854  0.3816  1.4883
  107MOL   H24628018   2.470   0.256   3.782  0.4648  1.4890 -1.3760
  107MOL   H24728019   2.476   0.253   4.438  0.7318  1.8359 -0.2805
  107MOL   H24828020   2.375   0.376   4.381 -0.2228 -0.6795  0.9525
  107MOL   C24928021   2.298   0.191   4.321 -0.2198 -0.0603 -0.0468
  107MOL   N25028022   2.176   0.218   4.411  0.2262  0.4374  0.4312
  107MOL   C25128023   2.090   0.319   4.396  0.5539  0.1597  0.1413
  107MOL   O25228024   2.089   0.402   4.312 -0.0115 -0.4798 -0.1534
  107MOL   C25328025   1.985   0.350   4.509 -0.3232  0.0083 -0.3394
  107MOL   C25428026   2.333   0.042   4.330 -0.5523  0.2988  0.7397
  107MOL   H25528027   2.263   0.218   4.221  1.5796 -1.0682 -0.9589
  107MOL   H25628028   2.147   0.152   4.482  1.3664 -0.1535  0.3633
  107MOL   H25728029   1.888   0.303   4.488 -0.2851  0.5897 -1.8674
  107MOL   H25828030   2.030   0.305   4.597  3.3014  0.9398 -1.6281
  107MOL   H25928031   1.980   0.457   4.529  0.3033 -0.2115  1.0109
  107MOL   H26028032   2.259   7.819   4.281  0.0747  0.0687  0.0725
  107MOL   H26128033   2.428   0.014   4.284 -1.9195  0.1245 -2.0946
  107MOL   H26228034   2.334   0.019   4.436 -3.0032  1.1936  0.9998
  108MOL     C128035   7.825   2.113   0.302 -0.1479 -0.2706 -0.4231
  108MOL     N228036   7.802   2.219   0.199 -0.8226 -0.2296  0.0630
  108MOL     C328037   0.044   2.250   0.100 -0.0619 -0.7168 -0.4074
  108MOL     O428038   0.159   2.212   0.079  0.0753 -0.2308  0.0653
  108MOL     C528039   7.821   2.339   7.827 -0.0274 -0.7010 -0.5051
  108MOL     C628040   7.816   2.166   0.446 -1.0500 -0.1101 -0.3088
  108MOL     H728041   7.761   2.026   0.284 -0.7253  0.3854 -1.5662
  108MOL     H828042   7.712   2.265   0.201 -0.6828 -0.0003  1.9016
  108MOL     H928043   7.766   2.424   0.030  0.7177  0.1335 -1.1764
  108MOL    H1028044   0.055   2.385   7.762 -1.0486 -1.2869 -2.1091
  108MOL    H1128045   7.737   2.297   7.772 -1.8562  0.8315  1.0311
  108MOL    H1228046   7.754   2.255   0.457  0.6802  1.1719 -0.6509
  108MOL    H1328047   7.762   2.093   0.506 -0.7278 -1.5798 -1.7717
  108MOL    H1428048   0.080   2.060   0.288 -2.6046 -4.2783 -3.1011
  108MOL    C1528049   0.117   2.189   0.516 -0.1551 -0.6656  0.0068
  108MOL    N1628050   0.096   2.160   0.658  0.3879  0.5732 -0.2752
  108MOL    C1728051   0.192   2.120   0.738  0.2883 -0.5265  0.7716
  108MOL    O1828052   0.311   2.106   0.706  0.3062  0.1133 -0.1116
  108MOL    C1928053   0.146   2.077   0.876 -0.0637  0.1345  0.2921
  108MOL    C2028054   0.183   2.335   0.513 -0.0492  0.0662 -0.9300
  108MOL    H2128055   0.183   2.114   0.473  0.3266 -0.3458  0.1857
  108MOL    H2228056   0.003   2.165   0.698  0.6252  2.0268  0.1064
  108MOL    H2328057   0.062   2.008   0.864  0.9238 -1.1120  0.3203
  108MOL    H2428058   0.221   2.025   0.936 -0.0253 -1.0635 -0.7529
  108MOL    H2528059   0.115   2.170   0.923  0.1236  0.7701 -0.8332
  108MOL    H2628060   0.103   2.400   0.549  0.5478 -0.3469  1.2097
  108MOL    H2728061   0.253   2.345   0.596  0.7739  0.0269 -1.6112
  108MOL    C2828062   0.241   2.381   0.381 -0.5732 -0.0607 -0.3101
  108MOL    N2928063   0.336   2.288   0.315  0.1908  0.2612  0.3128
  108MOL    C3028064   0.444   2.236   0.369 -0.5662 -0.2120  0.0234
  108MOL    O3128065   0.499   2.281   0.470 -0.1540  0.2831  0.3963
  108MOL    C3228066   0.507   2.112   0.303  0.1205  0.1992  0.5752
  108MOL    C3328067   0.290   2.522   0.366  1.1996 -0.2689 -0.1553
  108MOL    H3428068   0.151   2.376   0.319  0.4340 -1.6751 -1.7163
  108MOL    H3528069   0.303   2.237   0.235  0.3482  1.7959 -0.7557
  108MOL    H3628070   0.464   2.110   0.203  0.6714  0.4502  0.3321
  108MOL    H3728071   0.614   2.131   0.291 -0.1830  0.1233 -2.6078
  108MOL    H3828072   0.478   2.020   0.354  2.2182  0.4230  2.2817
  108MOL    H3928073   0.348   2.558   0.451  1.0710  1.2568 -0.7104
  108MOL    H4028074   0.363   2.529   0.286  1.9972  1.1494  0.6783
  108MOL    C4128075   0.187   2.634   0.320 -0.1489  0.2614 -0.2721
  108MOL    N4228076   0.254   2.742   0.240 -0.7092  0.4258  0.9617
  108MOL    C4328077   0.354   2.825   0.268 -0.7290 -0.0895  0.2937
  108MOL    O4428078   0.404   2.839   0.383 -0.1285  0.0074  0.1144
  108MOL    C4528079   0.415   2.908   0.155 -0.5609 -0.4559 -0.4135
  108MOL    C4628080   0.111   2.701   0.440  0.0038  0.3223 -0.0158
  108MOL    H4728081   0.111   2.599   0.251  1.1176  1.1779 -2.1765
  108MOL    H4828082   0.216   2.746   0.146  0.2643  0.6087  0.5615
  108MOL    H4928083   0.448   3.001   0.202 -2.1742 -0.3980  0.6558
  108MOL    H5028084   0.510   2.874   0.115  0.3203  0.3847  0.9302
  108MOL    H5128085   0.354   2.944   0.072 -0.2306  1.4677  0.1403
  108MOL    H5228086   0.093   2.637   0.527  1.3040 -1.8840 -1.3331
  108MOL    H5328087   0.178   2.777   0.481  0.1079  0.8064 -1.0681
  108MOL    C5428088   7.818   2.770   0.403  0.2240  0.1835  0.5649
  108MOL    N5528089   7.792   2.872   0.509  0.8599  0.1832  0.9273
  108MOL    C5628090   7.688   2.962   0.516  0.4935 -0.1145  0.0590
  108MOL    O5728091   7.616   2.990   0.419  0.0444  0.4897  0.3886
  108MOL    C5828092   7.672   3.024   0.655  0.6849 -1.1446  0.4223
  108MOL    C5928093   7.699   2.670   0.379 -0.2289  0.0788 -0.2743
  108MOL    H6028094   7.831   2.828   0.311 -0.3599  0.5704  0.7246
  108MOL    H6128095   0.010   2.859   0.590 -0.4920  1.4991  2.1481
  108MOL    H6228096   7.762   3.080   0.680 -0.0700  0.6734 -0.8319
  108MOL    H6328097   7.581   3.081   0.675 -0.2323 -3.0984  1.9284
  108MOL    H6428098   7.668   2.937   0.720 -0.8340 -2.1260 -0.9369
  108MOL    H6528099   7.605   2.724   0.369  1.3650  3.0694  0.5168
  108MOL    H6628100   7.699   2.632   0.276  1.3929  1.2679 -0.7217
  108MOL    C6728101   7.678   2.547   0.476  0.5517  0.4996 -0.3068
  108MOL    N6828102   7.551   2.479   0.439 -0.2772  0.2241  0.2822
  108MOL    C6928103   7.514   2.404   0.335 -0.5465 -0.4379  0.6116
  108MOL    O7028104   7.585   2.397   0.236 -0.0825  0.5399  0.7684
  108MOL    C7128105   7.384   2.327   0.329  0.0751 -0.7700 -0.6148
  108MOL    C7228106   7.671   2.585   0.630  0.3833 -0.1984 -0.0823
  108MOL    H7328107   7.763   2.482   0.455 -1.2440 -1.7711 -0.7524
  108MOL    H7428108   7.475   2.493   0.505 -0.8336  0.9329 -0.4908
  108MOL    H7528109   7.360   2.295   0.431  0.2633  1.6622  0.2239
  108MOL    H7628110   7.314   2.388   0.271  2.2393  0.6685 -1.7878
  108MOL    H7728111   7.393   2.223   0.300  1.2093 -1.2595  1.3752
  108MOL    H7828112   7.751   2.656   0.649 -0.5760  1.0260 -0.5584
  108MOL    H7928113   7.582   2.642   0.659  0.7916 -0.1623  1.1148
  108MOL    C8028114   7.685   2.470   0.733  0.6657  0.2020  0.7586
  108MOL    N8128115   7.573   2.373   0.703  0.0714  0.4611 -0.0310
  108MOL    C8228116   7.578   2.242   0.720 -0.5575  0.3471  0.3891
  108MOL    O8328117   7.676   2.187   0.759  0.3927  0.5423 -0.6226
  108MOL    C8428118   7.450   2.155   0.697 -0.3560 -0.4356 -0.5083
  108MOL    C8528119   7.682   2.512   0.880  0.1344  0.2818 -0.2694
  108MOL    H8628120   7.775   2.414   0.710  0.2853  0.3674 -1.2233
  108MOL    H8728121   7.487   2.411   0.665  0.4131  0.1461 -1.1340
  108MOL    H8828122   7.471   2.067   0.637 -2.5264 -0.6754 -0.9586
  108MOL    H8928123   7.420   2.121   0.796  1.2966 -1.6629 -0.4139
  108MOL    H9028124   7.373   2.206   0.639  0.8418  2.1993  0.1374
  108MOL    H9128125   7.581   2.541   0.909 -0.0643 -1.1274  0.4758
  108MOL    H9228126   7.700   2.419   0.934 -1.1678  0.4327  0.4369
  108MOL    C9328127   7.781   2.624   0.921  0.1981  0.2473 -0.2364
  108MOL    N9428128   0.087   2.603   0.896 -0.1984 -0.1592 -0.3814
  108MOL    C9528129   0.165   2.679   0.817  0.1580 -0.9280 -0.2841
  108MOL    O9628130   0.120   2.774   0.743 -0.1727 -0.3308  0.0179
  108MOL    C9728131   0.314   2.654   0.820  0.7529 -0.3534 -0.2557
  108MOL    C9828132   7.757   2.664   1.066  0.0034 -0.2829 -0.4977
  108MOL    H9928133   7.744   2.708   0.863 -0.4505 -0.6577 -1.1540
  108MOL   H10028134   0.134   2.533   0.952  0.4224 -0.8803 -1.7781
  108MOL   H10128135   0.338   2.565   0.762  0.3435 -0.5463 -0.1314
  108MOL   H10228136   0.373   2.741   0.790 -1.2860  2.1963  2.7853
  108MOL   H10328137   0.352   2.623   0.917 -0.2605 -0.4375  0.1178
  108MOL   H10428138   7.653   2.684   1.091  0.6587  1.7585  0.6816
  108MOL   H10528139   7.774   2.576   1.127  0.0709  1.3936  1.9490
  108MOL   C10628140   0.005   2.773   1.128  0.4724  0.4882  0.5899
  108MOL   N10728141   7.816   2.765   1.269 -0.3613 -0.1425 -0.4001
  108MOL   C10828142   0.061   2.732   1.364 -0.4170  0.5226 -0.3882
  108MOL   O10928143   0.187   2.729   1.348  0.5896  0.5322 -0.3109
  108MOL   C11028144   0.005   2.686   1.501  0.2089  0.3502 -0.1016
  108MOL   C11128145   7.797   2.906   1.060  0.0095  0.4172 -0.0132
  108MOL   H11228146   0.107   2.751   1.097 -0.1399 -2.5966  0.6213
  108MOL   H11328147   7.721   2.750   1.300  0.6694  0.8980  3.4493
  108MOL   H11428148   7.781   2.757   1.554  1.4109  0.3099  1.4209
  108MOL   H11528149   7.771   2.607   1.486  1.4099 -0.8626  0.2449
  108MOL   H11628150   0.087   2.638   1.555 -0.2009 -0.2523 -0.0144
  108MOL   H11728151   7.799   2.903   0.951  1.8219  1.5852 -0.0372
  108MOL   H11828152   7.692   2.921   1.083 -0.0409  0.3070 -0.1790
  108MOL   C11928153   0.055   3.035   1.084 -0.4109 -0.2223  0.2620
  108MOL   N12028154   7.826   3.154   1.041  0.0826  0.0680  0.1908
  108MOL   C12128155   7.752   3.243   1.108  0.1968  0.1937  0.0762
  108MOL   O12228156   7.731   3.245   1.231 -0.2897  0.1969 -0.0991
  108MOL   C12328157   7.686   3.357   1.034  0.0161 -0.4719 -0.2308
  108MOL   C12428158   0.185   3.021   1.007  0.6913  0.3279 -0.1661
  108MOL   H12528159   0.075   3.033   1.191 -0.5826 -0.4075  0.2916
  108MOL   H12628160   7.820   3.161   0.940 -1.5800 -0.9995  0.1981
  108MOL   H12728161   7.677   3.355   0.926  2.2899 -2.2710 -0.4482
  108MOL   H12828162   7.586   3.370   1.074  0.4333 -0.9509  1.0100
  108MOL   H12928163   7.736   3.454   1.038 -1.0385  0.1332 -1.4976
  108MOL   H13028164   0.239   2.935   1.045 -2.1015 -0.9979  0.9203
  108MOL   H13128165   0.163   2.990   0.904  0.9254 -2.2280  0.5289
  108MOL   C13228166   0.285   3.133   0.994 -0.1016 -0.1880  0.0684
  108MOL   N13328167   0.365   3.112   0.872  0.1105  0.6784 -0.2511
  108MOL   C13428168   0.464   3.191   0.828 -0.2311  0.6322  0.5253
  108MOL   O13528169   0.490   3.298   0.876 -0.3619  0.3097  0.2948
  108MOL   C13628170   0.541   3.139   0.706 -0.0550  0.0715 -0.2101
  108MOL   C13728171   0.380   3.148   1.117  0.1551 -0.0014 -0.0846
  108MOL   H13828172   0.225   3.222   0.974 -0.8332 -1.0079 -1.4253
  108MOL   H13928173   0.336   3.029   0.822 -0.0860  0.1130  0.8040
  108MOL   H14028174   0.633   3.196   0.687 -2.3408  4.3141  0.7641
  108MOL   H14128175   0.573   3.037   0.727 -1.2262 -0.5013 -1.1300
  108MOL   H14228176   0.474   3.140   0.619  0.1737 -0.2166 -0.3927
  108MOL   H14328177   0.350   3.070   1.187 -3.2458  0.8767 -0.4815
  108MOL   H14428178   0.479   3.118   1.082  0.6489  0.9229  0.5160
  108MOL   C14528179   0.373   3.288   1.191 -0.5212  0.5822 -0.5903
  108MOL   N14628180   0.496   3.310   1.255 -0.2242 -0.2613  0.6143
  108MOL   C14728181   0.577   3.419   1.229 -0.2603 -0.8741 -0.3512
  108MOL   O14828182   0.541   3.504   1.148  0.2832  0.9630  0.3006
  108MOL   C14928183   0.699   3.451   1.311 -0.1139  0.5905 -0.3188
  108MOL   C15028184   0.254   3.298   1.294  0.0869 -0.7020  0.7858
  108MOL   H15128185   0.354   3.369   1.120  0.0969  1.5359  0.3121
  108MOL   H15228186   0.524   3.230   1.310 -0.3094 -0.6247  0.1325
  108MOL   H15328187   0.789   3.410   1.264 -0.6171 -1.0460  0.1228
  108MOL   H15428188   0.729   3.556   1.314 -0.1391  0.6443 -1.7136
  108MOL   H15528189   0.683   3.419   1.414 -4.4403  1.1616 -0.7141
  108MOL   H15628190   0.164   3.289   1.232  0.1503  1.8474  0.2299
  108MOL   H15728191   0.264   3.224   1.373  1.1182 -2.2394 -0.7647
  108MOL   C15828192   0.228   3.439   1.367  0.2698 -0.1156  0.5869
  108MOL   N15928193   0.250   3.542   1.266 -0.1391  0.0298 -0.7350
  108MOL   C16028194   0.158   3.639   1.242 -1.1996 -0.0408  0.0975
  108MOL   O16128195   0.047   3.637   1.283  0.1612  0.3231  0.2568
  108MOL   C16228196   0.205   3.743   1.138  0.4284 -0.3020  0.3782
  108MOL   C16328197   0.311   3.472   1.498  0.5459  0.4150  0.5483
  108MOL   H16428198   0.122   3.445   1.390  0.4856  1.0315  1.3360
  108MOL   H16528199   0.341   3.550   1.222 -0.3862 -0.2912 -1.3004
  108MOL   H16628200   0.303   3.718   1.098  0.7408  0.3143  0.7584
  108MOL   H16728201   0.132   3.746   1.057 -0.4897 -0.8285  1.1762
  108MOL   H16828202   0.204   3.839   1.190  0.9786  0.7617 -1.5533
  108MOL   H16928203   0.311   3.383   1.562 -3.1615 -0.8385 -1.0416
  108MOL   H17028204   0.415   3.486   1.472  0.2444 -0.0979 -0.9944
  108MOL   C17128205   0.269   3.575   1.603  0.1745 -0.2737  0.2658
  108MOL   N17228206   0.367   3.588   1.711  0.8941 -0.8680 -0.0016
  108MOL   C17328207   0.447   3.700   1.730  0.2928  0.3120  1.2783
  108MOL   O17428208   0.444   3.799   1.658  0.4243  0.0055  0.3307
  108MOL   C17528209   0.548   3.698   1.843 -0.1738 -0.1549 -0.6034
  108MOL   C17628210   0.127   3.556   1.654 -0.1609  0.2654 -0.5099
  108MOL   H17728211   0.262   3.661   1.536  0.6238 -0.1684  0.3558
  108MOL   H17828212   0.364   3.508   1.772 -0.8463 -1.6323 -1.0289
  108MOL   H17928213   0.492   3.671   1.932 -0.0003  0.3723 -0.3324
  108MOL   H18028214   0.623   3.624   1.813 -0.3134  0.0986 -1.5837
  108MOL   H18128215   0.602   3.791   1.864 -1.7286  0.6353 -0.0480
  108MOL   H18228216   0.075   3.536   1.560 -1.5666 -0.7984  0.4815
  108MOL   H18328217   0.117   3.458   1.700 -3.8273  0.3274 -1.0098
  108MOL   C18428218   0.069   3.668   1.747  0.5239 -0.0220  0.0765
  108MOL   N18528219   7.779   3.630   1.800 -0.1457 -0.0940  0.6412
  108MOL   C18628220   7.735   3.603   1.928 -0.1635  0.1507 -0.1113
  108MOL   O18728221   7.801   3.603   2.029  0.2421 -0.0822 -0.3427
  108MOL   C18828222   7.586   3.557   1.935 -0.1826  0.1446 -0.3270
  108MOL   C18928223   0.057   3.807   1.687  0.3769 -0.0195  1.6854
  108MOL   H19028224   0.138   3.687   1.829 -0.7918  2.9589  0.5513
  108MOL   H19128225   7.700   3.635   1.738 -1.5077 -1.3208  2.2244
  108MOL   H19228226   7.596   3.451   1.912  1.2398 -0.0448  1.0196
  108MOL   H19328227   7.528   3.565   2.027  2.0631  1.3246  1.0581
  108MOL   H19428228   7.523   3.597   1.856 -0.5101 -1.6986 -1.0153
  108MOL   H19528229   0.042   3.878   1.769  0.1855  1.3591  0.4730
  108MOL   H19628230   0.156   3.838   1.654 -0.2076  2.5285  2.1724
  108MOL   C19728231   7.790   3.837   1.585 -0.0270  0.1903 -0.1745
  108MOL   N19828232   7.750   3.732   1.494 -0.3135 -0.6372 -0.0033
  108MOL   C19928233   7.638   3.658   1.508 -0.2540  0.6378 -0.1730
  108MOL   O20028234   7.567   3.677   1.604 -0.1889 -0.4816 -0.5182
  108MOL   C20128235   7.618   3.545   1.411 -0.3889 -0.0419 -0.0378
  108MOL   C20228236   7.826   3.955   1.498  0.6667 -0.3166 -0.1988
  108MOL   H20328237   7.703   3.872   1.640  0.3610 -0.0262  0.5797
  108MOL   H20428238   7.805   3.719   1.409 -2.0125  0.7165 -1.3392
  108MOL   H20528239   7.572   3.584   1.320  0.9977 -0.0850 -0.7705
  108MOL   H20628240   7.708   3.493   1.380  0.5731  1.6068 -0.1031
  108MOL   H20728241   7.535   3.483   1.444  0.5209  0.3030  3.0473
  108MOL   H20828242   7.828   4.038   1.569 -2.0656 -0.9601  0.6953
  108MOL   H20928243   0.086   3.941   1.456  0.2188  0.0772 -1.4142
  108MOL   C21028244   7.734   4.010   1.391  0.1342 -0.5179  0.7712
  108MOL   N21128245   7.803   4.115   1.325 -0.4573 -0.1130 -0.2088
  108MOL   C21228246   7.831   4.120   1.193 -0.1914  0.7177 -0.2140
  108MOL   O21328247   7.775   4.047   1.111 -0.0767 -0.4107  0.5673
  108MOL   C21428248   0.091   4.222   1.143  0.1102  0.0971 -0.3639
  108MOL   C21528249   7.597   4.054   1.450  0.0331  0.2289  0.5167
  108MOL   H21628250   7.717   3.934   1.314 -0.5382  1.2672 -0.8981
  108MOL   H21728251   0.030   4.168   1.379 -0.3906  0.5702 -0.9661
  108MOL   H21828252   0.192   4.202   1.178  0.3115 -0.5823 -1.3223
  108MOL   H21928253   0.099   4.255   1.039 -1.2894 -0.3112 -0.6206
  108MOL   H22028254   0.056   4.305   1.205  0.9892 -0.7966  1.3796
  108MOL   H22128255   7.562   3.959   1.489  0.1768  0.1276  0.4036
  108MOL   H22228256   7.614   4.105   1.544 -0.8467 -0.4089  1.0282
  108MOL   C22328257   7.491   4.109   1.349 -0.3319  0.9319  0.6950
  108MOL   N22428258   7.524   4.244   1.307  0.0408 -0.3481 -0.5372
  108MOL   C22528259   7.543   4.350   1.384 -0.1064  0.1929  0.9999
  108MOL   O22628260   7.522   4.349   1.510 -0.1331 -0.4278 -0.3916
  108MOL   C22728261   7.587   4.475   1.313 -0.6662 -0.5730 -0.0710
  108MOL   C22828262   7.352   4.102   1.423  0.3310 -0.5425  0.3320
  108MOL   H22928263   7.507   4.030   1.275 -0.0333  1.0658  0.6156
  108MOL   H23028264   7.531   4.265   1.209  1.0857 -0.8189 -0.5626
  108MOL   H23128265   7.585   4.454   1.207 -1.3283  1.0665 -0.4046
  108MOL   H23228266   7.526   4.565   1.324  2.4054  1.7030 -0.8448
  108MOL   H23328267   7.688   4.499   1.344  0.0532 -0.7214 -2.2307
  108MOL   H23428268   7.353   4.004   1.470  0.4967 -0.9326 -0.4902
  108MOL   H23528269   7.352   4.172   1.507  1.3730  1.6523 -1.4492
  108MOL   C23628270   7.219   4.120   1.347 -0.4230 -0.6225  0.4971
  108MOL   N23728271   7.112   4.084   1.433  0.4817 -0.5299  0.1690
  108MOL   C23828272   7.023   4.165   1.489 -0.3739 -0.1156  0.3726
  108MOL   O23928273   7.002   4.278   1.452  0.2246 -0.0630 -0.4674
  108MOL   C24028274   6.941   4.102   1.601  0.3134 -0.3828 -0.0026
  108MOL   C24128275   7.202   4.033   1.213 -0.0897 -0.0509 -0.3160
  108MOL   H24228276   7.204   4.224   1.320  0.7212 -0.2290  1.3580
  108MOL   H24328277   7.120   3.988   1.464  2.7702 -0.3974  0.0335
  108MOL   H24428278   7.008   4.054   1.672 -0.7803 -0.5804  0.9241
  108MOL   H24528279   6.875   4.174   1.650 -0.1207  0.8933 -2.3965
  108MOL   H24628280   6.868   4.032   1.560  0.5340  1.0689 -2.9759
  108MOL   H24728281   7.236   3.930   1.217  0.5887  0.2150  0.8315
  108MOL   H24828282   7.095   4.019   1.195 -0.0592 -0.5005 -0.1469
  108MOL   C24928283   7.259   4.098   1.087  0.0115  0.1526 -0.1164
  108MOL   N25028284   7.200   4.226   1.070  0.7448 -0.0603 -0.0516
  108MOL   C25128285   7.273   4.331   1.027  0.1968  0.2243 -0.1366
  108MOL   O25228286   7.394   4.329   1.006 -0.3636  0.2238  0.1928
  108MOL   C25328287   7.201   4.459   0.995  0.1255 -0.7859 -0.1288
  108MOL   C25428288   7.222   4.012   0.969 -0.1688  0.2576 -0.0414
  108MOL   H25528289   7.367   4.110   1.102 -0.2080  1.2316  0.5897
  108MOL   H25628290   7.100   4.232   1.059  0.5708 -1.0598  0.8742
  108MOL   H25728291   7.238   4.531   0.923 -0.1777 -0.2503  0.2509
  108MOL   H25828292   7.096   4.437   0.975  0.0961  1.3757 -2.5781
  108MOL   H25928293   7.211   4.515   1.088  2.8576 -1.1916 -0.1399
  108MOL   H26028294   7.281   3.921   0.975  1.1966  1.1992  1.3427
  108MOL   H26128295   7.117   3.991   0.949  0.0842 -2.0731  0.9985
  108MOL   H26228296   7.268   4.065   0.885 -0.2606  1.1328  0.4456
  109MOL     C128297   4.520   2.950   5.594 -0.6170 -0.1712 -0.5456
  109MOL     N228298   4.452   2.833   5.637 -0.1840 -0.4295  0.2855
  109MOL     C328299   4.377   2.764   5.549  0.2336  0.1083 -0.1174
  109MOL     O428300   4.373   2.789   5.426  0.6396 -0.8161 -0.5544
  109MOL     C528301   4.294   2.646   5.605  0.0407 -0.4518  1.1381
  109MOL     C628302   4.612   3.021   5.705 -0.6857  0.0784 -0.0874
  109MOL     H728303   4.598   2.919   5.524 -0.0945  0.2439 -0.1573
  109MOL     H828304   4.467   2.807   5.733  2.5433 -0.0327 -0.0021
  109MOL     H928305   4.312   2.636   5.712 -1.8630  0.2994  1.5570
  109MOL    H1028306   4.187   2.667   5.598 -0.0287 -1.4445 -0.9382
  109MOL    H1128307   4.314   2.549   5.560  1.2362 -0.3276  1.3730
  109MOL    H1228308   4.545   3.061   5.781  0.3456  2.0441 -0.1719
  109MOL    H1328309   4.680   2.944   5.740  2.3447  1.9732 -1.6077
  109MOL    H1428310   4.454   3.019   5.542 -0.0361  0.9219  0.1202
  109MOL    C1528311   4.706   3.132   5.655  0.0731  0.2753 -0.1547
  109MOL    N1628312   4.785   3.073   5.546 -0.1958 -0.0960 -0.1220
  109MOL    C1728313   4.789   3.105   5.419 -0.4422 -0.1761 -0.2499
  109MOL    O1828314   4.724   3.197   5.367 -0.4777 -0.4586 -0.7288
  109MOL    C1928315   4.856   3.011   5.328  0.0578  0.3658 -0.0605
  109MOL    C2028316   4.807   3.180   5.758  0.7458  0.6883 -1.0250
  109MOL    H2128317   4.641   3.220   5.644  0.1536  0.4400  0.6041
  109MOL    H2228318   4.836   2.990   5.575 -1.6058 -0.2232  2.0992
  109MOL    H2328319   4.794   2.922   5.330  1.4347 -0.6213 -0.3378
  109MOL    H2428320   4.855   3.047   5.225 -1.0480 -2.3409 -1.0552
  109MOL    H2528321   4.957   2.990   5.364 -0.5645 -1.8722  0.4355
  109MOL    H2628322   4.852   3.096   5.811 -1.3066  0.6825  0.8009
  109MOL    H2728323   4.886   3.225   5.699  0.8358  1.2091 -0.5132
  109MOL    C2828324   4.762   3.294   5.858 -0.2806  0.3247 -0.7200
  109MOL    N2928325   4.877   3.370   5.910  0.1077 -0.2250 -0.7353
  109MOL    C3028326   4.961   3.452   5.847  0.1591  0.0958  0.0360
  109MOL    O3128327   4.969   3.453   5.723 -0.2355  0.0236 -0.1886
  109MOL    C3228328   5.050   3.541   5.930  0.2295 -0.6337 -0.2553
  109MOL    C3328329   4.679   3.251   5.975 -0.0808  0.4305 -0.0784
  109MOL    H3428330   4.701   3.362   5.798 -0.2827  1.4589  0.5187
  109MOL    H3528331   4.871   3.370   6.011  3.3677 -0.7519 -0.4718
  109MOL    H3628332   5.133   3.488   5.977  0.5552 -0.4379 -0.6088
  109MOL    H3728333   5.092   3.623   5.871  0.5564  1.3076  2.5747
  109MOL    H3828334   4.994   3.580   6.015  0.7263 -3.1339  1.2686
  109MOL    H3928335   4.650   3.348   6.016 -1.0414 -0.0647  0.4419
  109MOL    H4028336   4.586   3.210   5.935 -0.1477  1.2658 -0.8005
  109MOL    C4128337   4.747   3.163   6.088  0.3309 -0.1431  0.1420
  109MOL    N4228338   4.749   3.027   6.039  0.3045  0.0537  0.2405
  109MOL    C4328339   4.826   2.935   6.084  0.6914  0.3244  0.2000
  109MOL    O4428340   4.897   2.943   6.183 -0.6234 -0.3763  0.9304
  109MOL    C4528341   4.818   2.806   6.010  0.5392 -0.0690 -0.4979
  109MOL    C4628342   4.660   3.158   6.212 -0.3259  0.4926 -0.0137
  109MOL    H4728343   4.841   3.203   6.125  1.2949 -0.2264 -2.1268
  109MOL    H4828344   4.675   2.999   5.977 -0.1935 -0.4139  1.0369
  109MOL    H4928345   4.793   2.728   6.082 -1.1561 -1.6820 -2.7292
  109MOL    H5028346   4.750   2.807   5.924 -0.1494  1.5718  0.0489
  109MOL    H5128347   4.915   2.788   5.965  0.5513 -3.0673  0.6104
  109MOL    H5228348   4.556   3.132   6.188  0.3667 -0.3627 -2.2369
  109MOL    H5328349   4.694   3.084   6.284  0.4712  1.4644  0.6163
  109MOL    C5428350   4.672   3.293   6.285  0.2383 -0.5254  0.2073
  109MOL    N5528351   4.805   3.327   6.330 -0.1618  0.1065 -0.4125
  109MOL    C5628352   4.894   3.413   6.279 -0.8649  0.3681  0.3249
  109MOL    O5728353   4.867   3.480   6.181  0.1167  0.9429  0.4217
  109MOL    C5828354   5.034   3.415   6.350 -0.0398  0.1460  0.0756
  109MOL    C5928355   4.581   3.309   6.403  0.5478  0.0401 -0.2047
  109MOL    H6028356   4.633   3.368   6.216 -0.6790  1.0077  2.3247
  109MOL    H6128357   4.853   3.262   6.392 -1.3416 -0.3794  0.0171
  109MOL    H6228358   5.094   3.328   6.323 -0.8711  0.0395 -1.5003
  109MOL    H6328359   5.091   3.501   6.316 -0.2312  0.3447  0.2569
  109MOL    H6428360   5.019   3.410   6.457 -1.4743 -0.2816 -0.1241
  109MOL    H6528361   4.573   3.215   6.458 -2.1718  0.3333 -0.0188
  109MOL    H6628362   4.628   3.389   6.460  1.1397  1.0884 -2.1614
  109MOL    C6728363   4.431   3.357   6.361 -0.3736  0.7367 -0.4081
  109MOL    N6828364   4.387   3.449   6.465  0.4029  1.0253 -0.0441
  109MOL    C6928365   4.292   3.547   6.453 -0.9964 -0.1042 -0.1586
  109MOL    O7028366   4.240   3.574   6.342  0.3088  0.4109 -0.1838
  109MOL    C7128367   4.260   3.618   6.587 -0.0664 -0.8986  0.4210
  109MOL    C7228368   4.340   3.231   6.364 -0.3911 -0.2904  0.7917
  109MOL    H7328369   4.432   3.399   6.261 -3.7608  0.5148 -0.5821
  109MOL    H7428370   4.407   3.423   6.560  1.0227 -1.0447 -0.6979
  109MOL    H7528371   4.174   3.684   6.597  0.4587 -0.2476  0.6426
  109MOL    H7628372   4.267   3.548   6.670 -0.1816 -1.1884  0.1882
  109MOL    H7728373   4.338   3.691   6.607 -0.0195 -1.4291  2.2344
  109MOL    H7828374   4.393   3.144   6.326 -1.6065 -1.1867  1.1213
  109MOL    H7928375   4.327   3.196   6.466 -0.1788 -0.8461  0.6311
  109MOL    C8028376   4.202   3.244   6.294 -0.4568 -0.0375  0.0802
  109MOL    N8128377   4.120   3.127   6.323  0.2275 -0.0177 -0.9839
  109MOL    C8228378   4.001   3.129   6.391  0.0949  1.3674 -0.3832
  109MOL    O8328379   3.957   3.228   6.449 -0.1326 -0.1556  0.4947
  109MOL    C8428380   3.928   2.991   6.387  0.1619  0.1349 -0.5819
  109MOL    C8528381   4.211   3.256   6.135  0.0823  0.1474 -0.1183
  109MOL    H8628382   4.147   3.332   6.325  0.9772  0.4958  1.1578
  109MOL    H8728383   4.161   3.042   6.288  1.6566  0.6240 -0.9113
  109MOL    H8828384   3.878   2.980   6.291 -1.1813  2.4064 -0.1821
  109MOL    H8928385   4.003   2.913   6.388 -0.3769 -0.3824  1.7626
  109MOL    H9028386   3.857   2.968   6.466 -0.2284  2.6028 -0.1570
  109MOL    H9128387   4.266   3.343   6.099  2.0725 -1.2175 -0.4209
  109MOL    H9228388   4.286   3.184   6.104  0.7332  1.4950 -1.7560
  109MOL    C9328389   4.081   3.258   6.051  0.2129  0.9370  0.3625
  109MOL    N9428390   3.971   3.334   6.116 -0.1270  0.6156 -0.3976
  109MOL    C9528391   3.888   3.424   6.064  0.6915  0.1195  0.0134
  109MOL    O9628392   3.791   3.470   6.127 -0.0294  0.0095  0.1464
  109MOL    C9728393   3.913   3.481   5.934 -0.8215  0.2021 -0.1399
  109MOL    C9828394   4.037   3.117   5.997  0.1808  0.0551  0.5987
  109MOL    H9928395   4.104   3.314   5.960 -0.1070 -0.1850 -0.4325
  109MOL   H10028396   3.935   3.307   6.207  3.1216  0.1933  0.8168
  109MOL   H10128397   3.989   3.559   5.939 -0.0181 -0.6522  1.3999
  109MOL   H10228398   3.944   3.401   5.866  0.8365  0.8942 -0.2326
  109MOL   H10328399   3.832   3.540   5.892  0.1214  2.0723  0.5599
  109MOL   H10428400   4.011   3.052   6.081 -0.7585 -0.8547 -0.3945
  109MOL   H10528401   3.946   3.120   5.937  1.6137  0.6365 -1.5751
  109MOL   C10628402   4.147   3.044   5.910  0.1837  0.0205  1.1769
  109MOL   N10728403   4.158   3.117   5.784 -0.0691  0.6891 -0.1212
  109MOL   C10828404   4.263   3.197   5.745  0.2798 -0.0324  0.2010
  109MOL   O10928405   4.360   3.213   5.817 -0.1469  0.3804  0.6821
  109MOL   C11028406   4.266   3.255   5.606  0.8313  0.2691 -0.0858
  109MOL   C11128407   4.119   2.896   5.878  0.4938  0.2786  0.0381
  109MOL   H11228408   4.249   3.042   5.948 -0.2177 -2.4723  2.2538
  109MOL   H11328409   4.079   3.120   5.721  0.8620 -0.0874 -1.3635
  109MOL   H11428410   4.370   3.266   5.575  0.4521  1.3569 -1.0279
  109MOL   H11528411   4.204   3.203   5.533  0.1710  0.1010  0.5929
  109MOL   H11628412   4.221   3.355   5.603 -2.3438 -1.0965  0.1991
  109MOL   H11728413   4.023   2.887   5.828 -1.0857  0.1390  2.9837
  109MOL   H11828414   4.191   2.861   5.804 -0.3751  0.8778 -1.1131
  109MOL   C11928415   4.132   2.799   5.999  0.5455 -0.4685 -0.3238
  109MOL   N12028416   4.270   2.796   6.050 -0.1674 -0.4252 -0.6481
  109MOL   C12128417   4.318   2.838   6.167  1.3378  0.1781 -0.2344
  109MOL   O12228418   4.247   2.891   6.248  0.1468 -0.2793  0.5736
  109MOL   C12328419   4.461   2.805   6.199 -0.0667 -0.1750 -0.3912
  109MOL   C12428420   4.090   2.651   5.960  0.5792 -0.3958 -0.0780
  109MOL   H12528421   4.061   2.840   6.071 -0.3834 -0.3499 -1.2905
  109MOL   H12628422   4.327   2.735   5.994 -3.4217 -2.5255 -1.8130
  109MOL   H12728423   4.448   2.727   6.274 -2.4499  2.0388  1.5814
  109MOL   H12828424   4.520   2.769   6.114  1.1252 -1.0486  0.7795
  109MOL   H12928425   4.514   2.875   6.264  0.1200  0.6599 -1.4289
  109MOL   H13028426   4.126   2.631   5.859 -0.3354  0.1788 -0.5295
  109MOL   H13128427   4.149   2.585   6.024  1.2173  1.0172  0.8056
  109MOL   C13228428   3.934   2.624   5.966  0.3990  0.4049 -0.0902
  109MOL   N13328429   3.876   2.670   6.089  0.8956  0.2927  0.0359
  109MOL   C13428430   3.800   2.776   6.096  0.1005  0.1325 -0.1118
  109MOL   O13528431   3.793   2.865   6.007 -0.3075 -0.0785  0.1797
  109MOL   C13628432   3.703   2.794   6.213  0.3983 -0.0945 -0.0902
  109MOL   C13728433   3.899   2.469   5.956  0.4831 -0.1619 -0.5981
  109MOL   H13828434   3.886   2.671   5.880  1.0210  0.4955 -0.3957
  109MOL   H13928435   3.879   2.607   6.167 -1.7051 -0.3453 -0.3506
  109MOL   H14028436   3.753   2.773   6.307  0.3818 -1.9153 -0.4655
  109MOL   H14128437   3.662   2.895   6.218  2.0208  0.6058 -0.4991
  109MOL   H14228438   3.618   2.727   6.204  0.9474 -0.6848 -0.8965
  109MOL   H14328439   3.964   2.417   6.026 -0.4435 -0.2799  0.1856
  109MOL   H14428440   3.795   2.463   5.987  0.4392  0.9251 -0.4958
  109MOL   C14528441   3.908   2.402   5.821  0.0015 -0.1464 -0.8513
  109MOL   N14628442   3.828   2.458   5.715 -0.3797  0.2097  0.1942
  109MOL   C14728443   3.856   2.434   5.591 -0.3899  0.1687  0.4298
  109MOL   O14828444   3.960   2.382   5.549 -0.1670  0.0611 -0.1271
  109MOL   C14928445   3.757   2.480   5.489  0.2046 -0.1615  0.3578
  109MOL   C15028446   3.887   2.250   5.828 -0.5981  0.0254 -0.2386
  109MOL   H15128447   4.011   2.421   5.792  1.1114 -2.9017  1.1151
  109MOL   H15228448   3.744   2.511   5.730  0.9084  2.1870  0.6011
  109MOL   H15328449   3.655   2.445   5.506 -0.6104  1.0931 -1.7564
  109MOL   H15428450   3.751   2.588   5.474 -0.1807  0.1905  2.8405
  109MOL   H15528451   3.769   2.429   5.393 -1.0765  1.6259 -0.7966
  109MOL   H15628452   3.938   2.207   5.742  1.1040  0.2320  0.6479
  109MOL   H15728453   3.953   2.212   5.905 -2.7610 -1.4532  0.9299
  109MOL   C15828454   3.749   2.188   5.856 -0.3580 -0.1460  1.2640
  109MOL   N15928455   3.721   2.173   6.004  0.3007 -0.1773  0.4588
  109MOL   C16028456   3.605   2.176   6.067 -0.0072  0.0644 -0.3772
  109MOL   O16128457   3.502   2.174   6.009 -0.1334  0.2032  0.4602
  109MOL   C16228458   3.609   2.171   6.224  0.1908 -0.1316  0.4392
  109MOL   C16328459   3.739   2.050   5.791  0.1534 -0.2256  0.5945
  109MOL   H16428460   3.677   2.261   5.817  1.0127  2.1282  2.8730
  109MOL   H16528461   3.806   2.159   6.057  0.7564  1.4292  0.1873
  109MOL   H16628462   3.554   2.251   6.273  1.2185  0.1653  1.1328
  109MOL   H16728463   3.572   2.073   6.256  1.8615 -0.7856  0.4139
  109MOL   H16828464   3.710   2.172   6.265 -0.7518 -0.0539  2.8760
  109MOL   H16928465   3.825   1.993   5.828  1.0667  0.7375 -0.0197
  109MOL   H17028466   3.649   2.001   5.828 -1.3496  2.4284  0.5107
  109MOL   C17128467   3.732   2.038   5.635  0.3365 -0.5598  0.4456
  109MOL   N17228468   3.856   2.047   5.560 -0.3819 -0.2263  0.1668
  109MOL   C17328469   3.962   1.964   5.588 -0.2051 -0.1658  0.3214
  109MOL   O17428470   3.953   1.863   5.654  0.2024 -0.0870 -0.2700
  109MOL   C17528471   4.091   1.992   5.513 -0.3707  0.9355 -1.0571
  109MOL   C17628472   3.619   2.130   5.578 -0.1625  0.4026  0.4619
  109MOL   H17728473   3.696   1.938   5.611 -1.0419  0.3534 -1.4833
  109MOL   H17828474   3.859   2.113   5.484 -0.3937 -1.4454 -0.9205
  109MOL   H17928475   4.168   1.934   5.565 -0.4622 -0.0577 -1.9982
  109MOL   H18028476   4.083   1.946   5.415 -0.2309 -0.0805 -0.6046
  109MOL   H18128477   4.099   2.100   5.511 -2.0615  1.0762 -0.3002
  109MOL   H18228478   3.619   2.228   5.626  1.6418 -0.4813  2.3288
  109MOL   H18328479   3.641   2.172   5.480 -0.5510 -0.8802 -0.1974
  109MOL   C18428480   3.477   2.074   5.583  0.1682  0.1121 -0.2722
  109MOL   N18528481   3.470   1.980   5.467  0.0101  0.1226 -0.5069
  109MOL   C18628482   3.472   1.847   5.473 -0.9748 -0.8001  0.0347
  109MOL   O18728483   3.486   1.782   5.570 -0.1332 -0.0890 -0.1698
  109MOL   C18828484   3.474   1.773   5.337 -0.6020  0.0639  0.4213
  109MOL   C18928485   3.368   2.179   5.566 -0.1134 -0.6659 -0.4941
  109MOL   H19028486   3.467   2.023   5.678  0.5282  2.3117  0.9647
  109MOL   H19128487   3.456   2.018   5.375 -0.5188  1.4435  0.1000
  109MOL   H19228488   3.375   1.730   5.319  0.5843 -2.1783 -0.9251
  109MOL   H19328489   3.506   1.839   5.256  2.2333 -0.9187  0.6879
  109MOL   H19428490   3.547   1.693   5.344 -1.0328 -0.2776  1.0536
  109MOL   H19528491   3.379   2.226   5.469 -1.8075 -0.3252 -0.5302
  109MOL   H19628492   3.274   2.126   5.549 -0.2481 -0.9609  1.1317
  109MOL   C19728493   3.359   2.280   5.688 -0.1291  0.3333 -0.2617
  109MOL   N19828494   3.304   2.214   5.805  0.1045  0.0151  0.1149
  109MOL   C19928495   3.180   2.173   5.834  1.0031 -0.1260 -0.0560
  109MOL   O20028496   3.087   2.187   5.754 -0.4062 -0.1926  0.0840
  109MOL   C20128497   3.163   2.106   5.970  0.5373  0.1995 -0.3774
  109MOL   C20228498   3.267   2.394   5.652  0.4704 -0.0197 -0.5506
  109MOL   H20328499   3.453   2.321   5.725 -0.1872  0.7540 -0.5780
  109MOL   H20428500   3.364   2.203   5.885 -0.4601  1.5159  0.7717
  109MOL   H20528501   3.086   2.029   5.967  2.5401 -1.7997 -1.5343
  109MOL   H20628502   3.249   2.048   6.002  1.0015  0.8188 -0.4827
  109MOL   H20728503   3.143   2.183   6.045  0.5738  0.7359 -0.9094
  109MOL   H20828504   3.180   2.365   5.593 -0.7716  0.1527  1.1559
  109MOL   H20928505   3.219   2.430   5.742 -1.9475 -2.6751 -0.6828
  109MOL   C21028506   3.332   2.530   5.593  0.5099  0.0373  0.2589
  109MOL   N21128507   3.381   2.604   5.708 -0.4281 -0.1500 -0.0796
  109MOL   C21228508   3.492   2.685   5.713 -0.3401 -0.1018  0.0670
  109MOL   O21328509   3.550   2.723   5.608  0.9540  0.7721 -0.2054
  109MOL   C21428510   3.538   2.734   5.850 -0.1812 -0.1395  0.0387
  109MOL   C21528511   3.226   2.610   5.506  0.4623 -0.6485  0.6261
  109MOL   H21628512   3.409   2.491   5.526 -1.7420 -1.3881 -1.5775
  109MOL   H21728513   3.342   2.579   5.798 -3.4383 -1.3991 -1.6481
  109MOL   H21828514   3.470   2.807   5.894  1.1313  0.8326  0.4808
  109MOL   H21928515   3.539   2.648   5.917  2.2214  0.3624  0.6949
  109MOL   H22028516   3.641   2.771   5.843 -0.7318  1.5041  0.5221
  109MOL   H22128517   3.132   2.602   5.560  0.4661 -1.1050  0.5658
  109MOL   H22228518   3.248   2.717   5.500  0.0492 -0.7009 -3.0968
  109MOL   C22328519   3.204   2.565   5.354  0.3974 -0.2602 -0.4628
  109MOL   N22428520   3.328   2.579   5.278 -0.2305 -0.0699  0.0864
  109MOL   C22528521   3.395   2.482   5.216  0.4124 -0.4702  0.1113
  109MOL   O22628522   3.347   2.371   5.215  0.4725 -0.3388  0.7457
  109MOL   C22728523   3.535   2.514   5.160  0.1468 -0.4660 -0.3087
  109MOL   C22828524   3.092   2.650   5.292  0.1899 -0.1838  0.1042
  109MOL   H22928525   3.159   2.465   5.358 -1.0789  0.4283  0.9795
  109MOL   H23028526   3.364   2.673   5.268 -2.6108  0.8526 -0.1936
  109MOL   H23128527   3.609   2.434   5.167  0.0275 -0.7339 -1.9170
  109MOL   H23228528   3.523   2.541   5.056 -1.4154 -1.9362 -0.5294
  109MOL   H23328529   3.576   2.595   5.222 -1.5720 -0.6225  1.0633
  109MOL   H23428530   3.009   2.637   5.360 -0.0107 -1.0454 -0.2952
  109MOL   H23528531   3.124   2.753   5.305  1.2851 -0.5065  0.0442
  109MOL   C23628532   3.057   2.619   5.146 -0.1579 -0.2994  0.3524
  109MOL   N23728533   2.959   2.722   5.112  0.2320 -0.2664  0.2605
  109MOL   C23828534   2.984   2.838   5.049  0.4916 -0.2654  0.3661
  109MOL   O23928535   3.095   2.881   5.024  0.2343  0.3576  0.7236
  109MOL   C24028536   2.860   2.920   5.012  0.4069 -0.2633  0.8832
  109MOL   C24128537   2.988   2.478   5.122 -0.3818  0.6524 -0.6846
  109MOL   H24228538   3.143   2.636   5.081  2.3201 -0.7318  3.4140
  109MOL   H24328539   2.861   2.705   5.126 -0.0727 -0.1052 -1.4952
  109MOL   H24428540   2.852   2.995   5.090  0.4877  0.1723  0.4751
  109MOL   H24528541   2.859   2.962   4.911 -1.6161 -1.3966  0.4155
  109MOL   H24628542   2.775   2.852   5.007  0.4518 -0.2467 -0.4398
  109MOL   H24728543   3.046   2.393   5.157 -2.1764 -1.1734 -2.0721
  109MOL   H24828544   2.902   2.471   5.188 -1.2120 -0.7266 -1.8851
  109MOL   C24928545   2.939   2.443   4.982  0.1473 -0.2509 -0.2613
  109MOL   N25028546   2.841   2.333   4.983  0.3895  0.3363 -0.2220
  109MOL   C25128547   2.869   2.203   5.018 -0.5026 -0.5940 -0.2036
  109MOL   O25228548   2.981   2.155   5.039 -0.3310 -0.0601 -0.2565
  109MOL   C25328549   2.746   2.117   5.030 -0.2094 -0.1449  0.4611
  109MOL   C25428550   3.059   2.409   4.889 -0.2938  0.4841  0.2563
  109MOL   H25528551   2.888   2.522   4.928  3.0768 -0.1211 -2.9516
  109MOL   H25628552   2.743   2.356   4.969  0.3749  0.3416 -0.1080
  109MOL   H25728553   2.680   2.119   4.943 -0.4029 -0.2875  0.6055
  109MOL   H25828554   2.779   2.014   5.045 -1.0282 -0.5860 -0.7130
  109MOL   H25928555   2.685   2.154   5.112  1.2702 -0.7166  1.8450
  109MOL   H26028556   3.123   2.336   4.940  0.6837  1.4786  0.4804
  109MOL   H26128557   3.034   2.366   4.792  1.5025  2.1338 -0.9708
  109MOL   H26228558   3.128   2.493   4.877  2.3546 -1.6086  0.2062
  110MOL     C128559   2.483   2.246   3.529 -0.3607 -0.3362 -0.4508
  110MOL     N228560   2.504   2.148   3.640 -0.0807  0.5067 -0.5486
  110MOL     C328561   2.601   2.060   3.665 -0.6470  0.2028 -0.0686
  110MOL     O428562   2.697   2.037   3.592 -0.0333 -0.2054  0.0936
  110MOL     C528563   2.596   1.986   3.798  0.3902  0.4007 -0.6262
  110MOL     C628564   2.361   2.216   3.440  0.2192  0.1287  0.3613
  110MOL     H728565   2.469   2.343   3.578 -0.3262 -1.1681  1.2212
  110MOL     H828566   2.433   2.144   3.712  0.8723 -3.1255  0.2716
  110MOL     H928567   2.592   2.059   3.879 -3.0611  0.1477 -0.4810
  110MOL    H1028568   2.504   1.929   3.785 -0.5690  1.0829  2.7125
  110MOL    H1128569   2.674   1.913   3.818 -1.1019 -1.0917 -0.1402
  110MOL    H1228570   2.294   2.154   3.500  0.2175  0.3934  0.6327
  110MOL    H1328571   2.317   2.308   3.402  0.7465  0.5919  0.8681
  110MOL    H1428572   2.572   2.263   3.468 -0.1439  1.0318  0.2208
  110MOL    C1528573   2.397   2.133   3.321 -0.1341  0.2812 -0.2218
  110MOL    N1628574   2.473   2.013   3.353 -0.0360  0.5590  1.0056
  110MOL    C1728575   2.439   1.890   3.304 -0.5994 -0.4478 -0.4079
  110MOL    O1828576   2.353   1.861   3.223 -0.0356 -0.4031 -0.0212
  110MOL    C1928577   2.520   1.779   3.374 -0.2018  1.1410  0.2177
  110MOL    C2028578   2.470   2.208   3.207 -0.0267 -0.2296 -0.7507
  110MOL    H2128579   2.300   2.101   3.285 -0.8105  1.0297  0.8879
  110MOL    H2228580   2.548   2.009   3.420  2.9939  0.2436 -2.2574
  110MOL    H2328581   2.624   1.802   3.396  0.3363 -0.2871 -0.7587
  110MOL    H2428582   2.483   1.745   3.470  1.4182  0.2401  0.5256
  110MOL    H2528583   2.506   1.694   3.307 -1.8917  1.4260  0.1758
  110MOL    H2628584   2.415   2.301   3.196  0.3374 -0.1815 -2.3711
  110MOL    H2728585   2.572   2.236   3.234 -0.5340  0.4767  0.4609
  110MOL    C2828586   2.471   2.137   3.073 -0.0391 -0.2349 -0.1633
  110MOL    N2928587   2.543   2.228   2.985 -1.1284 -0.0023 -0.2064
  110MOL    C3028588   2.657   2.195   2.917  0.9716 -0.1776 -0.4264
  110MOL    O3128589   2.682   2.078   2.878  0.1800  0.1301  0.9280
  110MOL    C3228590   2.752   2.306   2.881 -0.1497  0.1835 -0.4152
  110MOL    C3328591   2.330   2.115   3.012 -1.0531 -0.3166  0.2017
  110MOL    H3428592   2.526   2.045   3.095  2.0476  1.0966  0.3259
  110MOL    H3528593   2.537   2.327   3.006  0.4422 -0.2715  1.6652
  110MOL    H3628594   2.705   2.373   2.808 -0.5737 -1.0407 -1.2869
  110MOL    H3728595   2.787   2.354   2.972 -0.8812 -1.1137  0.5630
  110MOL    H3828596   2.838   2.255   2.839  0.4004 -0.5497  1.5875
  110MOL    H3928597   2.264   2.056   3.075  0.0493  1.7112  3.3385
  110MOL    H4028598   2.288   2.215   3.016  2.8474  1.3477  4.8975
  110MOL    C4128599   2.319   2.045   2.878 -1.0316 -0.4518 -0.0667
  110MOL    N4228600   2.186   2.086   2.833  0.2262 -0.1191  0.0317
  110MOL    C4328601   2.156   2.172   2.736 -0.1202  0.6783  0.0291
  110MOL    O4428602   2.238   2.222   2.663 -0.2517  0.1094 -0.0267
  110MOL    C4528603   2.014   2.215   2.723 -0.0404  0.1479 -0.2711
  110MOL    C4628604   2.337   1.888   2.896 -0.0866 -0.2412 -0.8984
  110MOL    H4728605   2.401   2.078   2.813  1.4795 -0.9863  2.6967
  110MOL    H4828606   2.120   2.041   2.893  0.9111  0.6573  1.3849
  110MOL    H4928607   1.998   2.301   2.788  1.7359 -0.3812  0.8959
  110MOL    H5028608   1.983   2.234   2.620 -1.0826  2.0560  0.3803
  110MOL    H5128609   1.950   2.140   2.770  1.5843 -1.5178 -0.6186
  110MOL    H5228610   2.409   1.863   2.974 -0.4465 -0.4960 -0.6479
  110MOL    H5328611   2.247   1.840   2.933  0.0199 -0.1952 -0.5833
  110MOL    C5428612   2.371   1.805   2.764 -0.0558  0.6698  0.1807
  110MOL    N5528613   2.297   1.861   2.651 -0.1386  0.2996  0.0406
  110MOL    C5628614   2.342   1.888   2.535 -0.5767 -0.1009 -0.4775
  110MOL    O5728615   2.460   1.875   2.504  0.2530  0.5045 -0.0407
  110MOL    C5828616   2.239   1.944   2.425  0.1006  0.2094 -0.3602
  110MOL    C5928617   2.325   1.657   2.795  0.5074 -0.0226 -0.2592
  110MOL    H6028618   2.479   1.802   2.747 -0.4253  1.5377 -2.5761
  110MOL    H6128619   2.209   1.907   2.673  0.8396  1.9776  0.5218
  110MOL    H6228620   2.169   2.011   2.474  1.1327  1.3752 -0.4558
  110MOL    H6328621   2.298   2.000   2.352  0.8255 -3.1657 -2.5251
  110MOL    H6428622   2.194   1.863   2.367 -1.0124  1.4593 -1.2548
  110MOL    H6528623   2.359   1.637   2.897  0.3701  0.9219 -0.0185
  110MOL    H6628624   2.216   1.660   2.802  0.4479  3.2136 -1.4971
  110MOL    C6728625   2.354   1.559   2.687  0.1607 -0.1120 -0.4239
  110MOL    N6828626   2.279   1.440   2.707  0.1469  0.4465 -0.0557
  110MOL    C6928627   2.189   1.389   2.621 -0.2304 -0.2656 -0.8003
  110MOL    O7028628   2.161   1.441   2.513  0.4379  0.1940 -0.0163
  110MOL    C7128629   2.117   1.273   2.669 -0.4466 -0.1889  0.1069
  110MOL    C7228630   2.504   1.525   2.682  0.1365 -0.2396  0.7588
  110MOL    H7328631   2.331   1.613   2.596 -0.2581 -1.3166 -1.0431
  110MOL    H7428632   2.309   1.381   2.784 -1.5699  2.2184  2.0234
  110MOL    H7528633   2.119   1.200   2.589  0.6052  0.7528 -0.7414
  110MOL    H7628634   2.166   1.223   2.753  0.4995  1.3475  0.5035
  110MOL    H7728635   2.017   1.303   2.700 -0.1597  1.8446 -0.8184
  110MOL    H7828636   2.543   1.608   2.623 -0.0066 -0.3664  0.4831
  110MOL    H7928637   2.542   1.555   2.780 -1.5359  1.5135  0.8994
  110MOL    C8028638   2.555   1.394   2.624 -0.0926  0.0687  0.5811
  110MOL    N8128639   2.541   1.290   2.719  0.7449 -0.4434  0.2464
  110MOL    C8228640   2.480   1.173   2.696 -0.0066  0.6391 -0.6461
  110MOL    O8328641   2.423   1.139   2.589 -0.1643 -0.1415 -0.1728
  110MOL    C8428642   2.499   1.070   2.807 -0.0240  0.7075 -0.8266
  110MOL    C8528643   2.697   1.385   2.568  0.4125  0.0847  0.0565
  110MOL    H8628644   2.490   1.388   2.536 -1.7106 -0.0323  1.7581
  110MOL    H8728645   2.582   1.303   2.810  1.8408 -0.8461 -0.1820
  110MOL    H8828646   2.437   0.981   2.809 -0.5594  1.1117  1.6162
  110MOL    H8928647   2.605   1.046   2.814  0.1759  1.6184 -0.6927
  110MOL    H9028648   2.470   1.119   2.900  1.3276 -1.1828  0.6363
  110MOL    H9128649   2.764   1.362   2.651 -0.5590 -1.1271  0.5179
  110MOL    H9228650   2.706   1.293   2.510  0.9496  0.6876 -0.8325
  110MOL    C9328651   2.758   1.513   2.507 -0.5575 -0.1566 -0.3136
  110MOL    N9428652   2.850   1.468   2.400  0.4472  0.4589 -0.2891
  110MOL    C9528653   2.823   1.439   2.273 -0.1368  0.2356 -0.1026
  110MOL    O9628654   2.705   1.448   2.232 -0.3312  0.1015 -0.2782
  110MOL    C9728655   2.939   1.401   2.179  0.0472 -0.2355 -0.9468
  110MOL    C9828656   2.825   1.596   2.620 -0.6149 -0.0907 -0.0067
  110MOL    H9928657   2.674   1.564   2.461 -0.0104 -0.3853 -1.5988
  110MOL   H10028658   2.946   1.460   2.432  0.6071  1.7547 -0.4246
  110MOL   H10128659   2.926   1.303   2.134 -0.6683 -0.2484 -0.7214
  110MOL   H10228660   2.964   1.468   2.097 -0.0164 -2.4854 -2.8486
  110MOL   H10328661   3.027   1.383   2.240 -0.6863 -1.6237 -0.2745
  110MOL   H10428662   2.756   1.611   2.703  0.2607  1.0891  0.5174
  110MOL   H10528663   2.909   1.532   2.647  0.8741  0.9540 -2.0269
  110MOL   C10628664   2.873   1.731   2.572 -0.2841  0.3053 -0.0277
  110MOL   N10728665   2.981   1.793   2.658  0.0494 -0.0934  0.5373
  110MOL   C10828666   3.111   1.760   2.659 -0.3439 -0.0878 -0.4361
  110MOL   O10928667   3.162   1.666   2.604 -0.8412  0.6560 -0.7314
  110MOL   C11028668   3.201   1.853   2.748 -0.1631 -0.7640 -0.3444
  110MOL   C11128669   2.757   1.827   2.550 -0.3627  0.5472 -0.4811
  110MOL   H11228670   2.916   1.724   2.473  1.4334 -0.9627  0.7839
  110MOL   H11328671   2.958   1.873   2.716 -0.3474 -0.4990  0.9445
  110MOL   H11428672   3.226   1.783   2.827 -0.4242 -0.5746 -0.0947
  110MOL   H11528673   3.292   1.891   2.702 -0.4155  1.4008  0.8737
  110MOL   H11628674   3.150   1.943   2.781  2.0371  0.4777 -0.2719
  110MOL   H11728675   2.694   1.807   2.464 -0.0363  1.8736 -1.0436
  110MOL   H11828676   2.698   1.822   2.642  2.5666 -1.1808  1.3832
  110MOL   C11928677   2.784   1.982   2.529  0.1176 -0.1049 -0.2829
  110MOL   N12028678   2.661   2.062   2.529 -0.0821 -0.0347  0.0451
  110MOL   C12128679   2.651   2.193   2.534  0.0231 -0.1263 -0.5484
  110MOL   O12228680   2.751   2.273   2.554  0.4679  0.2905 -0.2852
  110MOL   C12328681   2.513   2.246   2.497 -0.6117 -0.4563 -0.1007
  110MOL   C12428682   2.864   2.014   2.401 -0.6538 -0.1144  0.1605
  110MOL   H12528683   2.833   2.020   2.619 -1.0241  0.2882  0.1827
  110MOL   H12628684   2.581   2.005   2.505  1.0364 -1.3385 -0.6050
  110MOL   H12728685   2.485   2.334   2.554 -0.5136 -1.3356  1.3451
  110MOL   H12828686   2.508   2.279   2.394  0.0061  0.8026  0.2718
  110MOL   H12928687   2.431   2.181   2.529 -1.9578  1.5447  0.5802
  110MOL   H13028688   2.849   1.935   2.327 -1.3250  0.0176  0.1531
  110MOL   H13128689   2.820   2.101   2.353 -1.2593  0.2842  1.4236
  110MOL   C13228690   3.019   2.044   2.418  0.7308 -0.5576  0.0267
  110MOL   N13328691   3.024   2.154   2.513 -0.3516  0.0802 -0.3337
  110MOL   C13428692   3.128   2.189   2.586  0.2758 -0.0189 -0.1415
  110MOL   O13528693   3.234   2.128   2.595 -0.0234  0.3897 -0.0819
  110MOL   C13628694   3.114   2.315   2.664 -0.1863  0.0861 -0.0748
  110MOL   C13728695   3.089   2.094   2.287 -0.7799  0.2532  0.2391
  110MOL   H13828696   3.056   1.948   2.455 -1.1002 -1.2549  0.1204
  110MOL   H13928697   2.934   2.192   2.537  1.4342  3.0525  2.0244
  110MOL   H14028698   3.212   2.363   2.651 -0.0852 -0.5012 -1.5271
  110MOL   H14128699   3.034   2.380   2.629  0.8648  1.2167 -0.4266
  110MOL   H14228700   3.109   2.289   2.770 -2.5475  0.2192 -0.1405
  110MOL   H14328701   3.023   2.173   2.250  0.0419  2.1026  2.6197
  110MOL   H14428702   3.185   2.143   2.301 -0.9448  0.4237  0.7822
  110MOL   C14528703   3.104   1.990   2.180  0.2113  0.0583 -0.2000
  110MOL   N14628704   3.167   1.868   2.228  0.7430 -0.2831  0.2933
  110MOL   C14728705   3.111   1.741   2.233 -0.5820 -0.6232 -0.4488
  110MOL   O14828706   2.998   1.715   2.201 -0.6194  0.4320  0.4671
  110MOL   C14928707   3.204   1.634   2.282 -0.1942 -0.3885  0.2039
  110MOL   C15028708   3.183   2.035   2.057  0.0427 -0.3887 -0.3240
  110MOL   H15128709   3.001   1.978   2.148  0.1736 -3.7462  1.0139
  110MOL   H15228710   3.263   1.867   2.259  0.0699 -2.6397  2.4904
  110MOL   H15328711   3.272   1.688   2.347 -1.8830  0.9635  0.9037
  110MOL   H15428712   3.140   1.557   2.327 -2.0947  1.4905  0.8298
  110MOL   H15528713   3.272   1.586   2.213 -1.2763  1.8281 -2.5038
  110MOL   H15628714   3.285   2.057   2.089 -0.7953 -0.5203  2.6211
  110MOL   H15728715   3.191   1.953   1.986 -1.0293 -0.9344  0.1789
  110MOL   C15828716   3.118   2.158   1.979 -0.4271 -0.0382  0.2222
  110MOL   N15928717   3.000   2.107   1.906 -0.2355  0.0590 -0.5181
  110MOL   C16028718   2.899   2.173   1.862  0.6398 -0.3419 -0.3802
  110MOL   O16128719   2.891   2.293   1.869  0.3004 -0.3811  0.4197
  110MOL   C16228720   2.775   2.089   1.815 -0.0949 -0.1283 -0.7850
  110MOL   C16328721   3.227   2.226   1.884 -0.2461 -0.3559  0.5146
  110MOL   H16428722   3.096   2.234   2.054  1.5045  1.2645 -0.4805
  110MOL   H16528723   3.002   2.008   1.884  1.2598 -0.5572  2.1710
  110MOL   H16628724   2.795   2.052   1.715  0.4030 -1.8907 -0.0523
  110MOL   H16728725   2.738   2.013   1.883  0.2878  0.2565 -0.1377
  110MOL   H16828726   2.685   2.150   1.814 -0.5520 -0.5834  3.2003
  110MOL   H16928727   3.318   2.239   1.943 -0.6240  0.3642  0.9456
  110MOL   H17028728   3.268   2.165   1.803 -1.4331 -0.0432 -0.3339
  110MOL   C17128729   3.204   2.373   1.825  0.0592  1.1656  0.3181
  110MOL   N17228730   3.322   2.418   1.750  0.2666  0.0889 -0.6191
  110MOL   C17328731   3.332   2.451   1.622 -0.5375  0.1359 -0.2051
  110MOL   O17428732   3.238   2.445   1.541 -0.3058 -0.0546 -0.2934
  110MOL   C17528733   3.460   2.520   1.586  0.7602 -0.8400 -0.2597
  110MOL   C17628734   3.153   2.470   1.920  0.5155 -0.9296  0.7772
  110MOL   H17728735   3.134   2.356   1.743  0.5398  3.2877 -0.5734
  110MOL   H17828736   3.407   2.415   1.805  0.1232  1.4651 -0.3018
  110MOL   H17928737   3.459   2.538   1.479  0.6718 -0.7377 -0.2418
  110MOL   H18028738   3.479   2.616   1.634 -1.6763 -0.0385 -0.8481
  110MOL   H18128739   3.546   2.457   1.610  1.5258 -0.2632 -1.4268
  110MOL   H18228740   3.129   2.565   1.873 -1.8577 -0.9133  1.9101
  110MOL   H18328741   3.051   2.436   1.940 -0.7431  0.7936 -2.4514
  110MOL   C18428742   3.235   2.501   2.043 -0.5046 -0.0144  0.2145
  110MOL   N18528743   3.160   2.576   2.141 -0.0244  0.6073  0.8750
  110MOL   C18628744   3.139   2.530   2.263  0.8688 -0.1477  0.1528
  110MOL   O18728745   3.179   2.420   2.308 -0.0042  0.0805  0.7146
  110MOL   C18828746   3.055   2.629   2.347  0.1910 -0.6659 -1.0948
  110MOL   C18928747   3.359   2.583   2.014  0.5779 -0.4102  1.1083
  110MOL   H19028748   3.268   2.402   2.075 -1.5349 -0.7967 -1.0632
  110MOL   H19128749   3.121   2.667   2.121 -3.2286 -0.4547  2.0551
  110MOL   H19228750   2.950   2.636   2.319 -0.0964 -1.2247 -0.1683
  110MOL   H19328751   3.064   2.592   2.449 -1.4494  0.2363 -0.6057
  110MOL   H19428752   3.096   2.730   2.343 -3.3031  1.0676  3.1773
  110MOL   H19528753   3.424   2.533   1.942 -0.1304  1.5923 -0.9647
  110MOL   H19628754   3.326   2.675   1.966  1.0493 -0.7218  0.1794
  110MOL   C19728755   3.450   2.618   2.136 -0.3311  0.0008  0.5198
  110MOL   N19828756   3.561   2.692   2.084 -0.1236 -0.0084  0.9353
  110MOL   C19928757   3.556   2.816   2.018  0.4112  0.0856 -1.1502
  110MOL   O20028758   3.448   2.870   1.995  0.8859 -0.2495  0.0750
  110MOL   C20128759   3.686   2.886   1.977 -0.4922  0.2002 -0.5224
  110MOL   C20228760   3.507   2.494   2.206  0.1305 -0.6410  0.3889
  110MOL   H20328761   3.384   2.676   2.200 -0.1595  0.1629  0.5496
  110MOL   H20428762   3.650   2.651   2.107 -0.9681 -3.3794 -1.4221
  110MOL   H20528763   3.669   2.986   1.937  2.5025  0.0922 -2.2346
  110MOL   H20628764   3.743   2.895   2.069 -0.4622  2.8783 -0.7825
  110MOL   H20728765   3.737   2.817   1.909 -0.7210  1.2530 -1.7861
  110MOL   H20828766   3.427   2.419   2.215 -0.0089 -0.8567 -2.1869
  110MOL   H20928767   3.580   2.443   2.143 -0.4675 -0.0969 -0.7821
  110MOL   C21028768   3.538   2.532   2.353 -0.1279 -0.6925 -0.1316
  110MOL   N21128769   3.656   2.620   2.364  0.4977  0.0438 -0.4239
  110MOL   C21228770   3.661   2.750   2.377  0.0487  0.0768 -0.2551
  110MOL   O21328771   3.567   2.823   2.397  0.2469 -0.0568 -0.1583
  110MOL   C21428772   3.802   2.807   2.370  0.2143 -0.0260 -0.1679
  110MOL   C21528773   3.565   2.404   2.438 -0.6846  0.0368 -0.3911
  110MOL   H21628774   3.455   2.579   2.406  0.2992 -2.5601  2.2419
  110MOL   H21728775   3.740   2.566   2.348 -0.1129 -1.0734  0.0805
  110MOL   H21828776   3.810   2.910   2.404  1.4217  0.1802 -1.0631
  110MOL   H21928777   3.890   2.751   2.401  0.2689 -0.6629 -1.4385
  110MOL   H22028778   3.821   2.829   2.265 -0.1380  2.1538  0.2033
  110MOL   H22128779   3.471   2.351   2.451 -0.2298 -0.3087  1.6948
  110MOL   H22228780   3.625   2.330   2.385 -1.5747  0.7692 -2.4638
  110MOL   C22328781   3.631   2.423   2.581  0.3461 -0.0932  0.5918
  110MOL   N22428782   3.775   2.441   2.572 -0.0407 -0.1477 -0.4069
  110MOL   C22528783   3.836   2.539   2.641 -0.0548 -0.2784  0.4939
  110MOL   O22628784   3.780   2.617   2.717  0.2730  0.3887 -0.1173
  110MOL   C22728785   3.986   2.557   2.628  0.3832 -1.0626  0.3857
  110MOL   C22828786   3.602   2.305   2.671 -0.4319 -0.5676 -0.4841
  110MOL   H22928787   3.582   2.509   2.628  0.5249 -1.2959  3.0849
  110MOL   H23028788   3.826   2.368   2.524 -1.9430 -0.5004 -1.9490
  110MOL   H23128789   4.018   2.623   2.709 -0.4978  0.0135 -0.1231
  110MOL   H23228790   4.038   2.462   2.622  0.2234 -1.0129 -2.6284
  110MOL   H23328791   4.006   2.607   2.533 -0.7825  0.9618  1.1640
  110MOL   H23428792   3.649   2.333   2.765 -0.9729  2.0423 -0.9554
  110MOL   H23528793   3.497   2.295   2.697  0.0396 -1.4829  1.1391
  110MOL   C23628794   3.653   2.171   2.621  0.0592  0.8640  0.2659
  110MOL   N23728795   3.538   2.106   2.545  0.7495  0.5283 -0.1791
  110MOL   C23828796   3.547   2.007   2.454 -0.2779 -0.0846 -0.2623
  110MOL   O23928797   3.650   1.937   2.442  0.0461 -0.1826  0.4209
  110MOL   C24028798   3.429   1.980   2.366  0.1459  0.0764 -0.6138
  110MOL   C24128799   3.707   2.093   2.735  0.0680 -0.2730  0.4984
  110MOL   H24228800   3.734   2.185   2.549  0.9558 -1.3428  0.7826
  110MOL   H24328801   3.449   2.149   2.565  0.0170 -1.1835  0.3049
  110MOL   H24428802   3.348   1.931   2.420  1.9613 -2.2146  0.0748
  110MOL   H24528803   3.396   2.067   2.308 -0.0955  0.8704  0.6739
  110MOL   H24628804   3.451   1.906   2.289 -0.4680 -1.8494  1.0274
  110MOL   H24728805   3.662   2.119   2.831 -0.4568  0.4761  0.0577
  110MOL   H24828806   3.687   1.988   2.718  1.3272 -0.2037 -1.4645
  110MOL   C24928807   3.859   2.112   2.757  0.2986  1.4601  1.4107
  110MOL   N25028808   3.931   2.053   2.642 -0.0069  0.1645 -0.1406
  110MOL   C25128809   3.995   2.111   2.539 -0.8687  1.4050 -0.3329
  110MOL   O25228810   4.015   2.227   2.537  0.1524  0.1334  0.2782
  110MOL   C25328811   4.050   2.015   2.431 -0.3323 -0.6114  0.4107
  110MOL   C25428812   3.903   2.043   2.891 -0.4599 -0.2428  0.8463
  110MOL   H25528813   3.887   2.217   2.772 -1.1611  1.9686  0.6441
  110MOL   H25628814   3.935   1.952   2.650  0.9259  0.2257  0.2872
  110MOL   H25728815   3.969   1.957   2.388  0.0375 -0.6072 -0.3104
  110MOL   H25828816   4.115   2.072   2.365 -1.8889 -0.4933 -1.0495
  110MOL   H25928817   4.116   1.937   2.471  1.2770 -0.0585 -1.0755
  110MOL   H26028818   3.846   2.078   2.978  0.0856  4.3014 -0.4867
  110MOL   H26128819   3.892   1.935   2.904 -0.2389 -0.4601 -0.7342
  110MOL   H26228820   4.000   2.075   2.928 -0.3105 -1.2793  1.3650
  111MOL     C128821   3.143   5.243   6.465  0.1871  0.0554 -0.2222
  111MOL     N228822   3.031   5.331   6.504 -0.5479 -0.8252  0.8789
  111MOL     C328823   3.000   5.444   6.441  0.5896 -0.4406  0.4181
  111MOL     O428824   3.074   5.501   6.358 -0.5236  0.5821  0.1073
  111MOL     C528825   2.850   5.492   6.459  0.7141 -0.6509  0.5499
  111MOL     C628826   3.111   5.094   6.453 -0.0010  0.0314 -0.7795
  111MOL     H728827   3.191   5.279   6.374  0.8376  2.2230  0.9454
  111MOL     H828828   2.954   5.291   6.556 -1.2670 -2.3531 -1.2610
  111MOL     H928829   2.838   5.583   6.401  3.5328 -1.1696 -0.9290
  111MOL    H1028830   2.786   5.411   6.423  1.2373  0.5523 -3.2720
  111MOL    H1128831   2.827   5.512   6.564 -1.1869  0.3390 -0.0273
  111MOL    H1228832   3.047   5.054   6.532  1.7380 -0.7859  0.2427
  111MOL    H1328833   3.067   5.069   6.356 -0.6203  0.1898 -0.5424
  111MOL    H1428834   3.211   5.261   6.549  1.8376 -1.2896 -1.2368
  111MOL    C1528835   3.237   5.009   6.470 -1.5955 -0.4928 -0.3872
  111MOL    N1628836   3.292   5.027   6.605  0.3328  0.0710 -0.5258
  111MOL    C1728837   3.376   4.943   6.663 -0.1359  0.1435  0.4158
  111MOL    O1828838   3.404   4.835   6.614 -0.3320 -0.1114 -0.0163
  111MOL    C1928839   3.437   4.982   6.793  0.5149 -0.0624 -0.1344
  111MOL    C2028840   3.344   5.026   6.359  0.2332  0.5389 -0.3630
  111MOL    H2128841   3.204   4.905   6.466 -1.9054 -0.4461  0.9138
  111MOL    H2228842   3.259   5.102   6.664  0.0404  0.1342 -0.7714
  111MOL    H2328843   3.522   5.049   6.785  0.8003 -0.4971 -0.7793
  111MOL    H2428844   3.367   5.037   6.856  0.4658  1.0323 -1.1461
  111MOL    H2528845   3.450   4.890   6.850 -2.3301  0.4548  1.4565
  111MOL    H2628846   3.353   5.133   6.339  0.7081  0.6347  0.3431
  111MOL    H2728847   3.448   5.010   6.388  0.2233  0.5928 -0.2981
  111MOL    C2828848   3.317   4.960   6.227 -0.1115 -0.4924  1.0396
  111MOL    N2928849   3.296   4.813   6.245 -0.1775  0.1265  0.0022
  111MOL    C3028850   3.183   4.746   6.260  0.1230 -0.0460  0.1763
  111MOL    O3128851   3.076   4.805   6.245 -0.2039 -0.2511 -0.0323
  111MOL    C3228852   3.192   4.605   6.304 -0.0517  0.0572  0.5514
  111MOL    C3328853   3.434   4.986   6.127 -0.1732  0.2007  0.0206
  111MOL    H3428854   3.226   5.005   6.187  1.4645  1.9442  0.0771
  111MOL    H3528855   3.373   4.748   6.234  0.9266  1.6362 -1.4511
  111MOL    H3628856   3.233   4.615   6.405 -0.6851  2.9315  0.5572
  111MOL    H3728857   3.092   4.570   6.328  0.7118 -0.7825  2.6438
  111MOL    H3828858   3.259   4.537   6.251 -0.8764 -0.0117 -0.4030
  111MOL    H3928859   3.475   5.087   6.121 -1.4153  0.6877 -0.6290
  111MOL    H4028860   3.520   4.928   6.160 -0.7431  0.6873  2.4823
  111MOL    C4128861   3.407   4.942   5.978 -0.1022  0.0030 -1.2445
  111MOL    N4228862   3.534   4.962   5.900 -0.4275 -0.0410 -0.2906
  111MOL    C4328863   3.633   4.872   5.873  0.2703 -0.8181 -0.0788
  111MOL    O4428864   3.746   4.906   5.831  0.5293  0.0164  0.4643
  111MOL    C4528865   3.605   4.724   5.878  0.1374 -0.4399 -0.2909
  111MOL    C4628866   3.297   5.018   5.909 -0.7621  0.1249  0.6602
  111MOL    H4728867   3.374   4.839   5.990 -0.4004  0.5908  3.9043
  111MOL    H4828868   3.567   5.057   5.892 -0.6936 -0.0811 -1.9112
  111MOL    H4928869   3.558   4.693   5.785  0.9993  2.6632 -1.8278
  111MOL    H5028870   3.696   4.668   5.902 -0.4988 -1.5363 -0.4113
  111MOL    H5128871   3.531   4.702   5.955 -0.9937 -1.5318 -1.6589
  111MOL    H5228872   3.206   4.964   5.939 -0.9664  0.2994  0.3514
  111MOL    H5328873   3.280   5.119   5.948 -1.8046 -0.0205  0.6156
  111MOL    C5428874   3.299   5.024   5.756  0.7947 -0.9139 -0.1348
  111MOL    N5528875   3.176   5.101   5.726 -0.1919 -0.1182 -0.6281
  111MOL    C5628876   3.156   5.232   5.704  0.0355 -0.1881 -0.8931
  111MOL    O5728877   3.250   5.310   5.699  0.3916 -0.2346  0.3245
  111MOL    C5828878   3.013   5.278   5.703  0.2792 -0.4400 -0.5795
  111MOL    C5928879   3.280   4.880   5.693 -0.8908  0.5770  0.3227
  111MOL    H6028880   3.381   5.084   5.717 -1.4063  2.0588 -0.4079
  111MOL    H6128881   3.091   5.046   5.719 -1.8313  2.3607 -0.6831
  111MOL    H6228882   3.003   5.361   5.772 -0.4033  1.8139 -3.2947
  111MOL    H6328883   2.979   5.311   5.605 -0.8906 -2.1402 -0.7793
  111MOL    H6428884   2.942   5.200   5.731 -0.1313  0.5331  1.1354
  111MOL    H6528885   3.366   4.822   5.725  0.4045  2.9982  1.3809
  111MOL    H6628886   3.199   4.831   5.748  1.0328 -1.0705  1.7410
  111MOL    C6728887   3.262   4.887   5.536  0.7626  0.1135  0.1420
  111MOL    N6828888   3.127   4.839   5.509  0.0591 -0.3734  0.0191
  111MOL    C6928889   3.027   4.899   5.445 -0.1051 -0.5597  0.7272
  111MOL    O7028890   3.028   5.012   5.383 -0.8438  0.2361  0.1465
  111MOL    C7128891   2.902   4.814   5.431 -0.8001  0.4785 -0.1872
  111MOL    C7228892   3.376   4.809   5.456  0.3245  0.3641  0.1539
  111MOL    H7328893   3.284   4.988   5.502  0.9833  0.8199  2.3092
  111MOL    H7428894   3.108   4.750   5.554 -0.1584  0.1934  1.0738
  111MOL    H7528895   2.895   4.749   5.518  0.1139 -0.2960 -0.6860
  111MOL    H7628896   2.814   4.878   5.428 -0.4781  0.9291 -0.0672
  111MOL    H7728897   2.906   4.743   5.349  2.5472 -0.0537  0.3854
  111MOL    H7828898   3.465   4.869   5.470 -1.1860  2.0263  3.0572
  111MOL    H7928899   3.402   4.720   5.515 -1.5813 -0.7704 -0.6536
  111MOL    C8028900   3.349   4.774   5.308 -0.8365  0.0486  0.0904
  111MOL    N8128901   3.436   4.672   5.255 -0.0366 -0.3714 -0.1681
  111MOL    C8228902   3.569   4.674   5.235  0.3694  0.0992  0.3877
  111MOL    O8328903   3.640   4.753   5.291 -0.5739 -0.3220  0.4960
  111MOL    C8428904   3.625   4.557   5.159 -0.1195 -0.2153  0.0375
  111MOL    C8528905   3.350   4.893   5.219 -0.0601  0.3775  0.1272
  111MOL    H8628906   3.251   4.726   5.307 -0.6577 -0.2967 -1.0473
  111MOL    H8728907   3.401   4.584   5.218  0.5530 -1.2578  1.3129
  111MOL    H8828908   3.720   4.586   5.116  1.2097 -1.4253  2.0430
  111MOL    H8928909   3.648   4.471   5.222  0.1184  0.1206  0.4127
  111MOL    H9028910   3.561   4.529   5.075  0.1231  1.0416 -0.5658
  111MOL    H9128911   3.299   4.978   5.263 -1.4791 -0.9528  1.0913
  111MOL    H9228912   3.449   4.934   5.195 -0.2819  0.9538  0.1909
  111MOL    C9328913   3.282   4.866   5.082 -0.5295 -1.0059 -0.3076
  111MOL    N9428914   3.329   4.961   4.976 -0.1090  0.3472 -0.0255
  111MOL    C9528915   3.446   4.949   4.911  0.6406 -0.5081 -0.1396
  111MOL    O9628916   3.530   4.862   4.928 -0.2748 -0.7026  0.2657
  111MOL    C9728917   3.479   5.065   4.814 -0.4369 -0.5577 -0.0968
  111MOL    C9828918   3.124   4.862   5.083  0.7124 -0.4953  0.2041
  111MOL    H9928919   3.328   4.770   5.058  0.6808 -1.1015  2.2635
  111MOL   H10028920   3.276   5.043   4.952  0.7723  0.3874 -1.9070
  111MOL   H10128921   3.565   5.111   4.864 -1.2930 -0.2632  1.1266
  111MOL   H10228922   3.525   5.031   4.721  1.0022 -1.2880  0.8515
  111MOL   H10328923   3.397   5.135   4.799 -0.2526  0.0474  1.5724
  111MOL   H10428924   3.087   4.826   5.179  1.6261 -1.9076  0.0360
  111MOL   H10528925   3.100   4.968   5.087 -4.1299 -1.4295 -1.3053
  111MOL   C10628926   3.062   4.804   4.956  0.0244 -0.3566 -0.1319
  111MOL   N10728927   2.973   4.900   4.896 -0.2872 -0.5236 -0.6511
  111MOL   C10828928   2.932   4.903   4.773  0.3575  0.6293  0.2354
  111MOL   O10928929   2.956   4.818   4.685 -0.6693 -0.0533 -0.2651
  111MOL   C11028930   2.855   5.030   4.737  0.0493  0.3752 -0.3793
  111MOL   C11128931   2.983   4.676   4.989  0.3611  0.2654 -0.5805
  111MOL   H11228932   3.141   4.778   4.886 -0.0963 -0.4002 -0.2529
  111MOL   H11328933   2.974   4.989   4.944  2.1658 -0.3870 -0.8667
  111MOL   H11428934   2.754   4.994   4.756 -0.5151  1.6770 -0.8058
  111MOL   H11528935   2.864   5.113   4.808  2.3444 -0.6713  0.6014
  111MOL   H11628936   2.867   5.054   4.631  1.6076  3.2800  0.4005
  111MOL   H11728937   2.916   4.714   5.067  2.4689  0.4011  1.2048
  111MOL   H11828938   2.913   4.638   4.914  1.2905 -1.0214 -0.8119
  111MOL   C11928939   3.065   4.558   5.045 -0.4418 -0.2130 -0.1897
  111MOL   N12028940   3.153   4.506   4.944 -0.5137  0.7992 -0.1300
  111MOL   C12128941   3.281   4.470   4.958  0.2042 -0.3482 -0.2381
  111MOL   O12228942   3.342   4.466   5.065 -0.0992 -0.2403 -0.1590
  111MOL   C12328943   3.355   4.443   4.835  0.0611  0.4696 -0.1689
  111MOL   C12428944   2.985   4.439   5.113 -0.1805 -0.5761 -0.2384
  111MOL   H12528945   3.130   4.594   5.124 -1.8135  0.0452  0.8303
  111MOL   H12628946   3.109   4.498   4.853  2.4003  0.6548 -1.5538
  111MOL   H12728947   3.436   4.516   4.829  1.0576 -0.5861  0.3086
  111MOL   H12828948   3.393   4.341   4.843  0.6767  0.5660 -1.7072
  111MOL   H12928949   3.308   4.445   4.737 -0.2925 -0.4324 -0.0116
  111MOL   H13028950   2.901   4.483   5.167 -2.1266 -1.2081 -2.6204
  111MOL   H13128951   2.934   4.383   5.034 -2.5276  2.1309 -0.7560
  111MOL   C13228952   3.064   4.335   5.205 -0.1141 -0.7251  0.4273
  111MOL   N13328953   2.965   4.234   5.235  0.0175 -0.1191 -0.3641
  111MOL   C13428954   2.988   4.101   5.231  0.3706  0.3216  0.1667
  111MOL   O13528955   3.097   4.061   5.184 -0.5995 -0.1311  0.0524
  111MOL   C13628956   2.885   4.005   5.292 -0.0261  0.2243 -0.0646
  111MOL   C13728957   3.114   4.403   5.330  0.4534 -0.6572 -0.4236
  111MOL   H13828958   3.151   4.299   5.150  0.0487 -1.6551  1.3008
  111MOL   H13928959   2.886   4.253   5.294  1.4105 -1.1851  1.9157
  111MOL   H14028960   2.933   3.948   5.372 -0.3231 -2.9851 -2.0576
  111MOL   H14128961   2.799   4.052   5.338 -0.1440  0.6205 -0.6901
  111MOL   H14228962   2.853   3.932   5.217 -0.3559  1.1255 -0.8032
  111MOL   H14328963   3.175   4.491   5.309 -0.0223 -0.6938 -1.9846
  111MOL   H14428964   3.036   4.450   5.390  0.5341 -1.4611  0.3238
  111MOL   C14528965   3.206   4.317   5.428 -0.7890 -0.0129  0.6352
  111MOL   N14628966   3.180   4.343   5.567  0.3643 -0.0442 -0.8671
  111MOL   C14728967   3.173   4.456   5.634 -0.9334 -0.4994 -0.5531
  111MOL   O14828968   3.177   4.563   5.569  0.2653 -0.3119 -0.5123
  111MOL   C14928969   3.153   4.467   5.779  0.2918 -0.2470 -0.0373
  111MOL   C15028970   3.360   4.324   5.398  0.1549 -0.4035 -0.2013
  111MOL   H15128971   3.181   4.213   5.406 -0.1827  0.4799 -2.6703
  111MOL   H15228972   3.161   4.256   5.615  3.1924 -1.7527 -2.6876
  111MOL   H15328973   3.053   4.504   5.802  0.9487  0.6206  1.5044
  111MOL   H15428974   3.185   4.376   5.829  0.1949 -0.4265 -0.3041
  111MOL   H15528975   3.219   4.547   5.813  0.1168 -0.0597 -0.1335
  111MOL   H15628976   3.364   4.292   5.294 -1.7920 -0.5881 -0.2220
  111MOL   H15728977   3.375   4.432   5.397 -2.5020 -0.0177 -2.3768
  111MOL   C15828978   3.452   4.240   5.487 -0.1971 -0.0536  0.7319
  111MOL   N15928979   3.576   4.315   5.495 -0.2228  0.3558 -0.0921
  111MOL   C16028980   3.591   4.423   5.573 -0.8832 -0.7459  0.4371
  111MOL   O16128981   3.494   4.470   5.635  0.0083  0.2006 -0.0527
  111MOL   C16228982   3.730   4.490   5.573 -0.3991  0.1370  0.3575
  111MOL   C16328983   3.490   4.100   5.428  0.1379 -0.3367 -0.4812
  111MOL   H16428984   3.422   4.236   5.591 -2.3397 -1.4978  0.0924
  111MOL   H16528985   3.655   4.273   5.447  0.0389  1.1919 -0.4175
  111MOL   H16628986   3.728   4.577   5.638 -0.5343 -0.3474  1.0166
  111MOL   H16728987   3.815   4.431   5.608 -0.6865  0.1984  1.1831
  111MOL   H16828988   3.763   4.525   5.475 -0.0852 -0.4428  0.2530
  111MOL   H16928989   3.517   4.125   5.325 -0.5186  2.7737  0.0552
  111MOL   H17028990   3.575   4.067   5.487  1.4611  1.6348 -1.2357
  111MOL   C17128991   3.384   3.987   5.428 -0.8660 -0.1302 -0.6265
  111MOL   N17228992   3.361   3.964   5.568 -0.0413  0.2056 -0.3292
  111MOL   C17328993   3.260   3.999   5.645  0.5346  0.6014 -0.0787
  111MOL   O17428994   3.164   4.052   5.594  0.1976  0.7024 -0.3649
  111MOL   C17528995   3.272   3.978   5.795  0.6085  0.0228  0.7734
  111MOL   C17628996   3.432   3.857   5.358 -0.0545 -0.4247 -0.2843
  111MOL   H17728997   3.298   4.035   5.382  0.3661  1.3542 -1.4149
  111MOL   H17828998   3.424   3.903   5.619 -2.7990  1.7107  5.2537
  111MOL   H17928999   3.191   4.031   5.847 -0.9715 -2.5650  1.0404
  111MOL   H18029000   3.276   3.870   5.812 -0.2154 -0.3042 -1.0021
  111MOL   H18129001   3.361   4.030   5.831 -0.4783  1.1392  1.8858
  111MOL   H18229002   3.522   3.825   5.410 -0.1232  2.8637  1.9991
  111MOL   H18329003   3.348   3.789   5.378  0.6671 -1.5001 -0.8695
  111MOL   C18429004   3.473   3.861   5.214 -0.1112 -0.1362 -0.3672
  111MOL   N18529005   3.376   3.920   5.123 -0.4202 -0.2928  0.2776
  111MOL   C18629006   3.407   3.981   5.007 -0.1472 -0.9098 -0.6207
  111MOL   O18729007   3.509   3.964   4.949 -0.2299 -0.1543  0.1239
  111MOL   C18829008   3.304   4.075   4.952  0.5941  0.1031  0.0755
  111MOL   C18929009   3.543   3.733   5.156  0.0563  0.2586 -0.6657
  111MOL   H19029010   3.557   3.929   5.205  0.0946 -0.2994  0.2884
  111MOL   H19129011   3.293   3.963   5.163  0.6936  1.0625  1.1796
  111MOL   H19229012   3.335   4.096   4.850  0.3299  0.5556  0.0896
  111MOL   H19329013   3.212   4.018   4.937  0.4507 -0.0026  1.2600
  111MOL   H19429014   3.297   4.166   5.011 -1.0916 -0.4197  0.7094
  111MOL   H19529015   3.467   3.663   5.124 -0.3827  0.3028  0.2667
  111MOL   H19629016   3.589   3.768   5.063  1.9188  1.1556  0.5454
  111MOL   C19729017   3.651   3.662   5.242 -0.2231 -0.5575 -0.1053
  111MOL   N19829018   3.753   3.608   5.149 -0.2456 -0.3322  0.1151
  111MOL   C19929019   3.865   3.681   5.116  0.1907  0.3830 -0.3460
  111MOL   O20029020   3.883   3.800   5.133 -0.5437 -0.7456  0.0880
  111MOL   C20129021   3.965   3.600   5.037 -0.3809 -0.1601 -0.0599
  111MOL   C20229022   3.599   3.545   5.335  0.5218  0.2827 -0.2694
  111MOL   H20329023   3.700   3.739   5.302 -1.2933  0.8126 -0.9760
  111MOL   H20429024   3.746   3.516   5.108  0.7234 -1.2730  1.9767
  111MOL   H20529025   4.045   3.664   5.001 -1.3013  0.9490 -0.1440
  111MOL   H20629026   4.008   3.513   5.087  0.3487 -0.3397 -0.9869
  111MOL   H20729027   3.913   3.555   4.952  0.7821  0.0696 -0.8976
  111MOL   H20829028   3.507   3.584   5.379 -1.2157 -1.4019 -2.3186
  111MOL   H20929029   3.575   3.459   5.274  0.8418 -1.1614  1.5897
  111MOL   C21029030   3.683   3.507   5.458 -0.0464  0.7682 -0.2615
  111MOL   N21129031   3.817   3.460   5.428  0.1312  0.1963 -0.2459
  111MOL   C21229032   3.836   3.332   5.381 -0.8071  0.0022 -0.3025
  111MOL   O21329033   3.741   3.262   5.363 -0.2014  0.4656 -0.1391
  111MOL   C21429034   3.969   3.281   5.339 -0.1089  0.6841  0.0187
  111MOL   C21529035   3.619   3.413   5.563  1.0196 -0.5221 -0.2729
  111MOL   H21629036   3.704   3.604   5.504 -1.1938  0.5159  0.8064
  111MOL   H21729037   3.899   3.520   5.429  0.8557 -0.7777 -0.0595
  111MOL   H21829038   4.016   3.246   5.431  1.3053 -1.2991 -1.4128
  111MOL   H21929039   3.964   3.199   5.267 -0.4323  1.4654 -0.8692
  111MOL   H22029040   4.034   3.363   5.309 -1.1343  1.3426 -0.4285
  111MOL   H22129041   3.573   3.333   5.505 -1.2455 -1.1360  2.2872
  111MOL   H22229042   3.695   3.378   5.633  1.2493  1.0862  0.3159
  111MOL   C22329043   3.514   3.474   5.659  0.4017  0.2735  0.4083
  111MOL   N22429044   3.574   3.557   5.768 -0.0515 -0.2473 -0.2413
  111MOL   C22529045   3.565   3.689   5.783  0.5982  0.2493 -0.1484
  111MOL   O22629046   3.533   3.769   5.695 -0.1738  0.4203  0.3388
  111MOL   C22729047   3.585   3.739   5.930 -0.0944 -0.4312 -0.0457
  111MOL   C22829048   3.429   3.363   5.716  0.8422 -0.6129  0.6029
  111MOL   H22929049   3.456   3.540   5.595  2.1479 -0.3638 -1.8888
  111MOL   H23029050   3.597   3.512   5.856 -1.5683 -0.4329  0.0728
  111MOL   H23129051   3.661   3.682   5.984 -0.0899 -1.0097 -0.6592
  111MOL   H23229052   3.617   3.843   5.925 -1.1699 -0.1494 -1.2672
  111MOL   H23329053   3.495   3.732   5.991 -1.1579  0.2926 -1.4967
  111MOL   H23429054   3.486   3.270   5.725  0.1325 -1.1673 -0.5449
  111MOL   H23529055   3.405   3.392   5.819 -1.6585  1.1817 -0.4260
  111MOL   C23629056   3.294   3.348   5.641  0.7282 -0.0949 -0.8289
  111MOL   N23729057   3.217   3.475   5.606  0.0838 -0.2123  0.0894
  111MOL   C23829058   3.182   3.580   5.673 -0.0106  0.3274  0.1873
  111MOL   O23929059   3.217   3.603   5.787  0.8461 -0.1590 -0.0770
  111MOL   C24029060   3.100   3.679   5.594 -0.3902  0.4332  0.7446
  111MOL   C24129061   3.199   3.244   5.714  0.0368 -0.1066  0.2126
  111MOL   H24229062   3.323   3.314   5.542 -0.6444 -0.1964 -1.2009
  111MOL   H24329063   3.163   3.464   5.521  0.2360  0.4159 -0.0923
  111MOL   H24429064   3.174   3.716   5.523 -1.3812  1.0499  0.0261
  111MOL   H24529065   3.019   3.636   5.535  0.7692 -0.0663 -0.5095
  111MOL   H24629066   3.074   3.755   5.668 -2.6257  0.1605  0.2707
  111MOL   H24729067   3.257   3.167   5.765 -1.7462 -1.7617 -0.1599
  111MOL   H24829068   3.146   3.292   5.795 -1.1582  0.2763 -0.7785
  111MOL   C24929069   3.100   3.175   5.620  0.3660 -0.0614  0.8418
  111MOL   N25029070   2.977   3.252   5.590  0.0276 -0.1092  0.0810
  111MOL   C25129071   2.960   3.328   5.483  0.0218 -0.3937  0.4012
  111MOL   O25229072   3.046   3.340   5.396  0.0566 -0.2416  0.8771
  111MOL   C25329073   2.831   3.403   5.467  0.0299 -0.3380 -0.3165
  111MOL   C25429074   3.062   3.038   5.668  0.2191 -0.2929  0.8423
  111MOL   H25529075   3.155   3.149   5.529 -0.7129 -2.5427  0.8797
  111MOL   H25629076   2.894   3.238   5.646  0.8308 -2.3009  0.7822
  111MOL   H25729077   2.748   3.349   5.511 -0.6901  0.0580 -1.1674
  111MOL   H25829078   2.825   3.508   5.497  1.6836 -0.3150  0.0073
  111MOL   H25929079   2.805   3.403   5.361  2.0950  0.5601 -0.8746
  111MOL   H26029080   2.995   2.984   5.601 -0.4631  0.8935  0.5506
  111MOL   H26129081   3.154   2.982   5.681  0.7676 -0.0669 -1.8075
  111MOL   H26229082   3.020   3.044   5.769  1.7653  1.1136  1.4273
  112MOL     C129083   5.630   4.769   5.731 -0.1019 -0.1871 -0.1074
  112MOL     N229084   5.511   4.748   5.812 -0.1576  0.2367  0.3597
  112MOL     C329085   5.507   4.757   5.945 -0.1934 -0.2952  0.1256
  112MOL     O429086   5.607   4.789   6.011 -0.1805 -0.3710  0.3722
  112MOL     C529087   5.371   4.741   6.010 -0.1262  0.2387 -0.6030
  112MOL     C629088   5.609   4.819   5.589 -0.3118  0.1233 -0.2177
  112MOL     H729089   5.715   4.822   5.773  0.0551  1.0266 -1.9122
  112MOL     H829090   5.421   4.724   5.772  0.0848 -0.3308  0.1389
  112MOL     H929091   5.374   4.632   6.014  2.6360  0.2449 -1.6545
  112MOL    H1029092   5.366   4.786   6.109 -1.2993 -0.2531 -0.4268
  112MOL    H1129093   5.288   4.784   5.953 -0.5184  1.9662  1.2309
  112MOL    H1229094   5.707   4.825   5.541 -1.6360  0.8460 -2.8924
  112MOL    H1329095   5.541   4.758   5.530 -1.0314  1.9698 -1.3295
  112MOL    H1429096   5.668   4.667   5.722 -2.0245 -0.8755 -0.9059
  112MOL    C1529097   5.540   4.953   5.580  0.3303 -0.0619 -0.1246
  112MOL    N1629098   5.506   4.993   5.445 -0.3688 -0.0257 -0.0472
  112MOL    C1729099   5.590   5.015   5.336  0.4120  0.0474 -0.4271
  112MOL    O1829100   5.712   5.029   5.344 -0.2239  0.2134 -0.1903
  112MOL    C1929101   5.522   5.046   5.203  0.4377  0.7016  0.0284
  112MOL    C2029102   5.621   5.066   5.650  0.2067  0.2804 -0.5732
  112MOL    H2129103   5.441   4.935   5.624 -0.2044  1.0790 -0.8385
  112MOL    H2229104   5.408   4.986   5.424 -0.3518 -0.7880  0.1085
  112MOL    H2329105   5.601   5.055   5.128  1.2772 -2.7359  0.4194
  112MOL    H2429106   5.458   4.966   5.165  1.2349  0.8782 -1.7410
  112MOL    H2529107   5.468   5.140   5.202  0.9767  1.0112 -0.6224
  112MOL    H2629108   5.618   5.039   5.755  1.3564  0.5195 -0.4777
  112MOL    H2729109   5.727   5.068   5.628  0.6849 -2.3671  1.3230
  112MOL    C2829110   5.557   5.205   5.643 -0.1508 -0.8324  0.4415
  112MOL    N2929111   5.653   5.294   5.706 -0.6040 -0.2443  0.6713
  112MOL    C3029112   5.696   5.412   5.669 -0.2396  0.0362 -0.4592
  112MOL    O3129113   5.658   5.468   5.566  0.6918  1.1229  0.4110
  112MOL    C3229114   5.788   5.484   5.761 -0.0578  0.2614  0.0145
  112MOL    C3329115   5.413   5.215   5.694  0.2672 -0.7041  0.2863
  112MOL    H3429116   5.560   5.219   5.535  1.8180 -1.8215  0.3425
  112MOL    H3529117   5.686   5.262   5.796  0.5078 -1.8643 -0.2960
  112MOL    H3629118   5.865   5.415   5.794  0.9713  1.6764  0.6398
  112MOL    H3729119   5.826   5.575   5.715 -0.3632  0.4380  0.1129
  112MOL    H3829120   5.731   5.521   5.846 -0.0832 -0.1264  0.1634
  112MOL    H3929121   5.346   5.146   5.643  0.8216 -0.9994 -0.0350
  112MOL    H4029122   5.415   5.173   5.795 -0.4618  0.3945  0.7699
  112MOL    C4129123   5.331   5.356   5.682  0.2565 -0.0642 -0.9550
  112MOL    N4229124   5.368   5.419   5.553  0.4795  0.1294  0.3382
  112MOL    C4329125   5.303   5.393   5.436 -0.7462  0.0678 -0.3963
  112MOL    O4429126   5.199   5.328   5.424 -0.1768 -0.3731 -0.1564
  112MOL    C4529127   5.378   5.440   5.319  0.5360 -0.4036  0.4546
  112MOL    C4629128   5.349   5.454   5.808  0.2394 -0.0747 -0.1124
  112MOL    H4729129   5.225   5.331   5.674  0.0196  0.2503  0.9430
  112MOL    H4829130   5.455   5.466   5.531  1.2173 -1.2142  0.3034
  112MOL    H4929131   5.444   5.363   5.279 -0.6434 -1.4430  0.4541
  112MOL    H5029132   5.308   5.477   5.244 -0.7005 -2.9444  0.2802
  112MOL    H5129133   5.457   5.510   5.345 -0.1536  0.7350 -0.4472
  112MOL    H5229134   5.457   5.456   5.820  0.5285  0.6953 -2.6600
  112MOL    H5329135   5.328   5.556   5.777 -0.4527 -0.4693 -0.9454
  112MOL    C5429136   5.272   5.407   5.937  0.2636  0.0912 -0.4483
  112MOL    N5529137   5.131   5.413   5.919  0.1358 -0.5487  0.7094
  112MOL    C5629138   5.057   5.305   5.883  0.7085  0.1927 -0.1391
  112MOL    O5729139   5.098   5.196   5.850 -0.4208  0.1223 -0.3155
  112MOL    C5829140   4.909   5.321   5.906  0.6400 -0.1881 -0.0369
  112MOL    C5929141   5.307   5.487   6.067  0.4010 -0.3458  0.5154
  112MOL    H6029142   5.294   5.301   5.951  0.2782  0.0070 -1.1355
  112MOL    H6129143   5.093   5.505   5.937  0.2014 -0.4696  0.4457
  112MOL    H6229144   4.891   5.347   6.010  2.8645  0.7041  0.1403
  112MOL    H6329145   4.858   5.400   5.850 -0.6751  0.5475  2.1325
  112MOL    H6429146   4.848   5.233   5.887 -0.4678 -0.0779  2.7346
  112MOL    H6529147   5.286   5.593   6.055  0.3068 -0.2884  1.1665
  112MOL    H6629148   5.240   5.445   6.142  0.7373 -0.3565  0.8137
  112MOL    C6729149   5.454   5.456   6.111  0.5659 -0.1030  0.4333
  112MOL    N6829150   5.474   5.311   6.150 -0.9690 -0.5615 -0.3655
  112MOL    C6929151   5.586   5.239   6.120  0.6852  0.1041 -0.1395
  112MOL    O7029152   5.683   5.280   6.063 -0.3842 -0.3144 -0.3944
  112MOL    C7129153   5.590   5.098   6.169  0.4123  0.6803  0.1856
  112MOL    C7229154   5.497   5.551   6.215  0.2060  0.5666  0.6533
  112MOL    H7329155   5.510   5.483   6.021  2.8674  2.9991  2.7065
  112MOL    H7429156   5.405   5.266   6.209  0.9585 -2.7646  0.2744
  112MOL    H7529157   5.688   5.050   6.174  0.1235 -0.2516 -2.6340
  112MOL    H7629158   5.541   5.093   6.267  1.4922  1.5132  0.7720
  112MOL    H7729159   5.535   5.039   6.096 -1.8771  1.6528  1.0502
  112MOL    H7829160   5.476   5.651   6.177  0.9003  0.3902 -0.2069
  112MOL    H7929161   5.423   5.532   6.293 -0.6943 -1.3359 -0.6333
  112MOL    C8029162   5.642   5.550   6.271  0.5687 -0.1236  0.1775
  112MOL    N8129163   5.642   5.620   6.405 -0.5746  0.1576  0.4903
  112MOL    C8229164   5.607   5.573   6.522  1.0324 -0.4038 -0.0778
  112MOL    O8329165   5.572   5.458   6.530 -0.1959  0.5594  0.2779
  112MOL    C8429166   5.611   5.659   6.646  0.4276 -0.2214 -0.6555
  112MOL    C8529167   5.747   5.611   6.181 -0.1130 -0.2199 -0.1935
  112MOL    H8629168   5.663   5.445   6.286 -2.2402 -0.9691 -1.3030
  112MOL    H8729169   5.676   5.713   6.423  0.9422 -0.3968  0.6210
  112MOL    H8829170   5.514   5.656   6.695 -0.0541 -0.4417 -1.6098
  112MOL    H8929171   5.679   5.618   6.721  0.3483  3.2877  1.4458
  112MOL    H9029172   5.640   5.763   6.628  1.3460  0.0466  2.2092
  112MOL    H9129173   5.759   5.556   6.087  0.8313  0.3368 -0.4084
  112MOL    H9229174   5.703   5.706   6.151 -0.4768  0.1504  1.4869
  112MOL    C9329175   5.894   5.624   6.244  0.1676  0.2484  0.8687
  112MOL    N9429176   5.922   5.764   6.286 -0.3303 -0.2164  0.3869
  112MOL    C9529177   5.931   5.806   6.411 -0.8921 -0.1708  0.3061
  112MOL    O9629178   5.950   5.732   6.506  0.0457 -0.4504  0.5326
  112MOL    C9729179   5.940   5.959   6.429 -0.1951  0.5236 -0.1677
  112MOL    C9829180   6.002   5.573   6.152  0.5849  0.4733 -0.5547
  112MOL    H9929181   5.899   5.552   6.325 -0.9108 -0.7037  0.1038
  112MOL   H10029182   5.919   5.837   6.215 -0.7082 -1.1245 -0.5407
  112MOL   H10129183   5.846   6.014   6.439 -0.3151  0.0315  1.6123
  112MOL   H10229184   5.989   5.982   6.524 -2.0089  0.7815  0.7304
  112MOL   H10329185   5.988   6.007   6.344  0.3599  0.1049 -0.0913
  112MOL   H10429186   5.972   5.476   6.112  0.3478 -0.6929  2.3415
  112MOL   H10529187   6.005   5.644   6.069  0.9581  1.3844  0.2241
  112MOL   C10629188   6.150   5.570   6.203  0.6389 -0.3525 -0.1270
  112MOL   N10729189   6.238   5.641   6.101  1.2583  0.3723  0.2981
  112MOL   C10829190   6.266   5.770   6.104  0.0572 -0.8323  0.3738
  112MOL   O10929191   6.222   5.849   6.184  0.1044 -0.4011 -0.2208
  112MOL   C11029192   6.364   5.807   6.000 -0.8484 -0.5265 -0.0649
  112MOL   C11129193   6.204   5.429   6.222 -0.6399 -0.2102  0.1381
  112MOL   H11229194   6.151   5.623   6.298 -2.3393 -0.5573  0.0430
  112MOL   H11329195   6.276   5.583   6.027 -0.0680 -2.2804  1.6036
  112MOL   H11429196   6.336   5.905   5.961  0.2809  0.7337  2.2384
  112MOL   H11529197   6.470   5.818   6.023 -0.1309 -1.4598 -2.7320
  112MOL   H11629198   6.358   5.736   5.917 -1.3791  0.0479 -0.5287
  112MOL   H11729199   6.187   5.367   6.134 -0.1497 -0.0789 -0.0507
  112MOL   H11829200   6.313   5.436   6.217 -0.5243 -2.2442 -0.9334
  112MOL   C11929201   6.167   5.352   6.352  0.2868 -0.1231  0.5580
  112MOL   N12029202   6.282   5.268   6.396  0.5984 -0.0056  0.2175
  112MOL   C12129203   6.349   5.171   6.335  0.0016 -0.0728  0.9746
  112MOL   O12229204   6.321   5.147   6.218  0.5596  0.1649 -0.4712
  112MOL   C12329205   6.467   5.096   6.397 -0.3080  0.3917  0.1332
  112MOL   C12429206   6.032   5.277   6.323  0.8958  0.0558 -0.6039
  112MOL   H12529207   6.148   5.429   6.427 -0.8099  0.6850 -0.5202
  112MOL   H12629208   6.306   5.270   6.494 -1.3282  0.1901  0.7153
  112MOL   H12729209   6.459   4.995   6.437  1.2225  0.0788 -0.3127
  112MOL   H12829210   6.533   5.081   6.311 -0.9569  1.6272 -0.6055
  112MOL   H12929211   6.527   5.157   6.464 -0.7081  0.1292  0.7336
  112MOL   H13029212   5.952   5.339   6.282  1.2518 -1.1670 -3.2799
  112MOL   H13129213   6.046   5.211   6.237  0.3414 -1.1185  0.1890
  112MOL   C13229214   5.977   5.178   6.437 -0.2125 -0.1572  0.0290
  112MOL   N13329215   5.938   5.056   6.370 -0.5411  0.4243 -0.1402
  112MOL   C13429216   6.003   4.937   6.373 -0.4826 -1.0544  0.1175
  112MOL   O13529217   6.111   4.922   6.427  0.0302 -0.3438  0.6020
  112MOL   C13629218   5.933   4.823   6.299  0.2205  0.0794  0.1578
  112MOL   C13729219   5.850   5.223   6.507 -0.1419 -0.1305  0.8640
  112MOL   H13829220   6.058   5.156   6.507 -0.5410 -0.6535  0.2546
  112MOL   H13929221   5.847   5.055   6.326 -0.9481 -1.9672  0.6899
  112MOL   H14029222   5.881   4.858   6.210 -0.8610 -0.9491  0.3849
  112MOL   H14129223   6.014   4.757   6.268 -0.0260 -1.0804  1.9190
  112MOL   H14229224   5.881   4.767   6.376 -2.6194 -0.3136 -1.9725
  112MOL   H14329225   5.794   5.279   6.431  1.8655  0.4797 -0.1891
  112MOL   H14429226   5.792   5.131   6.520 -0.2417 -0.0329  1.1255
  112MOL   C14529227   5.869   5.297   6.648  0.4242 -0.1694  0.0466
  112MOL   N14629228   5.736   5.332   6.710 -0.4267  0.3851  0.3934
  112MOL   C14729229   5.679   5.284   6.821  0.3021  0.4917 -0.6579
  112MOL   O14829230   5.730   5.199   6.894 -0.3132  0.0325  0.0974
  112MOL   C14929231   5.535   5.327   6.855 -0.6630  0.0515 -0.2700
  112MOL   C15029232   5.952   5.427   6.645 -0.5916 -0.3057  0.2612
  112MOL   H15129233   5.920   5.217   6.701  0.2359 -0.9391 -0.9251
  112MOL   H15229234   5.679   5.397   6.657 -3.1684 -2.1398  0.1648
  112MOL   H15329235   5.488   5.349   6.758  0.5331 -1.0473 -1.1109
  112MOL   H15429236   5.483   5.246   6.906  0.0936  1.2793  2.5366
  112MOL   H15529237   5.525   5.417   6.915 -1.6418  0.7260 -1.3957
  112MOL   H15629238   6.047   5.389   6.605  0.7418  0.5054  2.5579
  112MOL   H15729239   5.914   5.494   6.568 -0.1062 -0.0002  0.2847
  112MOL   C15829240   5.973   5.505   6.783  0.1623 -0.6682 -0.3145
  112MOL   N15929241   5.980   5.649   6.750 -0.5408 -0.3376  0.2209
  112MOL   C16029242   5.984   5.753   6.837  0.5118  0.0985  0.1695
  112MOL   O16129243   6.004   5.741   6.958  0.0505  0.5062 -0.1234
  112MOL   C16229244   5.967   5.893   6.779 -0.8605 -0.3156 -0.8931
  112MOL   C16329245   6.104   5.458   6.858 -0.0872  0.3690 -0.6130
  112MOL   H16429246   5.877   5.506   6.835  0.7355 -0.8556  0.7486
  112MOL   H16529247   5.972   5.671   6.652 -0.4774  0.9533  0.5000
  112MOL   H16629248   5.880   5.902   6.714 -0.3353 -4.1062 -2.2466
  112MOL   H16729249   5.960   5.970   6.855  2.0471  1.1895 -2.0692
  112MOL   H16829250   6.045   5.913   6.705  0.8028  0.3006  0.9809
  112MOL   H16929251   6.185   5.451   6.785  0.0511  1.1012 -0.5371
  112MOL   H17029252   6.135   5.539   6.924  1.7491 -0.6614 -0.1631
  112MOL   C17129253   6.096   5.340   6.955  0.4593  0.0936  0.2609
  112MOL   N17229254   5.963   5.336   7.027  0.3147 -0.3496 -0.3663
  112MOL   C17329255   5.935   5.380   7.151  0.7147 -0.7424 -0.4834
  112MOL   O17429256   6.020   5.430   7.226  0.2164 -0.1163 -0.1739
  112MOL   C17529257   5.796   5.352   7.205  0.2616 -0.3149  0.3756
  112MOL   C17629258   6.225   5.320   7.039 -0.4171 -0.4101 -0.5364
  112MOL   H17729259   6.091   5.250   6.894  0.5277 -0.8227  1.5767
  112MOL   H17829260   5.888   5.281   6.989 -2.0993  1.3615  1.7610
  112MOL   H17929261   5.729   5.299   7.137  0.0171  1.5638 -0.8640
  112MOL   H18029262   5.806   5.291   7.295  0.5368 -1.1462 -0.2062
  112MOL   H18129263   5.752   5.445   7.241  0.5930 -0.9198  2.3900
  112MOL   H18229264   6.260   5.402   7.101 -0.5979  1.0218 -2.2731
  112MOL   H18329265   6.209   5.239   7.110 -3.2539  1.6101  1.2150
  112MOL   C18429266   6.344   5.280   6.950 -0.8643  0.5901  0.1710
  112MOL   N18529267   6.307   5.154   6.896 -0.5754 -0.2274 -0.0089
  112MOL   C18629268   6.300   5.128   6.767 -0.1335  0.2788 -0.0295
  112MOL   O18729269   6.334   5.202   6.675  0.0434 -0.0807  0.2036
  112MOL   C18829270   6.244   4.985   6.737  0.3390  0.1735  0.0445
  112MOL   C18929271   6.478   5.276   7.022  0.0384  0.2788 -0.0887
  112MOL   H19029272   6.352   5.345   6.863  0.5063 -1.3037 -1.1527
  112MOL   H19129273   6.308   5.074   6.958 -1.3874  0.0372  0.3509
  112MOL   H19229274   6.292   4.951   6.646 -1.0135 -1.4575 -0.0610
  112MOL   H19329275   6.265   4.916   6.819  0.2988  0.2895  0.1544
  112MOL   H19429276   6.137   4.984   6.720  0.3738  2.0642 -0.4148
  112MOL   H19529277   6.469   5.254   7.128  2.9404  3.4022  0.8968
  112MOL   H19629278   6.545   5.197   6.987  0.1747 -0.6725  2.2373
  112MOL   C19729279   6.552   5.409   7.032  0.0429 -0.5689  0.6393
  112MOL   N19829280   6.607   5.442   6.900 -0.2033 -0.7004  0.1197
  112MOL   C19929281   6.708   5.384   6.827 -0.5332 -0.7834  0.4002
  112MOL   O20029282   6.774   5.292   6.872  0.4377  0.2389  0.1260
  112MOL   C20129283   6.743   5.444   6.687 -0.5307  0.6102 -0.6730
  112MOL   C20229284   6.650   5.421   7.153 -0.3428 -0.0298 -0.6543
  112MOL   H20329285   6.476   5.485   7.050 -1.1579 -1.4455 -0.6440
  112MOL   H20429286   6.559   5.520   6.858 -0.3937 -2.1235 -2.3591
  112MOL   H20529287   6.659   5.432   6.618 -0.0600 -1.9035 -0.8443
  112MOL   H20629288   6.775   5.548   6.691  0.8458  0.1837 -0.4507
  112MOL   H20729289   6.827   5.382   6.656 -2.8177 -1.4568 -2.8987
  112MOL   H20829290   6.713   5.332   7.157 -1.5912 -0.8255  2.9893
  112MOL   H20929291   6.716   5.506   7.135  2.0731 -1.8690 -0.6757
  112MOL   C21029292   6.576   5.449   7.293 -0.4890  0.9876  0.2197
  112MOL   N21129293   6.531   5.589   7.290 -0.4553  0.1663 -0.5109
  112MOL   C21229294   6.420   5.637   7.343  0.3205 -0.3488 -0.1799
  112MOL   O21329295   6.385   5.751   7.317  0.0352  0.2119  0.1597
  112MOL   C21429296   6.330   5.548   7.428  0.8361 -0.9274 -1.0995
  112MOL   C21529297   6.664   5.424   7.413  0.0683 -0.4545  0.3102
  112MOL   H21629298   6.485   5.394   7.315  1.8247 -2.2693  2.2006
  112MOL   H21729299   6.579   5.662   7.239  1.0707 -2.0581 -2.3823
  112MOL   H21829300   6.380   5.470   7.484 -0.1536 -1.0502 -0.3677
  112MOL   H21929301   6.277   5.609   7.501  1.0910 -2.2775  0.2382
  112MOL   H22029302   6.247   5.505   7.370  0.0022  2.8354 -2.8491
  112MOL   H22129303   6.749   5.491   7.397 -0.2862  0.2124  1.2121
  112MOL   H22229304   6.605   5.462   7.496 -0.1719  1.3147 -0.6502
  112MOL   C22329305   6.734   5.280   7.429  0.7369 -0.1456 -0.4554
  112MOL   N22429306   6.647   5.175   7.379 -0.1596  0.7650 -0.1300
  112MOL   C22529307   6.695   5.067   7.314  0.5923  0.0957 -0.1889
  112MOL   O22629308   6.811   5.033   7.323 -0.1788 -0.4306 -0.7902
  112MOL   C22729309   6.599   4.969   7.260  0.2347  0.3767  0.3804
  112MOL   C22829310   6.779   5.251   7.576 -0.6757  0.3944 -0.6841
  112MOL   H22929311   6.826   5.281   7.371  1.1471  0.1022  0.1822
  112MOL   H23029312   6.547   5.183   7.391  0.0121  2.6005  0.2105
  112MOL   H23129313   6.605   4.880   7.322 -3.0392 -0.6698 -0.7164
  112MOL   H23229314   6.496   5.005   7.269  0.5528  2.5918 -3.7416
  112MOL   H23329315   6.622   4.950   7.155  1.2651 -1.3893  0.9065
  112MOL   H23429316   6.715   5.308   7.644  0.2408  0.0217  0.5066
  112MOL   H23529317   6.767   5.145   7.596 -2.1837  0.2535 -2.2042
  112MOL   C23629318   6.930   5.270   7.602  0.0026 -0.0626  0.1496
  112MOL   N23729319   7.008   5.206   7.501  0.1633 -0.1166 -0.0797
  112MOL   C23829320   7.135   5.233   7.480 -0.6199  0.0398 -0.7162
  112MOL   O23929321   7.202   5.318   7.543  0.8555 -0.3087  0.3060
  112MOL   C24029322   7.204   5.170   7.360 -0.0681 -0.2471  0.1227
  112MOL   C24129323   6.968   5.230   7.745 -0.3855  0.7375  0.7920
  112MOL   H24229324   6.945   5.377   7.589  1.2556 -0.1623  0.7056
  112MOL   H24329325   6.973   5.126   7.449 -1.6053  0.5186  0.0888
  112MOL   H24429326   7.261   5.245   7.307  2.4368 -1.1539  1.4673
  112MOL   H24529327   7.264   5.085   7.394 -0.2743 -0.0786  0.9350
  112MOL   H24629328   7.140   5.117   7.290  1.3280 -0.6830 -0.8260
  112MOL   H24729329   6.936   5.127   7.764  2.0744 -1.1216 -4.1342
  112MOL   H24829330   7.075   5.229   7.761 -0.2971 -0.0695  0.1746
  112MOL   C24929331   6.914   5.314   0.023  0.3369 -0.9803  0.2535
  112MOL   N25029332   6.947   5.461   0.012 -0.3631  0.0928  0.0103
  112MOL   C25129333   6.871   5.565   0.061  0.3821 -0.4489  0.0903
  112MOL   O25229334   6.762   5.555   0.113 -0.6140 -0.3949  0.5255
  112MOL   C25329335   6.935   5.703   0.055  0.0249  0.2207 -0.2284
  112MOL   C25429336   6.958   5.255   0.155 -0.0669 -0.1520 -0.3843
  112MOL   H25529337   6.806   5.313   0.005  0.0662  1.2221  1.5367
  112MOL   H25629338   7.028   5.481   7.795 -1.8449 -0.4148 -2.3575
  112MOL   H25729339   6.875   5.775   0.001 -2.3825 -0.8113  0.9860
  112MOL   H25829340   6.954   5.737   0.157  0.3950  0.3946 -0.3550
  112MOL   H25929341   7.037   5.700   0.017 -0.0037 -2.1509 -0.1725
  112MOL   H26029342   6.946   5.321   0.242  1.0283 -1.1280  0.5268
  112MOL   H26129343   6.910   5.161   0.182 -0.4813 -0.1572 -1.1376
  112MOL   H26229344   7.065   5.238   0.149  0.0147  0.7798 -1.7800
  113MOL     C129345   0.539   6.399   5.322 -0.1787  0.7449 -0.0323
  113MOL     N229346   0.523   6.540   5.298 -0.1857 -0.2070 -0.2228
  113MOL     C329347   0.554   6.604   5.182 -0.0085 -1.1566  0.5989
  113MOL     O429348   0.586   6.559   5.081  0.8473  0.3318  0.2960
  113MOL     C529349   0.524   6.753   5.188 -0.2300  0.0510 -0.3070
  113MOL     C629350   0.428   6.352   5.410 -0.4333  0.0690 -0.1058
  113MOL     H729351   0.550   6.334   5.235 -1.8631  0.5303 -0.1055
  113MOL     H829352   0.510   6.601   5.377 -1.0479  1.7585 -1.8203
  113MOL     H929353   0.583   6.801   5.110  0.2480 -2.6003 -1.6292
  113MOL    H1029354   0.423   6.786   5.161  1.3260  2.4412 -3.5918
  113MOL    H1129355   0.565   6.809   5.272 -2.6145  1.4317 -0.0007
  113MOL    H1229356   0.426   6.418   5.497 -2.0527 -1.5010  1.0903
  113MOL    H1329357   0.334   6.363   5.356 -0.2091 -0.2100 -0.5557
  113MOL    H1429358   0.630   6.381   5.379  0.2096 -1.1339 -1.2004
  113MOL    C1529359   0.457   6.211   5.466 -0.9509 -0.4624 -0.0503
  113MOL    N1629360   0.452   6.115   5.356 -0.0209  0.3768 -0.1135
  113MOL    C1729361   0.550   6.055   5.291 -0.9995  0.1045 -0.7310
  113MOL    O1829362   0.671   6.084   5.307 -0.1155  0.2243  0.5414
  113MOL    C1929363   0.504   5.945   5.192 -0.1616 -0.4933 -0.4228
  113MOL    C2029364   0.355   6.174   5.570 -0.1342  0.4903 -0.1734
  113MOL    H2129365   0.560   6.214   5.503 -0.3868  0.3605 -1.6244
  113MOL    H2229366   0.361   6.083   5.325  0.1029  1.6833 -1.9392
  113MOL    H2329367   0.537   5.847   5.227  0.0662  0.0568  0.9017
  113MOL    H2429368   0.397   5.938   5.173 -0.2845 -2.0396  0.7129
  113MOL    H2529369   0.558   5.964   5.100  2.1403  1.5195  1.2944
  113MOL    H2629370   0.358   6.244   5.654 -2.3867 -0.3502  0.6530
  113MOL    H2729371   0.256   6.183   5.527 -0.7452 -4.7470 -0.2446
  113MOL    C2829372   0.370   6.035   5.638  0.5656  0.1616  0.5828
  113MOL    N2929373   0.246   5.979   5.702 -0.0530  0.4446 -0.3365
  113MOL    C3029374   0.174   6.012   5.811  0.4020 -0.0303 -0.0210
  113MOL    O3129375   0.212   6.099   5.891  0.6046 -0.3084  0.3226
  113MOL    C3229376   0.046   5.928   5.837  0.1262 -0.2713  0.3237
  113MOL    C3329377   0.488   6.044   5.745  0.3821  0.2082 -0.1272
  113MOL    H3429378   0.396   5.969   5.555  0.2847 -0.3092  0.8684
  113MOL    H3529379   0.215   5.892   5.660 -0.7556  1.6027 -2.2792
  113MOL    H3629380   7.824   5.991   5.902 -0.8707  0.9449 -1.7698
  113MOL    H3729381   7.830   5.903   5.747  0.4294 -0.0834  0.0849
  113MOL    H3829382   0.078   5.837   5.888  0.0902  0.0138  0.8676
  113MOL    H3929383   0.581   6.073   5.696  0.7177 -0.2306  0.2360
  113MOL    H4029384   0.457   6.115   5.822  0.4192  0.2566 -0.1580
  113MOL    C4129385   0.518   5.918   5.813 -0.2272 -0.4375  0.0999
  113MOL    N4229386   0.610   5.948   5.927 -0.4556  0.4942 -0.3814
  113MOL    C4329387   0.572   5.948   6.060  0.4072 -0.1554  0.3600
  113MOL    O4429388   0.461   5.918   6.099  0.4583 -0.0655 -0.2221
  113MOL    C4529389   0.681   5.975   6.163 -0.0071  0.2054  0.3611
  113MOL    C4629390   0.582   5.812   5.716  0.2845 -0.0134  0.0598
  113MOL    H4729391   0.427   5.880   5.859 -1.6874  1.1846 -1.4226
  113MOL    H4829392   0.700   5.971   5.888 -0.5252  0.6522 -0.4499
  113MOL    H4929393   0.780   5.982   6.119  0.1193  0.9821  0.7625
  113MOL    H5029394   0.665   6.068   6.217 -0.1495 -0.6181  1.7408
  113MOL    H5129395   0.672   5.886   6.224 -0.4580 -0.0767 -0.1085
  113MOL    H5229396   0.506   5.784   5.644  1.5280 -1.2625 -0.7798
  113MOL    H5329397   0.651   5.869   5.654 -0.0251 -1.0900 -1.2928
  113MOL    C5429398   0.662   5.689   5.774  0.0119  0.1493  0.5634
  113MOL    N5529399   0.765   5.640   5.678 -0.3032 -0.1324 -0.4010
  113MOL    C5629400   0.741   5.614   5.551  0.6063 -0.0230 -0.7371
  113MOL    O5729401   0.626   5.610   5.508  0.0914  0.1332 -0.2540
  113MOL    C5829402   0.856   5.597   5.454  0.0236 -0.6989  0.0407
  113MOL    C5929403   0.579   5.579   5.832 -0.0084 -0.2429 -0.2527
  113MOL    H6029404   0.728   5.722   5.854  2.7443 -1.2698 -1.0382
  113MOL    H6129405   0.862   5.652   5.703 -0.2399  0.1531 -0.7684
  113MOL    H6229406   0.936   5.531   5.488 -1.4560 -2.6541 -0.2235
  113MOL    H6329407   0.825   5.550   5.360  0.8772 -0.4649 -0.3731
  113MOL    H6429408   0.899   5.696   5.435 -0.2133 -0.4576  0.7642
  113MOL    H6529409   0.534   5.619   5.923  3.9085  1.0196  1.2222
  113MOL    H6629410   0.491   5.555   5.772 -0.6796  1.2342  0.1320
  113MOL    C6729411   0.646   5.446   5.878 -0.8142 -0.0599 -0.5971
  113MOL    N6829412   0.541   5.358   5.934 -0.3135 -0.1362 -0.3276
  113MOL    C6929413   0.467   5.277   5.856 -0.0729 -0.7199 -0.4258
  113MOL    O7029414   0.467   5.295   5.730 -0.0547  0.4843 -0.1653
  113MOL    C7129415   0.389   5.167   5.925  0.0377 -0.1873  0.2744
  113MOL    C7229416   0.753   5.460   5.988  0.7183  0.4682 -0.1526
  113MOL    H7329417   0.698   5.397   5.796 -1.3688 -2.2862  0.3247
  113MOL    H7429418   0.547   5.333   6.032  1.0967  1.0851 -0.0809
  113MOL    H7529419   0.286   5.200   5.942  0.6683  1.5683  0.8086
  113MOL    H7629420   0.399   5.071   5.874 -1.0443  1.0245 -2.2715
  113MOL    H7729421   0.427   5.143   6.024 -0.9722 -3.5670 -0.1064
  113MOL    H7829422   0.820   5.543   5.969  0.4628  1.2135  2.1016
  113MOL    H7929423   0.709   5.506   6.076  1.9104  0.5422  0.4200
  113MOL    C8029424   0.828   5.338   6.036 -0.2359  0.2418 -0.8132
  113MOL    N8129425   0.941   5.382   6.115  0.1298 -0.4376  0.3304
  113MOL    C8229426   0.985   5.325   6.229 -0.5043 -0.0337  0.1235
  113MOL    O8329427   0.927   5.229   6.273 -0.3614  0.5902 -0.1072
  113MOL    C8429428   1.106   5.380   6.297 -0.1399  0.0149  0.6761
  113MOL    C8529429   0.877   5.249   5.925  0.0056 -0.0696 -0.5657
  113MOL    H8629430   0.754   5.284   6.094  0.1134  1.4977  0.8455
  113MOL    H8729431   0.988   5.464   6.079 -1.5788  1.0446  1.4006
  113MOL    H8829432   1.193   5.318   6.277  0.1172  0.7499 -0.6072
  113MOL    H8929433   1.131   5.480   6.260  1.5273 -0.1130  1.4390
  113MOL    H9029434   1.089   5.386   6.404  0.9314 -0.7320  0.8859
  113MOL    H9129435   0.938   5.174   5.976  0.2392  0.9021  0.6191
  113MOL    H9229436   0.787   5.205   5.882 -3.0957  1.9978  3.4616
  113MOL    C9329437   0.970   5.304   5.810  0.3827 -0.1187 -0.4638
  113MOL    N9429438   0.909   5.284   5.679  0.1545 -0.3017 -0.4865
  113MOL    C9529439   0.876   5.173   5.621 -0.1716  0.4422 -0.0130
  113MOL    O9629440   0.907   5.061   5.658  0.2366 -0.2310 -0.8909
  113MOL    C9729441   0.787   5.190   5.503 -0.5355 -0.0480 -0.1448
  113MOL    C9829442   1.118   5.262   5.809  0.0604 -0.1195  0.3132
  113MOL    H9929443   0.975   5.413   5.815  1.9609 -0.2131  0.3670
  113MOL   H10029444   0.885   5.362   5.621  0.3057  0.0024 -0.1467
  113MOL   H10129445   0.694   5.219   5.551 -0.8840 -1.3625 -0.0055
  113MOL   H10229446   0.825   5.265   5.433 -0.0333 -1.4673 -1.4307
  113MOL   H10329447   0.770   5.095   5.454  0.6255 -0.5344  0.3604
  113MOL   H10429448   1.116   5.154   5.821 -1.6997 -0.1537 -0.1021
  113MOL   H10529449   1.161   5.273   5.710  1.5240  0.0928  0.9600
  113MOL   C10629450   1.225   5.319   5.908  0.3490 -1.0716 -0.4686
  113MOL   N10729451   1.266   5.449   5.862 -0.9658 -0.2319  0.5909
  113MOL   C10829452   1.218   5.569   5.901 -0.4184  0.8866 -0.1295
  113MOL   O10929453   1.120   5.580   5.978  0.4542  0.3068 -0.2136
  113MOL   C11029454   1.294   5.686   5.840  0.3249  0.0370  0.0360
  113MOL   C11129455   1.339   5.224   5.938 -0.0169 -0.1542  0.2854
  113MOL   H11229456   1.160   5.338   5.993 -0.5052  0.3053 -1.4088
  113MOL   H11329457   1.340   5.450   5.794  0.5502 -0.8936  2.2204
  113MOL   H11429458   1.270   5.773   5.901  0.6866  0.1681 -0.0068
  113MOL   H11529459   1.399   5.668   5.864  0.1451 -1.3890 -0.1925
  113MOL   H11629460   1.272   5.693   5.734 -2.2122 -1.1819  0.4267
  113MOL   H11729461   1.294   5.135   5.983  1.0518 -0.7503  0.1849
  113MOL   H11829462   1.377   5.187   5.843 -0.4245  0.0604  0.0371
  113MOL   C11929463   1.460   5.272   6.012 -0.2692 -0.1429  0.3867
  113MOL   N12029464   1.545   5.162   6.048 -0.3714  0.0381  0.2205
  113MOL   C12129465   1.534   5.066   6.135  0.5093  0.2451  0.6446
  113MOL   O12229466   1.428   5.052   6.206  0.1113 -0.4130  0.3410
  113MOL   C12329467   1.642   4.967   6.135 -0.2104 -0.0690 -0.6617
  113MOL   C12429468   1.441   5.363   6.131 -0.2429 -0.0857 -0.2162
  113MOL   H12529469   1.513   5.338   5.942 -2.1714  1.0494  0.0304
  113MOL   H12629470   1.635   5.172   6.003 -0.1417 -1.5532  0.2838
  113MOL   H12729471   1.676   4.954   6.237 -0.8243 -1.8257 -0.6552
  113MOL   H12829472   1.599   4.882   6.080  0.0933  1.0268 -2.6338
  113MOL   H12929473   1.734   4.988   6.081  0.4236  1.2612  0.9141
  113MOL   H13029474   1.373   5.442   6.100 -1.4764 -1.1408 -0.2035
  113MOL   H13129475   1.379   5.308   6.202  0.3925 -0.9790 -0.3386
  113MOL   C13229476   1.565   5.427   6.191 -0.3069  0.1625  0.0052
  113MOL   N13329477   1.544   5.471   6.324 -0.1149 -0.7035 -0.2217
  113MOL   C13429478   1.631   5.488   6.424  0.1669 -0.0886 -0.8363
  113MOL   O13529479   1.751   5.475   6.403  0.1016  0.1781  0.3523
  113MOL   C13629480   1.586   5.501   6.570  0.4585 -0.1380 -0.0260
  113MOL   C13729481   1.633   5.543   6.116 -0.8234 -0.7796  0.3135
  113MOL   H13829482   1.637   5.346   6.205 -0.8230 -0.8257 -2.6395
  113MOL   H13929483   1.452   5.510   6.342  1.3440  2.4263  0.6884
  113MOL   H14029484   1.614   5.600   6.605 -3.1781  0.3697  1.7323
  113MOL   H14129485   1.477   5.498   6.571  0.5101 -3.0940  0.9236
  113MOL   H14229486   1.624   5.434   6.647  0.7287  0.1481  0.0889
  113MOL   H14329487   1.553   5.593   6.062  0.3661 -1.1009 -1.7917
  113MOL   H14429488   1.672   5.617   6.186 -1.5728  0.1748 -0.2656
  113MOL   C14529489   1.755   5.493   6.030 -0.3667 -0.5995  0.2678
  113MOL   N14629490   1.847   5.417   6.113 -0.2256 -0.0298  0.1556
  113MOL   C14729491   1.891   5.294   6.091  0.0954  0.6254  0.1672
  113MOL   O14829492   1.854   5.224   5.997  0.0778  0.2204 -0.3025
  113MOL   C14929493   1.971   5.233   6.200  0.1835  0.5225  0.2818
  113MOL   C15029494   1.830   5.609   5.955  0.2928  0.3643  0.1802
  113MOL   H15129495   1.722   5.421   5.955 -0.5724 -0.5691  0.3272
  113MOL   H15229496   1.890   5.463   6.192  1.3371 -0.0271 -0.6639
  113MOL   H15329497   2.055   5.297   6.225  0.3426  0.1963  0.5808
  113MOL   H15429498   1.908   5.226   6.289 -2.3343 -1.6910 -1.5687
  113MOL   H15529499   2.003   5.131   6.179 -2.3479 -0.5822  1.5141
  113MOL   H15629500   1.857   5.690   6.024 -2.7914  0.0787  1.8452
  113MOL   H15729501   1.931   5.580   5.928  0.0415  0.0053 -0.3709
  113MOL   C15829502   1.760   5.676   5.833 -0.1244  0.6304 -0.3860
  113MOL   N15929503   1.648   5.770   5.860 -0.9044 -0.4957 -0.2454
  113MOL   C16029504   1.613   5.880   5.797 -0.0360 -1.1113  1.0332
  113MOL   O16129505   1.673   5.913   5.689  0.2827  0.4250 -0.5111
  113MOL   C16229506   1.497   5.969   5.840 -0.1282 -0.4344 -0.5959
  113MOL   C16329507   1.730   5.585   5.708  0.5407  0.6570  0.4912
  113MOL   H16429508   1.836   5.742   5.792  0.6046  1.2150  1.8354
  113MOL   H16529509   1.604   5.774   5.951  1.5385  0.8095  0.9308
  113MOL   H16629510   1.548   6.060   5.870 -0.6399 -0.0166 -0.9719
  113MOL   H16729511   1.433   6.002   5.758 -2.2565 -0.6509  0.9533
  113MOL   H16829512   1.439   5.923   5.920 -1.4830  0.5298 -1.0157
  113MOL   H16929513   1.660   5.511   5.748  1.4791  0.1161  1.1418
  113MOL   H17029514   1.677   5.646   5.634  0.4867 -1.1423 -0.9755
  113MOL   C17129515   1.838   5.483   5.663  0.4256  0.0963 -0.3534
  113MOL   N17229516   1.951   5.552   5.607  0.7192 -0.1353 -0.5460
  113MOL   C17329517   2.072   5.558   5.662  0.7327  0.7817 -0.5344
  113MOL   O17429518   2.090   5.517   5.776 -0.1555  0.1373 -0.0323
  113MOL   C17529519   2.176   5.598   5.561 -1.1000  0.5610 -0.2206
  113MOL   C17629520   1.781   5.386   5.562 -0.3302 -0.1792  0.4188
  113MOL   H17729521   1.873   5.418   5.743  0.8645 -1.6029 -1.8989
  113MOL   H17829522   1.947   5.568   5.508  0.5950 -0.9956 -0.6864
  113MOL   H17929523   2.256   5.641   5.621 -0.9732 -0.7982  0.6138
  113MOL   H18029524   2.218   5.509   5.513 -0.0117  0.6281  0.5985
  113MOL   H18129525   2.130   5.661   5.485 -0.6219 -0.5035 -1.4180
  113MOL   H18229526   1.714   5.312   5.605 -1.5146  0.3061 -0.5809
  113MOL   H18329527   1.709   5.438   5.499  1.5918  1.1928 -0.7329
  113MOL   C18429528   1.873   5.320   5.456 -0.7353 -0.7615  0.9384
  113MOL   N18529529   1.884   5.404   5.332  0.5490  0.2518 -0.0008
  113MOL   C18629530   1.997   5.432   5.263 -0.0818  0.0521  0.0871
  113MOL   O18729531   2.106   5.407   5.314 -0.4093  0.1466 -0.2452
  113MOL   C18829532   1.994   5.498   5.136 -0.4130 -0.2094 -0.2560
  113MOL   C18929533   1.821   5.177   5.434 -0.7873  0.1997  0.3441
  113MOL   H19029534   1.972   5.309   5.500 -0.0572  0.7808 -0.1697
  113MOL   H19129535   1.798   5.436   5.291  1.8754  2.8967 -0.8152
  113MOL   H19229536   2.091   5.487   5.088 -1.9831 -0.1361 -3.6492
  113MOL   H19329537   1.906   5.459   5.085 -1.5733 -0.7086  2.0623
  113MOL   H19429538   1.985   5.607   5.145 -0.8961 -0.3034  0.3972
  113MOL   H19529539   1.817   5.121   5.527  1.4978 -1.4193 -0.4903
  113MOL   H19629540   1.722   5.190   5.391 -1.0097 -0.8388  0.5228
  113MOL   C19729541   1.899   5.091   5.335 -0.2764 -0.5113  0.1176
  113MOL   N19829542   1.850   4.956   5.325  0.5588  0.0256  0.0292
  113MOL   C19929543   1.752   4.902   5.253  0.0943  0.7616 -0.4282
  113MOL   O20029544   1.677   4.962   5.184 -0.1527  0.6364 -0.7479
  113MOL   C20129545   1.736   4.750   5.270  0.0079 -0.2446  0.3729
  113MOL   C20229546   2.049   5.071   5.363  0.2753 -0.6760  0.3114
  113MOL   H20329547   1.891   5.128   5.233  1.7016  0.3746  0.2571
  113MOL   H20429548   1.909   4.885   5.367 -1.7790 -2.7362 -1.1813
  113MOL   H20529549   1.828   4.704   5.306  0.0585 -0.1605  0.3501
  113MOL   H20629550   1.639   4.720   5.310  0.3748 -0.5138  1.0660
  113MOL   H20729551   1.730   4.706   5.170 -1.1579 -1.7513  1.0952
  113MOL   H20829552   2.076   5.151   5.432 -0.6370 -0.3237  0.2602
  113MOL   H20929553   2.067   4.978   5.417 -0.9186 -0.9292  0.2940
  113MOL   C21029554   2.140   5.069   5.234 -0.1761 -0.8179  0.9015
  113MOL   N21129555   2.122   4.946   5.164 -0.4916 -0.3794 -0.2073
  113MOL   C21229556   2.116   4.917   5.032 -0.4958  0.0106  0.0243
  113MOL   O21329557   2.120   5.012   4.950 -0.3570 -0.0365 -0.0235
  113MOL   C21429558   2.096   4.771   4.996  0.0926 -0.4179 -0.0080
  113MOL   C21529559   2.291   5.094   5.267  0.0432  0.7120  0.2685
  113MOL   H21629560   2.104   5.153   5.175 -0.3181 -0.8739  0.9067
  113MOL   H21729561   2.117   4.865   5.224 -0.9317  0.2385  0.5858
  113MOL   H21829562   2.166   4.713   5.056  0.7792  1.7988  1.3934
  113MOL   H21929563   1.995   4.731   4.994  0.6479 -1.8933  0.5318
  113MOL   H22029564   2.124   4.768   4.890  2.5499 -0.5939  0.6225
  113MOL   H22129565   2.296   5.175   5.340  0.7371 -0.9433  2.0791
  113MOL   H22229566   2.338   5.009   5.316  1.4670  2.5337  2.1243
  113MOL   C22329567   2.380   5.140   5.154  0.4958 -0.1232  0.1306
  113MOL   N22429568   2.511   5.091   5.178  0.0114 -0.5670  0.3845
  113MOL   C22529569   2.584   5.019   5.092 -0.5637  0.3022  0.2340
  113MOL   O22629570   2.546   4.975   4.984 -0.0064  0.3808 -0.3436
  113MOL   C22729571   2.720   4.977   5.146 -0.1353 -0.1602  0.5526
  113MOL   C22829572   2.368   5.294   5.141 -0.1960  0.0513  0.5520
  113MOL   H22929573   2.342   5.086   5.067  0.1907  0.4844 -0.1215
  113MOL   H23029574   2.543   5.094   5.274  0.6968  0.1068  0.1371
  113MOL   H23129575   2.731   4.869   5.155  0.8343 -0.2129 -1.0039
  113MOL   H23229576   2.806   5.008   5.087 -1.3646  0.8342 -0.7477
  113MOL   H23329577   2.733   5.016   5.247  0.4493  0.7489  0.1356
  113MOL   H23429578   2.263   5.324   5.152  0.4308  1.8454  1.9714
  113MOL   H23529579   2.409   5.330   5.235 -0.7382 -0.2070  0.8907
  113MOL   C23629580   2.431   5.369   5.020 -0.1172 -0.1626  0.3404
  113MOL   N23729581   2.415   5.517   5.050  0.6367 -0.2101 -0.2647
  113MOL   C23829582   2.378   5.624   4.972 -0.3188 -0.0788  0.2776
  113MOL   O23929583   2.358   5.625   4.851 -0.3625 -0.4884  0.1199
  113MOL   C24029584   2.363   5.759   5.048  0.0090  0.2677 -0.0234
  113MOL   C24129585   2.375   5.317   4.884  0.5782 -0.7824  0.2673
  113MOL   H24229586   2.539   5.352   5.019 -0.4642 -2.5632 -1.5194
  113MOL   H24329587   2.441   5.537   5.146  1.2816  0.7063 -0.6324
  113MOL   H24429588   2.274   5.770   5.110  0.2465 -0.0500  0.3823
  113MOL   H24529589   2.426   5.766   5.137  0.3113 -3.4202  0.1405
  113MOL   H24629590   2.371   5.852   4.992  2.5482  0.6962  1.0051
  113MOL   H24729591   2.333   5.217   4.890 -0.1516 -0.5073 -0.0948
  113MOL   H24829592   2.288   5.371   4.844  0.3986 -1.2711 -0.0045
  113MOL   C24929593   2.483   5.319   4.766  0.7222  0.1368  0.1634
  113MOL   N25029594   2.520   5.453   4.726 -0.3810 -0.8320  0.5156
  113MOL   C25129595   2.637   5.480   4.661  0.6310 -0.2746 -0.0330
  113MOL   O25229596   2.721   5.399   4.630 -0.2792  0.7690  0.5465
  113MOL   C25329597   2.676   5.625   4.637  0.3601  0.0184 -0.1281
  113MOL   C25429598   2.420   5.261   4.640  0.4533 -0.2311 -0.4189
  113MOL   H25529599   2.562   5.254   4.806 -0.3500  0.0033  2.1512
  113MOL   H25629600   2.471   5.526   4.775 -0.6850 -2.2088  2.3140
  113MOL   H25729601   2.624   5.689   4.708 -1.5700 -0.8167 -0.7550
  113MOL   H25829602   2.784   5.638   4.638  0.4914 -1.0740 -0.1068
  113MOL   H25929603   2.635   5.641   4.537 -2.0339 -2.5483  0.3935
  113MOL   H26029604   2.471   5.296   4.550 -1.1471  1.8973 -0.5078
  113MOL   H26129605   2.405   5.153   4.634  0.5455 -0.2332 -0.6003
  113MOL   H26229606   2.323   5.309   4.629  0.8225  1.0852  1.8214
  114MOL     C129607   1.387   0.410   0.060 -0.2441 -0.2272  0.4242
  114MOL     N229608   1.363   0.313   7.794  1.1182 -0.2834 -0.4851
  114MOL     C329609   1.397   0.342   7.668  0.1177  0.0605  0.3799
  114MOL     O429610   1.471   0.432   7.632 -0.1176  0.4820 -0.0470
  114MOL     C529611   1.332   0.259   7.556  0.1501 -0.3601 -0.2753
  114MOL     C629612   1.276   0.518   0.054 -0.0835  0.4768  0.6151
  114MOL     H729613   1.397   0.363   0.158  1.9192 -1.7591 -0.4876
  114MOL     H829614   1.301   0.236   7.817  1.4312 -0.5710 -0.5950
  114MOL     H929615   1.400   0.249   7.472 -0.1253  1.3463 -0.7132
  114MOL    H1029616   1.303   0.158   7.586 -0.3554  0.1090  0.8514
  114MOL    H1129617   1.245   0.315   7.520  0.7302  1.2917  0.8217
  114MOL    H1229618   1.290   0.571   7.800  2.2756 -0.9273  0.1573
  114MOL    H1329619   1.178   0.469   0.051 -0.1525  0.5858  1.0104
  114MOL    H1429620   1.488   0.449   0.045 -0.2618  0.0436  0.9939
  114MOL    C1529621   1.284   0.633   0.163 -0.6991 -0.5121  0.2388
  114MOL    N1629622   1.400   0.716   0.146 -0.4158  0.3025  0.2488
  114MOL    C1729623   1.410   0.836   0.083  0.2080 -0.3947 -0.2779
  114MOL    O1829624   1.329   0.884   0.006  0.1553  0.4270 -0.1571
  114MOL    C1929625   1.535   0.907   0.108 -0.2299 -0.4304  0.4003
  114MOL    C2029626   1.251   0.596   0.308 -0.4781 -0.3938 -0.6546
  114MOL    H2129627   1.207   0.706   0.137  0.4775  1.5579  2.3646
  114MOL    H2229628   1.484   0.676   0.186 -2.1699 -1.7470  1.9745
  114MOL    H2329629   1.578   0.944   0.015  2.0529 -1.3046  1.0832
  114MOL    H2429630   1.528   0.993   0.175  1.9664 -1.7849  2.4173
  114MOL    H2529631   1.601   0.836   0.157 -1.0711 -1.5455 -0.0555
  114MOL    H2629632   1.333   0.535   0.346  0.1539  1.5592  1.2565
  114MOL    H2729633   1.253   0.690   0.364 -0.7752 -0.5957 -0.2988
  114MOL    C2829634   1.114   0.529   0.329 -0.4142 -0.3005  0.0047
  114MOL    N2929635   1.016   0.616   0.395  0.1633 -0.7239  0.1573
  114MOL    C3029636   1.013   0.661   0.523 -0.0134 -0.5631 -0.7269
  114MOL    O3129637   1.102   0.647   0.605 -0.4146  0.4508  0.1581
  114MOL    C3229638   0.894   0.748   0.567  0.1652  0.0063  0.1544
  114MOL    C3329639   1.123   0.386   0.397 -0.2574 -0.2814  0.3312
  114MOL    H3429640   1.065   0.515   0.233 -1.6280 -2.4628  0.9359
  114MOL    H3529641   0.943   0.644   0.331  0.2928  0.1950  0.4036
  114MOL    H3629642   0.837   0.793   0.485  2.7505  0.5549 -1.3750
  114MOL    H3729643   0.818   0.706   0.633  0.2657  2.1854  1.7307
  114MOL    H3829644   0.932   0.840   0.610 -1.4121 -0.2692  2.2273
  114MOL    H3929645   1.208   0.336   0.350 -0.0741 -0.0649  0.4320
  114MOL    H4029646   1.138   0.393   0.504  0.5098 -0.0838  0.2144
  114MOL    C4129647   1.004   0.292   0.370 -0.2027  0.1670 -0.0709
  114MOL    N4229648   0.894   0.328   0.459 -0.6396  1.1299  0.2696
  114MOL    C4329649   0.770   0.335   0.416 -0.3322 -0.2400  0.1586
  114MOL    O4429650   0.734   0.291   0.305 -0.7785  0.1692 -0.9047
  114MOL    C4529651   0.682   0.410   0.512 -0.4040 -0.2199 -0.4911
  114MOL    C4629652   1.026   0.146   0.404  0.1944 -0.0384  0.2315
  114MOL    H4729653   0.975   0.302   0.266 -0.3452 -0.8853 -0.1369
  114MOL    H4829654   0.916   0.339   0.557 -2.4256 -0.4501  0.8690
  114MOL    H4929655   0.614   0.478   0.462 -0.7656  1.1502  1.7921
  114MOL    H5029656   0.628   0.342   0.578 -1.6171 -1.3209 -2.5743
  114MOL    H5129657   0.742   0.478   0.572  1.6580 -1.8975 -0.5848
  114MOL    H5229658   1.086   0.144   0.495  3.3985 -2.4305 -1.8240
  114MOL    H5329659   0.933   0.098   0.435  0.3135  0.4892  1.4393
  114MOL    C5429660   1.087   0.064   0.291 -0.1453  0.3526 -0.5208
  114MOL    N5529661   1.003   0.071   0.169 -0.8463  0.1325  0.8010
  114MOL    C5629662   1.056   0.102   0.049  0.2962 -0.3154 -0.9712
  114MOL    O5729663   1.175   0.127   0.033  0.8019  0.6478  0.0096
  114MOL    C5829664   0.957   0.132   7.778 -0.4097 -0.3594  0.6601
  114MOL    C5929665   1.113   7.752   0.323  0.0385 -0.1903 -0.1562
  114MOL    H6029666   1.182   0.115   0.277  0.8684 -0.3501  3.2433
  114MOL    H6129667   0.905   0.051   0.182 -0.5269  0.2067  3.6698
  114MOL    H6229668   0.904   0.047   7.737  2.0293 -2.2190  1.2693
  114MOL    H6329669   0.878   0.195   7.819 -0.6944 -1.8167  2.3763
  114MOL    H6429670   0.989   0.197   7.697 -2.2901  1.2309  1.1544
  114MOL    H6529671   1.022   7.695   0.339 -0.6122  1.2399  1.3032
  114MOL    H6629672   1.160   7.701   0.239  0.4828  0.1006 -0.0863
  114MOL    C6729673   1.200   7.732   0.448  0.0902 -0.0907  0.6061
  114MOL    N6829674   1.295   7.624   0.421  0.3753 -0.3241 -0.1037
  114MOL    C6929675   1.411   7.634   0.352 -0.2785 -0.4437  0.7374
  114MOL    O7029676   1.428   7.739   0.286 -0.1801 -0.7320 -0.3364
  114MOL    C7129677   1.512   7.521   0.356  0.5875 -0.2208 -0.2413
  114MOL    C7229678   1.116   7.706   0.578 -0.5772 -0.2887  0.7119
  114MOL    H7329679   1.261   7.821   0.461  1.7350 -1.2102  0.6618
  114MOL    H7429680   1.279   7.532   0.461 -0.4968  0.6506  1.8480
  114MOL    H7529681   1.545   7.494   0.256  0.5562 -0.1042 -0.2832
  114MOL    H7629682   1.597   7.566   0.408  1.2713 -2.1419  0.3562
  114MOL    H7729683   1.478   7.433   0.409 -0.7546 -1.4600 -3.0847
  114MOL    H7829684   1.028   7.769   0.562  0.9504  1.4709 -0.8964
  114MOL    H7929685   1.079   7.603   0.576 -0.5072 -0.3119 -1.7020
  114MOL    C8029686   1.189   7.739   0.709 -0.3987  0.0378  0.2432
  114MOL    N8129687   1.305   7.645   0.739  0.5640  0.8321  0.3189
  114MOL    C8229688   1.403   7.659   0.823  0.8949  0.2029 -0.0979
  114MOL    O8329689   1.414   7.759   0.896 -0.0193  0.4802 -0.6863
  114MOL    C8429690   1.512   7.556   0.831 -0.4381 -0.2643 -0.0541
  114MOL    C8529691   1.082   7.733   0.819  0.2503  0.0132  0.2331
  114MOL    H8629692   1.241   7.833   0.693  2.7455 -1.5439  0.9053
  114MOL    H8729693   1.302   7.556   0.691  0.3212  1.4352 -0.8082
  114MOL    H8829694   1.573   7.563   0.921 -0.1149 -2.7361 -0.0408
  114MOL    H8929695   1.464   7.458   0.837  1.4804 -1.1521  1.8273
  114MOL    H9029696   1.576   7.564   0.743  1.1141 -0.1567  1.0605
  114MOL    H9129697   1.032   7.636   0.818 -0.2372  0.2683 -0.1496
  114MOL    H9229698   1.135   7.734   0.915 -0.7699  0.2001  0.7932
  114MOL    C9329699   0.988   0.019   0.813 -0.0453  0.2251 -0.3626
  114MOL    N9429700   1.066   0.141   0.854  0.1520 -0.2207  0.8335
  114MOL    C9529701   1.038   0.263   0.813  0.3982 -0.2299 -0.0971
  114MOL    O9629702   0.946   0.299   0.739  0.1055  0.2203  0.2703
  114MOL    C9729703   1.123   0.372   0.882  0.4336 -0.4839  0.4669
  114MOL    C9829704   0.848   0.018   0.878 -0.1318 -0.0141  0.5474
  114MOL    H9929705   0.958   0.030   0.708  0.3898 -0.3366 -0.5465
  114MOL   H10029706   1.137   0.143   0.926  1.0521  2.4158 -0.0489
  114MOL   H10129707   1.174   0.438   0.812  1.4464 -0.5700  1.1140
  114MOL   H10229708   1.066   0.423   0.959 -0.2331 -0.4235 -0.0580
  114MOL   H10329709   1.207   0.335   0.941 -0.0373  0.0137  1.4621
  114MOL   H10429710   0.864   0.002   0.984  0.4505 -3.4603  0.0074
  114MOL   H10529711   0.800   0.115   0.870 -0.8717 -0.5836 -2.7386
  114MOL   C10629712   0.750   7.744   0.824 -0.6997 -0.4059  0.1967
  114MOL   N10729713   0.703   7.793   0.693  0.1037 -0.3382  0.3137
  114MOL   C10829714   0.698   7.725   0.580 -0.3503 -0.3909  0.2128
  114MOL   O10929715   0.746   7.614   0.568 -0.0552  0.3616  0.6426
  114MOL   C11029716   0.631   7.795   0.453  0.0823 -0.8786 -0.5018
  114MOL   C11129717   0.631   7.721   0.919 -0.0588 -0.9874 -0.0827
  114MOL   H11229718   0.801   7.649   0.803  0.1907  0.4554 -1.6257
  114MOL   H11329719   0.651   0.041   0.690 -1.3542 -1.2426 -2.0958
  114MOL   H11429720   0.603   0.060   0.468  0.2533 -0.9819  0.6063
  114MOL   H11529721   0.702   7.792   0.371 -0.7209  0.2997 -1.2476
  114MOL   H11629722   0.535   7.747   0.437 -0.2641 -0.0399 -0.9770
  114MOL   H11729723   0.581   7.817   0.934  1.2684 -0.3355  0.1821
  114MOL   H11829724   0.554   7.666   0.864  1.0747 -1.0797 -1.6088
  114MOL   C11929725   0.660   7.653   1.047 -0.3033 -0.3497 -0.2902
  114MOL   N12029726   0.661   7.503   1.020 -0.5075  0.2557 -0.8590
  114MOL   C12129727   0.743   7.407   1.083  0.3070  0.5835 -0.2353
  114MOL   O12229728   0.842   7.435   1.153 -0.0691 -0.5915 -0.4862
  114MOL   C12329729   0.717   7.262   1.061  0.0782  0.5962  0.0906
  114MOL   C12429730   0.570   7.693   1.167 -0.4700 -0.4069 -0.3322
  114MOL   H12529731   0.757   7.678   1.090  0.3644 -0.9783 -1.4111
  114MOL   H12629732   0.608   7.470   0.940  0.7088  0.2950 -1.6969
  114MOL   H12729733   0.710   7.246   0.954 -1.8002  0.1510  0.2522
  114MOL   H12829734   0.789   7.197   1.110  1.8040 -0.1237 -3.2741
  114MOL   H12929735   0.619   7.231   1.096 -0.9577  1.1394 -2.2327
  114MOL   H13029736   0.468   7.655   1.154 -0.5679 -0.9030  1.7248
  114MOL   H13129737   0.596   7.624   1.248  0.3805  1.5610  1.1045
  114MOL   C13229738   0.570   7.837   1.216  0.6134 -0.4666 -0.3206
  114MOL   N13329739   0.700   0.061   1.214 -0.3937  0.0444 -0.4072
  114MOL   C13429740   0.718   0.191   1.199 -0.5423  0.6364  0.4853
  114MOL   O13529741   0.637   0.266   1.153 -0.0777  0.0747  0.5905
  114MOL   C13629742   0.849   0.256   1.224 -0.6273  0.3126  0.8513
  114MOL   C13729743   0.506   0.011   1.358 -0.0422 -0.1163 -0.0536
  114MOL   H13829744   0.506   0.044   1.142 -0.2480 -0.1188  0.6352
  114MOL   H13929745   0.779   0.005   1.241 -0.3530 -1.4119 -3.3645
  114MOL   H14029746   0.827   0.354   1.265  1.1521  1.2512 -0.3930
  114MOL   H14129747   0.914   0.202   1.294 -1.5985 -0.5665  1.0857
  114MOL   H14229748   0.911   0.267   1.135 -1.0964  0.4832  0.5468
  114MOL   H14329749   0.458   0.109   1.356 -0.3159 -0.1987  1.5596
  114MOL   H14429750   0.432   7.771   1.368  1.8317 -1.7652  0.7541
  114MOL   C14529751   0.596   7.831   1.492  0.1764  0.0314  0.1062
  114MOL   N14629752   0.659   7.694   1.492 -0.4685 -0.0075 -0.4566
  114MOL   C14729753   0.784   7.671   1.466  0.1280 -1.0054  0.0599
  114MOL   O14829754   0.867   7.754   1.428 -0.4297  0.1310  0.1613
  114MOL   C14929755   0.827   7.525   1.473 -0.1046  0.1738  0.3190
  114MOL   C15029756   0.496   7.833   1.611  0.0136 -0.3049  0.1750
  114MOL   H15129757   0.666   0.075   1.492 -0.0451  0.3284 -4.4947
  114MOL   H15229758   0.610   7.611   1.522 -1.2074  0.1418 -1.2273
  114MOL   H15329759   0.905   7.506   1.400  0.2094  4.0260 -0.4342
  114MOL   H15429760   0.844   7.481   1.572  1.5592  0.0091 -0.0289
  114MOL   H15529761   0.749   7.464   1.427 -0.9473  0.9973  0.6442
  114MOL   H15629762   0.427   7.750   1.598 -2.4528  1.5283  1.2061
  114MOL   H15729763   0.541   7.820   1.710  0.9247 -0.3489 -0.2436
  114MOL   C15829764   0.415   0.122   1.637  0.2823  0.5314 -0.1541
  114MOL   N15929765   0.508   0.234   1.633 -0.3908 -0.2541  0.0737
  114MOL   C16029766   0.480   0.366   1.616 -0.2423  0.7807  0.2789
  114MOL   O16129767   0.370   0.413   1.594  0.2961 -0.1734 -0.7904
  114MOL   C16229768   0.595   0.461   1.603  0.5424 -0.0138  0.5977
  114MOL   C16329769   0.327   0.103   1.762  0.5090  0.2245  0.3602
  114MOL   H16429770   0.360   0.142   1.546  0.2178  1.1215  0.0141
  114MOL   H16529771   0.604   0.208   1.651 -0.4324 -0.6147 -0.2084
  114MOL   H16629772   0.581   0.569   1.606  0.8692  0.0332  0.3959
  114MOL   H16729773   0.655   0.430   1.688  0.2611 -2.0311  0.0806
  114MOL   H16829774   0.658   0.431   1.519  1.0799  1.3054  0.5086
  114MOL   H16929775   0.269   0.012   1.750 -2.6963  2.3058 -0.5456
  114MOL   H17029776   0.389   0.085   1.850  1.3693 -0.8089 -0.4352
  114MOL   C17129777   0.203   0.190   1.781 -0.2250 -0.4899  0.0809
  114MOL   N17229778   0.162   0.182   1.921 -0.2712  0.0547 -0.0069
  114MOL   C17329779   0.190   0.276   2.017  0.2684 -0.0445  0.1549
  114MOL   O17429780   0.265   0.371   2.004  0.4071  0.6530 -0.4604
  114MOL   C17529781   0.109   0.270   2.145  0.1314 -0.2510  0.0139
  114MOL   C17629782   0.085   0.149   1.692 -0.1618 -0.2368 -0.0056
  114MOL   H17729783   0.238   0.292   1.763  0.7237 -0.7767  0.2856
  114MOL   H17829784   0.093   0.109   1.931 -0.5537  0.4218  0.7911
  114MOL   H17929785   0.101   0.165   2.175 -0.9840 -0.1981 -0.0591
  114MOL   H18029786   0.143   0.336   2.225 -1.0124  0.1919  0.1455
  114MOL   H18129787   0.009   0.311   2.127 -0.2780 -0.2013  2.2623
  114MOL   H18229788   0.117   0.137   1.589 -0.6835  1.1041 -0.3393
  114MOL   H18329789   0.042   0.060   1.736 -0.1865  0.5799  1.6687
  114MOL   C18429790   7.809   0.260   1.697 -0.6687 -0.0085 -0.2219
  114MOL   N18529791   7.688   0.185   1.654  0.0868  0.3004  0.3729
  114MOL   C18629792   7.619   0.102   1.732 -0.0433  0.0445  0.0413
  114MOL   O18729793   7.631   0.098   1.858 -0.2021 -0.2426 -0.3612
  114MOL   C18829794   7.526   0.003   1.665  0.4405 -0.1994 -0.2646
  114MOL   C18929795   7.823   0.380   1.604  0.1020  0.1844  0.2787
  114MOL   H19029796   7.784   0.302   1.795 -0.5756 -3.0946  1.1839
  114MOL   H19129797   7.656   0.194   1.559 -1.5434  2.5022  1.0843
  114MOL   H19229798   7.532   7.746   1.714 -1.7361 -0.2161  0.0572
  114MOL   H19329799   7.425   0.043   1.652 -0.2078 -1.9461 -0.7966
  114MOL   H19429800   7.561   7.829   1.563  0.9223 -0.5308 -0.0549
  114MOL   H19529801   0.089   0.378   1.575 -0.4174  0.6355 -1.7606
  114MOL   H19629802   7.774   0.377   1.506  0.1617  1.4730  0.1988
  114MOL   C19729803   7.789   0.519   1.662 -0.4898  0.1450  0.5133
  114MOL   N19829804   7.655   0.518   1.702  0.2717  0.5218  0.0146
  114MOL   C19929805   7.616   0.526   1.834  0.2077 -0.1993  0.0350
  114MOL   O20029806   7.688   0.558   1.930  0.1907 -0.2751 -0.2148
  114MOL   C20129807   7.472   0.475   1.850  0.0532  0.1343  0.6253
  114MOL   C20229808   7.828   0.628   1.559 -0.4554  0.2573  0.1364
  114MOL   H20329809   0.009   0.532   1.752  0.5067 -2.5125  0.2895
  114MOL   H20429810   7.577   0.488   1.646  0.7712 -1.0160  0.1172
  114MOL   H20529811   7.480   0.370   1.877  0.9070  0.2957  1.0440
  114MOL   H20629812   7.405   0.538   1.909 -0.6540  1.3147 -1.3934
  114MOL   H20729813   7.435   0.467   1.748  1.6505 -3.0980  0.2537
  114MOL   H20829814   7.774   0.623   1.464 -0.7513  3.0730  0.1021
  114MOL   H20929815   7.793   0.725   1.597  0.3633  0.2064  1.0336
  114MOL   C21029816   0.134   0.660   1.526  0.3763 -0.0773  0.2924
  114MOL   N21129817   0.194   0.559   1.431 -0.1457  0.3283 -0.0966
  114MOL   C21229818   0.160   0.533   1.308 -0.0212  0.5783 -0.0911
  114MOL   O21329819   0.077   0.606   1.251  0.0065  0.6224 -0.9289
  114MOL   C21429820   0.193   0.402   1.243 -1.2524 -0.1047  0.3873
  114MOL   C21529821   0.227   0.678   1.648 -0.1554 -0.3278  0.9171
  114MOL   H21629822   0.138   0.759   1.481  2.6850 -0.1035  0.3733
  114MOL   H21729823   0.260   0.497   1.475  1.8239 -0.1070 -3.4852
  114MOL   H21829824   0.131   0.322   1.283 -0.3447 -1.0041  0.0147
  114MOL   H21929825   0.176   0.394   1.136 -1.4455  0.5288  0.3718
  114MOL   H22029826   0.298   0.376   1.253 -1.1966 -0.5907 -1.3181
  114MOL   H22129827   0.232   0.585   1.706  1.7777  0.1139  1.4954
  114MOL   H22229828   0.331   0.696   1.622 -0.6320 -0.0049 -0.7673
  114MOL   C22329829   0.194   0.796   1.738  0.9679  0.1606 -0.5401
  114MOL   N22429830   0.185   0.922   1.663  0.0951  0.3153 -0.0521
  114MOL   C22529831   0.092   1.011   1.676 -0.9396  0.2504  0.2894
  114MOL   O22629832   7.824   1.011   1.738  0.2134 -0.0779  0.3308
  114MOL   C22729833   0.129   1.143   1.611  0.9284 -0.0487  0.0130
  114MOL   C22829834   0.290   0.819   1.855 -0.0221  0.1358 -0.3641
  114MOL   H22929835   0.099   0.780   1.787  1.8445  0.6137  1.3357
  114MOL   H23029836   0.258   0.953   1.600  0.0282 -2.1838 -1.4416
  114MOL   H23129837   0.049   1.178   1.546  0.0721  1.5677  1.8696
  114MOL   H23229838   0.137   1.215   1.693 -0.4097 -0.5524  0.6062
  114MOL   H23329839   0.226   1.140   1.561  2.4870  0.5205  2.8905
  114MOL   H23429840   0.380   0.847   1.800 -0.8843 -0.5031 -2.1456
  114MOL   H23529841   0.254   0.905   1.912  0.2807  0.7131 -1.0391
  114MOL   C23629842   0.317   0.699   1.953  0.5094  0.8598 -0.7710
  114MOL   N23729843   0.195   0.655   2.024 -0.0052  0.0359 -0.5043
  114MOL   C23829844   0.116   0.725   2.109  0.1564 -0.5073 -0.0098
  114MOL   O23929845   0.098   0.849   2.112 -0.7244  0.3664 -0.2959
  114MOL   C24029846   0.046   0.633   2.213  0.0686 -0.3130  0.3495
  114MOL   C24129847   0.424   0.735   2.057  0.4743 -0.2494 -0.0184
  114MOL   H24229848   0.365   0.622   1.894  1.0125  0.6658 -0.1128
  114MOL   H24329849   0.179   0.555   2.025  0.3319 -0.0135  0.7880
  114MOL   H24429850   7.802   0.683   2.261 -0.1631  1.2340 -1.6184
  114MOL   H24529851   0.016   0.546   2.154 -2.4082  1.0774 -0.4939
  114MOL   H24629852   0.115   0.589   2.285 -1.2019 -0.0385  1.7545
  114MOL   H24729853   0.495   0.783   1.990 -0.0474  0.3640 -0.1330
  114MOL   H24829854   0.391   0.821   2.116 -0.2129 -0.2989 -0.3235
  114MOL   C24929855   0.508   0.621   2.136 -0.5937  0.3826  0.0782
  114MOL   N25029856   0.527   0.498   2.058 -0.1209  0.1266  0.7666
  114MOL   C25129857   0.642   0.436   2.033  0.0543 -0.9497 -0.0549
  114MOL   O25229858   0.753   0.480   2.065  0.2275 -0.0414  0.0742
  114MOL   C25329859   0.638   0.296   1.963  0.0543 -0.2414 -0.8380
  114MOL   C25429860   0.436   0.588   2.270 -0.0303  0.0416  0.2442
  114MOL   H25529861   0.606   0.670   2.140 -1.2380  1.6064  1.2723
  114MOL   H25629862   0.447   0.447   2.022 -1.1305  0.7625  2.0578
  114MOL   H25729863   0.587   0.304   1.867  1.1100  3.8457 -1.1532
  114MOL   H25829864   0.744   0.275   1.949  0.7482  0.4664  2.8579
  114MOL   H25929865   0.600   0.224   2.035  1.9459  0.0375  0.5013
  114MOL   H26029866   0.400   0.669   2.333 -1.1416 -0.6957  0.5751
  114MOL   H26129867   0.350   0.525   2.246 -0.9266  0.4002  2.3577
  114MOL   H26229868   0.488   0.513   2.331 -2.3828  0.0496  2.3646
  115MOL     C129869   7.478   2.378   6.712 -0.2899 -0.9820  0.0649
  115MOL     N229870   7.521   2.327   6.839 -0.6098  0.3085 -0.5802
  115MOL     C329871   7.624   2.381   6.909  0.4584 -0.7683 -0.1564
  115MOL     O429872   7.668   2.494   6.880  0.4725  0.1240 -0.6489
  115MOL     C529873   7.668   2.306   7.031  0.0179  0.6071  0.5097
  115MOL     C629874   7.441   2.266   6.604 -0.0722 -0.8574 -0.3930
  115MOL     H729875   7.389   2.439   6.730  0.8185  0.0740  2.1112
  115MOL     H829876   7.482   2.239   6.868  1.4195 -0.2205  0.6106
  115MOL     H929877   7.609   2.214   7.027 -1.5447  1.5441  1.7976
  115MOL    H1029878   7.775   2.283   7.041 -0.1585 -0.1099  0.8060
  115MOL    H1129879   7.653   2.374   7.114  1.3638  1.5574  0.0077
  115MOL    H1229880   7.437   2.304   6.502  0.4866 -1.2533 -0.5642
  115MOL    H1329881   7.530   2.205   6.591  1.0153  0.5019  0.5280
  115MOL    H1429882   7.551   2.450   6.675  1.2775 -1.8371  1.3912
  115MOL    C1529883   7.309   2.185   6.644  0.1205  0.7059  0.0655
  115MOL    N1629884   7.317   2.114   6.773  0.0701 -0.2199  0.3226
  115MOL    C1729885   7.243   2.135   6.884  0.3459 -0.6870  0.7379
  115MOL    O1829886   7.159   2.226   6.891  0.2541  0.1251 -0.9223
  115MOL    C1929887   7.259   2.041   7.000 -0.3070 -0.0548  0.3526
  115MOL    C2029888   7.267   2.104   6.524  0.9636 -0.1050 -0.4905
  115MOL    H2129889   7.240   2.267   6.662  1.9648  2.2892  0.1447
  115MOL    H2229890   7.379   2.035   6.775  2.1570  1.3835  0.1949
  115MOL    H2329891   7.240   2.091   7.095 -1.2876 -2.5011  1.5022
  115MOL    H2429892   7.175   1.972   6.998 -2.0641  2.0982 -1.3942
  115MOL    H2529893   7.343   1.971   6.993  0.7266  1.1775  0.1165
  115MOL    H2629894   7.279   2.166   6.435  1.1504  0.6804  0.0779
  115MOL    H2729895   7.327   2.014   6.514 -1.0418 -1.2325 -2.5894
  115MOL    C2829896   7.121   2.064   6.519  0.3460 -1.3798  0.7198
  115MOL    N2929897   7.095   1.946   6.429  0.6669 -0.0023 -0.1297
  115MOL    C3029898   7.113   1.814   6.459 -0.2655 -0.4877  0.8805
  115MOL    O3129899   7.152   1.772   6.565  0.2980 -0.0176  0.2336
  115MOL    C3229900   7.068   1.714   6.354 -0.0015 -0.2163 -0.4795
  115MOL    C3329901   7.028   2.183   6.490  0.5110 -0.4729 -0.5122
  115MOL    H3429902   7.108   2.034   6.624  2.6789  1.5839  1.9113
  115MOL    H3529903   7.073   1.956   6.331 -0.2820  0.0776  0.0897
  115MOL    H3629904   6.959   1.715   6.349  0.0436  0.6533 -1.5608
  115MOL    H3729905   7.099   1.747   6.255  0.0030  0.1799 -0.3492
  115MOL    H3829906   7.107   1.617   6.384 -1.5797 -0.1582  1.9739
  115MOL    H3929907   7.058   2.278   6.535 -0.5654 -0.0410 -0.6889
  115MOL    H4029908   7.039   2.209   6.385 -0.6470 -0.0767 -0.5444
  115MOL    C4129909   6.871   2.172   6.529  0.2101 -0.4016  0.1493
  115MOL    N4229910   6.800   2.293   6.482 -0.4600 -0.0603 -0.4518
  115MOL    C4329911   6.670   2.295   6.444  0.1163 -0.1146 -0.9150
  115MOL    O4429912   6.605   2.197   6.439  0.0158  1.0187 -0.3340
  115MOL    C4529913   6.600   2.431   6.440  0.4685 -0.2178  0.1851
  115MOL    C4629914   6.846   2.151   6.674 -0.2303 -0.0516 -0.8577
  115MOL    H4729915   6.834   2.091   6.465 -1.0613  0.7181 -0.5526
  115MOL    H4829916   6.842   2.382   6.501  1.9250 -0.9685 -1.2960
  115MOL    H4929917   6.628   2.487   6.530  0.3467 -0.3603  0.3120
  115MOL    H5029918   6.627   2.493   6.354 -2.5095 -1.2186 -1.5358
  115MOL    H5129919   6.492   2.414   6.435  0.3644  0.0117  1.3294
  115MOL    H5229920   6.769   2.074   6.678 -0.3834  0.1136 -0.6198
  115MOL    H5329921   6.932   2.101   6.718  0.6229  0.1128 -2.2927
  115MOL    C5429922   6.808   2.272   6.765 -0.9164 -0.9948 -0.1171
  115MOL    N5529923   6.925   2.351   6.793 -0.5563 -0.6696 -0.6673
  115MOL    C5629924   6.966   2.464   6.727  0.2512  0.3903 -1.2242
  115MOL    O5729925   6.896   2.530   6.649 -0.4673 -0.0888 -0.1741
  115MOL    C5829926   7.095   2.530   6.787 -0.2401  0.4253 -0.1443
  115MOL    C5929927   6.726   2.222   6.885  0.2152  0.7209  0.5435
  115MOL    H6029928   6.740   2.337   6.711 -0.0947 -2.2846 -2.8449
  115MOL    H6129929   6.989   2.322   6.866  0.1235 -0.2467 -1.0958
  115MOL    H6229930   7.164   2.473   6.848  0.6416  1.2942 -0.3102
  115MOL    H6329931   7.139   2.583   6.703  1.5849  0.0277  0.5468
  115MOL    H6429932   7.064   2.605   6.860  1.2385 -0.3983  1.3596
  115MOL    H6529933   6.630   2.189   6.845  0.8849 -1.8380  0.9426
  115MOL    H6629934   6.762   2.131   6.933  0.0771  1.3295  1.8355
  115MOL    C6729935   6.703   2.325   6.989  1.3476 -0.0233  0.1262
  115MOL    N6829936   6.820   2.338   7.076  0.4529 -0.0286  0.3607
  115MOL    C6929937   6.894   2.255   7.145  0.9553  0.3480  0.1930
  115MOL    O7029938   6.855   2.139   7.165  0.6768 -0.2185 -0.0314
  115MOL    C7129939   7.015   2.307   7.218  0.1469 -0.4094  0.6853
  115MOL    C7229940   6.578   2.299   7.075 -0.9237 -0.3290 -0.5450
  115MOL    H7329941   6.692   2.421   6.938 -0.8297 -0.2238  0.1980
  115MOL    H7429942   6.842   2.436   7.080 -2.3153  0.6367  0.3090
  115MOL    H7529943   7.107   2.253   7.195  1.2803  2.0676 -0.7442
  115MOL    H7629944   7.023   2.415   7.205 -0.3601 -0.2267  1.8391
  115MOL    H7729945   7.000   2.307   7.326 -0.5565  0.4039  0.5913
  115MOL    H7829946   6.486   2.304   7.016  0.2147  0.0889 -2.3131
  115MOL    H7929947   6.580   2.198   7.116 -0.6490 -0.5703 -1.1595
  115MOL    C8029948   6.559   2.404   7.190 -0.0400  0.6104 -0.3381
  115MOL    N8129949   6.444   2.348   7.267 -0.1415 -1.0331  0.4236
  115MOL    C8229950   6.447   2.273   7.376 -0.3857  0.2418  0.0689
  115MOL    O8329951   6.550   2.238   7.441  0.2748 -0.3343  0.2676
  115MOL    C8429952   6.310   2.238   7.431 -0.5602  0.3586  0.4638
  115MOL    C8529953   6.508   2.545   7.141  0.2963  0.3237 -0.8222
  115MOL    H8629954   6.639   2.417   7.263 -0.2206 -0.9832  0.1557
  115MOL    H8729955   6.356   2.373   7.226  1.2307  0.1633 -1.9228
  115MOL    H8829956   6.236   2.273   7.359  0.2734  2.1433  0.4261
  115MOL    H8929957   6.293   2.131   7.436  1.2312 -0.0879 -1.8982
  115MOL    H9029958   6.298   2.281   7.531 -0.0840  0.4678  0.4760
  115MOL    H9129959   6.429   2.534   7.067  0.4513 -0.6344 -0.8525
  115MOL    H9229960   6.459   2.588   7.229  0.6623  0.5515 -0.7273
  115MOL    C9329961   6.610   2.652   7.109  0.5087  0.2054  0.1542
  115MOL    N9429962   6.705   2.668   7.217  0.6349  0.6546  0.4237
  115MOL    C9529963   6.834   2.639   7.222  0.1568 -0.1416 -0.2342
  115MOL    O9629964   6.906   2.604   7.130 -0.2939 -0.1822  0.7865
  115MOL    C9729965   6.903   2.639   7.359 -0.5068  0.0206 -0.2924
  115MOL    C9829966   6.532   2.782   7.081  0.4293 -0.1220 -0.1070
  115MOL    H9929967   6.659   2.624   7.016 -1.5737 -0.6919 -0.6938
  115MOL   H10029968   6.671   2.691   7.309  1.1492  1.7548  0.3451
  115MOL   H10129969   6.989   2.573   7.370 -0.0767  0.8584  1.6300
  115MOL   H10229970   6.947   2.737   7.378 -3.1211  1.3832 -1.0384
  115MOL   H10329971   6.836   2.611   7.440 -2.4208  0.0307 -1.8449
  115MOL   H10429972   6.436   2.762   7.034 -1.3953 -0.8789  3.7018
  115MOL   H10529973   6.493   2.825   7.174  0.1273 -0.5177 -0.0488
  115MOL   C10629974   6.618   2.883   7.000 -0.5813 -0.7104 -0.1491
  115MOL   N10729975   6.534   2.996   6.972  0.1233 -0.3888  0.4421
  115MOL   C10829976   6.540   3.120   7.018  0.3297  0.4050 -0.5647
  115MOL   O10929977   6.628   3.151   7.098  0.3340 -0.1388  0.2298
  115MOL   C11029978   6.430   3.216   6.976  0.4522  0.6826  0.1310
  115MOL   C11129979   6.677   2.838   6.865 -0.1833 -0.2954 -0.4506
  115MOL   H11229980   6.698   2.917   7.066 -3.2353  0.2115  2.7342
  115MOL   H11329981   6.450   2.972   6.921  1.3704  0.7335 -2.2238
  115MOL   H11429982   6.468   3.317   6.961  2.2038  0.3383  2.0261
  115MOL   H11529983   6.401   3.194   6.873  2.5265 -2.6036  0.1698
  115MOL   H11629984   6.343   3.220   7.041 -0.8910 -1.4625 -1.4589
  115MOL   H11729985   6.761   2.770   6.880  1.7265  2.1514  0.2243
  115MOL   H11829986   6.598   2.793   6.805 -0.5180 -0.7539  0.3250
  115MOL   C11929987   6.741   2.943   6.769 -1.2298 -0.3097 -0.5572
  115MOL   N12029988   6.781   2.875   6.640 -0.8584  0.1102 -0.0125
  115MOL   C12129989   6.721   2.874   6.522 -0.5003 -0.3678 -0.4553
  115MOL   O12229990   6.619   2.938   6.495  0.8211 -0.1797 -0.1108
  115MOL   C12329991   6.793   2.811   6.402 -0.7729  0.1688  0.2722
  115MOL   C12429992   6.855   3.026   6.840 -0.3712 -0.1968 -0.0621
  115MOL   H12529993   6.671   3.022   6.740  0.7073  0.7128 -2.5579
  115MOL   H12629994   6.871   2.829   6.648 -1.9082 -2.0988 -0.8095
  115MOL   H12729995   6.724   2.775   6.326 -1.5656  1.0221  0.5655
  115MOL   H12829996   6.858   2.880   6.349  1.2031 -0.8497  1.2992
  115MOL   H12929997   6.865   2.736   6.435 -0.4083  1.0964  1.6269
  115MOL   H13029998   6.828   3.061   6.939  1.7566  3.3224 -0.6065
  115MOL   H13129999   6.934   2.956   6.867 -0.5296  0.2597  1.6193
  115MOL   C13230000   6.926   3.144   6.758 -0.0845  0.3523 -0.1745
  115MOL   N13330001   7.004   3.101   6.645 -0.7587  0.5979 -0.0708
  115MOL   C13430002   7.095   3.005   6.628  0.4265 -0.1817 -0.3029
  115MOL   O13530003   7.152   2.941   6.720 -0.1521 -0.2682  0.0896
  115MOL   C13630004   7.127   2.975   6.480 -0.1269 -0.5548 -0.2110
  115MOL   C13730005   6.998   3.251   6.835  0.2670  0.1333  0.0172
  115MOL   H13830006   6.858   3.208   6.703  0.3065  1.1971  0.3259
  115MOL   H13930007   6.985   3.156   6.563 -0.3732 -1.0425 -1.2704
  115MOL   H14030008   7.063   3.039   6.419 -1.4544 -0.2234  1.4948
  115MOL   H14130009   7.229   3.010   6.460 -0.0893 -0.6130 -0.1246
  115MOL   H14230010   7.105   2.871   6.456  1.3714 -1.7868  3.4063
  115MOL   H14330011   7.073   3.210   6.903 -1.0359  1.4628  2.3031
  115MOL   H14430012   7.067   3.307   6.771 -0.8889 -1.2147 -2.4805
  115MOL   C14530013   6.907   3.349   6.920  0.7380 -0.3254 -0.1204
  115MOL   N14630014   6.859   3.285   7.048  0.0880  0.0640  0.6160
  115MOL   C14730015   6.938   3.255   7.154  0.2136 -0.3187 -0.5987
  115MOL   O14830016   7.062   3.256   7.149  0.2809  0.6271 -0.3871
  115MOL   C14930017   6.880   3.244   7.295 -0.2486  0.2193  0.6835
  115MOL   C15030018   6.778   3.405   6.851 -0.0123 -0.2805 -0.4680
  115MOL   H15130019   6.966   3.433   6.956 -1.5296  1.4963 -0.5467
  115MOL   H15230020   6.759   3.280   7.060  0.0747  0.1623  0.5413
  115MOL   H15330021   6.940   3.197   7.372 -0.0473  1.1326  1.0951
  115MOL   H15430022   6.859   3.346   7.328 -0.5547  0.3097  0.2234
  115MOL   H15530023   6.787   3.187   7.292  1.4976 -2.7057  0.3392
  115MOL   H15630024   6.725   3.330   6.794  0.1753 -1.1339  0.4667
  115MOL   H15730025   6.710   3.460   6.917 -0.2944  0.8896 -1.7118
  115MOL   C15830026   6.827   3.509   6.747  0.0128  0.1142 -0.1972
  115MOL   N15930027   6.870   3.632   6.816 -0.0671 -0.2866  0.3738
  115MOL   C16030028   6.937   3.733   6.762  0.3175  0.1795  0.5023
  115MOL   O16130029   6.964   3.739   6.644 -0.0448 -0.3181  0.2654
  115MOL   C16230030   6.987   3.846   6.846 -0.7065 -0.7331 -0.5057
  115MOL   C16330031   6.725   3.525   6.628 -0.3106  0.9854 -0.7101
  115MOL   H16430032   6.919   3.475   6.700  0.6269  1.6454 -0.1450
  115MOL   H16530033   6.828   3.651   6.907  0.3869  1.3465  0.2629
  115MOL   H16630034   7.094   3.860   6.834 -0.5371 -0.2522  1.3968
  115MOL   H16730035   6.944   3.943   6.821 -1.3372 -0.2142  2.3842
  115MOL   H16830036   6.961   3.837   6.952  1.0384  1.6105  0.1727
  115MOL   H16930037   6.791   3.555   6.546  0.5651  0.2510 -0.2837
  115MOL   H17030038   6.684   3.428   6.599 -1.3696  1.0166  0.6974
  115MOL   C17130039   6.612   3.628   6.645  0.1539 -0.5405  0.5302
  115MOL   N17230040   6.497   3.583   6.731 -0.3627 -0.1047  0.4639
  115MOL   C17330041   6.456   3.635   6.847  0.0827  0.6086 -0.6416
  115MOL   O17430042   6.522   3.714   6.914 -0.0323  0.1607 -0.3794
  115MOL   C17530043   6.324   3.594   6.891 -0.3207  1.4936 -0.1420
  115MOL   C17630044   6.558   3.680   6.513  0.8266  0.3056 -0.1715
  115MOL   H17730045   6.661   3.708   6.700 -1.2831 -0.0797  1.1359
  115MOL   H17830046   6.438   3.519   6.680 -0.5407 -0.5274  1.2030
  115MOL   H17930047   6.284   3.506   6.839  0.5759  1.3268 -0.5452
  115MOL   H18030048   6.325   3.580   7.000 -0.3800 -0.5561 -0.3762
  115MOL   H18130049   6.264   3.681   6.865  0.6043  2.2598  0.2868
  115MOL   H18230050   6.642   3.685   6.444  1.7454 -1.6564  0.7671
  115MOL   H18330051   6.495   3.600   6.475  0.5046 -0.7816  2.5368
  115MOL   C18430052   6.488   3.821   6.516  0.3598 -0.3510 -0.0389
  115MOL   N18530053   6.455   3.855   6.378 -0.3801  0.2555  0.5336
  115MOL   C18630054   6.333   3.878   6.325 -0.5790  0.3473  0.0875
  115MOL   O18730055   6.226   3.869   6.388 -0.1506 -0.0180 -0.6514
  115MOL   C18830056   6.333   3.918   6.173 -0.1640  0.0228 -0.4324
  115MOL   C18930057   6.567   3.937   6.588 -0.3904 -0.5544 -0.1681
  115MOL   H19030058   6.393   3.807   6.567  0.4456  1.6265  0.6880
  115MOL   H19130059   6.533   3.873   6.317 -1.0808  1.9593  0.1092
  115MOL   H19230060   6.238   3.954   6.135 -0.7071 -1.0284 -0.0804
  115MOL   H19330061   6.401   4.003   6.164 -0.2410  0.0356 -0.9494
  115MOL   H19430062   6.372   3.834   6.114  1.4883  1.5660 -1.6096
  115MOL   H19530063   6.582   3.907   6.692 -3.3276 -0.5062  0.3039
  115MOL   H19630064   6.665   3.926   6.541  0.3044  0.7987  0.9330
  115MOL   C19730065   6.529   4.088   6.592  0.7271 -0.2519  0.3036
  115MOL   N19830066   6.383   4.113   6.608  0.3804  0.1857  0.3070
  115MOL   C19930067   6.304   4.074   6.706 -0.5053  0.0440  0.0595
  115MOL   O20030068   6.346   4.009   6.803  0.0673  0.0336 -0.1718
  115MOL   C20130069   6.160   4.111   6.709  0.9446 -0.5914  1.6300
  115MOL   C20230070   6.576   4.160   6.466  0.1097 -0.1697 -0.0463
  115MOL   H20330071   6.575   4.140   6.676 -0.0834 -0.8192  1.1181
  115MOL   H20430072   6.340   4.142   6.521  0.8489  1.2904  0.4396
  115MOL   H20530073   6.103   4.036   6.763  1.7375 -2.2641  0.2022
  115MOL   H20630074   6.135   4.213   6.740 -0.6123 -0.9393  1.5096
  115MOL   H20730075   6.127   4.114   6.606  1.2949  4.3403  1.5157
  115MOL   H20830076   6.552   4.103   6.376  2.0003 -1.1791  0.0515
  115MOL   H20930077   6.518   4.252   6.468  0.3473 -0.0339  0.8327
  115MOL   C21030078   6.727   4.202   6.461 -0.1835  0.1777  0.2791
  115MOL   N21130079   6.739   4.322   6.552  0.1400 -0.6047  0.3391
  115MOL   C21230080   6.851   4.402   6.575  0.2665 -0.8361  0.6587
  115MOL   O21330081   6.961   4.365   6.543  0.0817 -0.1075  0.7319
  115MOL   C21430082   6.827   4.525   6.664 -0.6986 -0.4003  1.2347
  115MOL   C21530083   6.789   4.239   6.326 -0.6375 -0.3025 -0.2045
  115MOL   H21630084   6.790   4.129   6.511 -0.9555 -1.2574 -0.8073
  115MOL   H21730085   6.652   4.352   6.593  0.6108  0.0050  0.8857
  115MOL   H21830086   6.854   4.502   6.767 -1.9976  0.6912  1.8449
  115MOL   H21930087   6.895   4.606   6.639 -1.7386  0.0311 -0.2771
  115MOL   H22030088   6.724   4.561   6.656 -1.0523 -1.6741 -0.3095
  115MOL   H22130089   6.743   4.330   6.288  0.4207  0.7538  0.9955
  115MOL   H22230090   6.894   4.257   6.349 -0.2344  2.1993 -3.7475
  115MOL   C22330091   6.792   4.135   6.209 -0.7491  1.0267 -0.2719
  115MOL   N22430092   6.850   4.009   6.259  0.4090 -0.3927  0.1579
  115MOL   C22530093   6.800   3.888   6.254  0.1981  0.4624  0.3257
  115MOL   O22630094   6.688   3.855   6.211 -0.6138  0.0438  0.8700
  115MOL   C22730095   6.893   3.771   6.300  1.1376  0.2812  0.0630
  115MOL   C22830096   6.881   4.169   6.085 -0.0321 -0.8125  0.0501
  115MOL   H22930097   6.689   4.125   6.175 -1.4489 -0.2522  2.1182
  115MOL   H23030098   6.946   4.012   6.292  1.2835 -2.2407 -2.1006
  115MOL   H23130099   6.973   3.745   6.231 -0.1777 -1.6074 -0.8006
  115MOL   H23230100   6.926   3.805   6.398  0.9520  1.3204 -0.2312
  115MOL   H23330101   6.831   3.681   6.303 -0.5624  1.4421  0.6913
  115MOL   H23430102   6.985   4.187   6.111  0.0495 -0.4569 -0.5081
  115MOL   H23530103   6.881   4.079   6.024  0.4034  0.4601 -1.8944
  115MOL   C23630104   6.823   4.291   6.006 -0.4033 -0.2691  0.7685
  115MOL   N23730105   6.850   4.272   5.863  0.9250 -0.0632 -0.1989
  115MOL   C23830106   6.761   4.296   5.765  0.1917  0.3290 -0.3372
  115MOL   O23930107   6.639   4.322   5.778 -0.3574 -0.1258  0.0233
  115MOL   C24030108   6.817   4.290   5.619 -0.8814  0.1593 -0.3796
  115MOL   C24130109   6.887   4.428   6.046  0.0231  0.4105  0.7342
  115MOL   H24230110   6.716   4.291   6.027 -0.7916  1.8418 -1.0977
  115MOL   H24330111   6.944   4.268   5.826  0.0821  0.8405 -2.5473
  115MOL   H24430112   6.915   4.242   5.623 -0.2096  1.3975 -1.3868
  115MOL   H24530113   6.751   4.268   5.536 -2.4547  0.3806  0.7996
  115MOL   H24630114   6.843   4.393   5.595  0.3482  0.1843  0.9641
  115MOL   H24730115   6.907   4.428   6.153  0.8987 -0.6540  0.5774
  115MOL   H24830116   6.983   4.437   5.994  0.7611 -1.1209  1.7798
  115MOL   C24930117   6.816   4.559   6.004 -0.1958  0.1968  0.0060
  115MOL   N25030118   6.918   4.665   5.972  0.6527  0.4132  0.0382
  115MOL   C25130119   6.982   4.677   5.855 -0.0402  0.7797 -0.7973
  115MOL   O25230120   6.959   4.601   5.761  0.0532 -0.3016  0.4842
  115MOL   C25330121   7.083   4.791   5.833  1.0441 -0.1648  0.0091
  115MOL   C25430122   6.720   4.608   6.112  0.1743 -0.2890 -0.3186
  115MOL   H25530123   6.755   4.545   5.915 -1.3046  1.5983  0.5077
  115MOL   H25630124   6.935   4.739   6.039 -1.2052  0.8226  0.0625
  115MOL   H25730125   7.114   4.838   5.927 -0.6823  1.2809 -0.1222
  115MOL   H25830126   7.177   4.752   5.794  0.5325 -0.3095 -1.0992
  115MOL   H25930127   7.036   4.866   5.770  1.0491 -2.0154 -2.2421
  115MOL   H26030128   6.640   4.665   6.064  0.0776 -1.8830 -2.1025
  115MOL   H26130129   6.670   4.516   6.141 -0.6924  0.4217  0.4762
  115MOL   H26230130   6.767   4.637   6.206  1.8675 -1.3750 -0.8160
  116MOL     C130131   4.816   6.305   0.482  0.2739 -0.0077 -0.1494
  116MOL     N230132   4.921   6.272   0.583  0.2076 -0.3064  0.1177
  116MOL     C330133   4.958   6.147   0.616 -0.0287  0.4871  0.8413
  116MOL     O430134   4.904   6.046   0.570  0.2498 -0.2314  0.5052
  116MOL     C530135   5.077   6.126   0.713 -0.4111 -0.2098  0.5021
  116MOL     C630136   4.703   6.399   0.540 -0.6919  0.7551  0.3491
  116MOL     H730137   4.862   6.355   0.397  0.5438 -0.1201 -0.0727
  116MOL     H830138   4.973   6.353   0.614 -0.9780  0.3239  0.4908
  116MOL     H930139   5.171   6.126   0.657 -1.9351  1.6375 -2.1210
  116MOL    H1030140   5.066   6.203   0.788 -1.8173 -1.6742  1.8333
  116MOL    H1130141   5.081   6.032   0.767 -0.2209 -1.3333 -1.3975
  116MOL    H1230142   4.627   6.387   0.462 -0.2141 -0.1584  0.0066
  116MOL    H1330143   4.664   6.350   0.629 -1.8681  1.3691  0.1779
  116MOL    H1430144   4.776   6.213   0.441 -1.8392  0.2871  1.2118
  116MOL    C1530145   4.738   6.547   0.563  0.2294  0.5480  0.0167
  116MOL    N1630146   4.823   6.564   0.675 -0.6233 -0.2129 -0.0404
  116MOL    C1730147   4.953   6.596   0.669  0.2203  0.6198  0.6245
  116MOL    O1830148   5.019   6.608   0.566  0.7153  0.3399  0.7826
  116MOL    C1930149   5.015   6.635   0.807 -0.2705  0.4010  1.1760
  116MOL    C2030150   4.611   6.635   0.572  0.6866 -0.3563  0.3594
  116MOL    H2130151   4.793   6.573   0.472 -0.3959 -0.4526 -0.6488
  116MOL    H2230152   4.783   6.555   0.768 -0.8282 -0.1754 -0.1251
  116MOL    H2330153   5.113   6.681   0.794 -0.4440  0.7126  0.9703
  116MOL    H2430154   4.948   6.698   0.866 -1.8711 -0.8938  0.7855
  116MOL    H2530155   5.038   6.546   0.866  1.6895  0.8630  1.1480
  116MOL    H2630156   4.553   6.613   0.482  4.1080 -2.3380 -1.4505
  116MOL    H2730157   4.553   6.590   0.652  0.5629 -0.4876  0.1967
  116MOL    C2830158   4.624   6.793   0.583  0.5156  0.2927  0.0027
  116MOL    N2930159   4.497   6.862   0.604 -0.1800  0.5759 -0.7566
  116MOL    C3030160   4.462   6.968   0.685 -0.1294 -0.1910  0.0616
  116MOL    O3130161   4.540   7.008   0.770 -0.3693  0.4022 -0.4049
  116MOL    C3230162   4.330   7.028   0.661 -0.0492  0.3341  0.2442
  116MOL    C3330163   4.704   6.847   0.462  0.3151 -0.0150  0.0187
  116MOL    H3430164   4.683   6.807   0.673 -0.0143 -0.6286  0.5033
  116MOL    H3530165   4.427   6.833   0.537  0.1777  1.9087 -1.7213
  116MOL    H3630166   4.308   7.119   0.717 -2.2176  0.6494 -1.0723
  116MOL    H3730167   4.299   7.053   0.560 -1.8049 -1.2806  0.3531
  116MOL    H3830168   4.262   6.949   0.695  1.5717 -0.9966  0.4435
  116MOL    H3930169   4.780   6.773   0.437  1.4290  1.6890 -1.7737
  116MOL    H4030170   4.641   6.836   0.373 -2.1970 -0.4783  1.7871
  116MOL    C4130171   4.759   6.991   0.462  0.4192  0.0148 -0.3738
  116MOL    N4230172   4.832   7.009   0.594 -0.3913 -0.6327 -0.1537
  116MOL    C4330173   4.951   7.077   0.607  0.1819 -0.1304 -0.0061
  116MOL    O4430174   4.991   7.152   0.517  0.5017  0.1541 -0.0232
  116MOL    C4530175   5.050   7.052   0.719 -0.1262  0.0079 -0.6372
  116MOL    C4630176   4.656   7.112   0.447  0.6085  0.9095 -0.2748
  116MOL    H4730177   4.825   6.991   0.375  2.5415 -1.6513  1.1655
  116MOL    H4830178   4.800   6.956   0.674  1.3525  0.3143  1.2015
  116MOL    H4930179   5.140   6.999   0.686 -0.7918  0.0388 -2.5661
  116MOL    H5030180   5.069   7.136   0.785 -0.6424 -1.2266  1.1096
  116MOL    H5130181   4.990   6.986   0.782 -0.3880  1.0893  0.2575
  116MOL    H5230182   4.578   7.111   0.523 -0.3330  0.8242 -1.2256
  116MOL    H5330183   4.717   7.201   0.466 -1.3175  2.0369  0.7091
  116MOL    C5430184   4.590   7.125   0.309 -0.9979 -0.1706 -0.0286
  116MOL    N5530185   4.678   7.144   0.190 -0.3347  0.2869 -0.3154
  116MOL    C5630186   4.701   7.055   0.094 -0.0234  0.6807 -0.9163
  116MOL    O5730187   4.642   6.945   0.081  0.1745 -0.0477  0.5222
  116MOL    C5830188   4.812   7.081   0.006  0.7769 -0.4357 -0.0862
  116MOL    C5930189   4.471   7.224   0.297  0.7157  0.1453 -0.0342
  116MOL    H6030190   4.544   7.027   0.296 -0.8739 -0.2918  0.4649
  116MOL    H6130191   4.715   7.238   0.182 -1.2564  0.7715  0.9145
  116MOL    H6230192   4.796   7.182   7.807  3.1893  0.7096  1.7779
  116MOL    H6330193   4.901   7.093   0.067  0.8607  0.6390 -0.4093
  116MOL    H6430194   4.828   7.015   7.760  3.1471 -2.4426  1.8168
  116MOL    H6530195   4.422   7.194   0.204 -1.7623 -0.1527  1.2986
  116MOL    H6630196   4.404   7.192   0.377 -0.3530  0.6743 -0.7038
  116MOL    C6730197   4.495   7.372   0.289  0.3213 -0.3783 -0.5582
  116MOL    N6830198   4.574   7.422   0.397  0.1813  0.2018 -0.2221
  116MOL    C6930199   4.697   7.462   0.368  0.0203  0.1392 -0.7976
  116MOL    O7030200   4.756   7.455   0.260 -0.7776  0.4475  0.3758
  116MOL    C7130201   4.776   7.518   0.485 -0.3830  0.1674  0.0207
  116MOL    C7230202   4.358   7.448   0.270  0.3262  0.2001  0.4277
  116MOL    H7330203   4.555   7.377   0.199 -0.7540 -0.2295 -1.2810
  116MOL    H7430204   4.544   7.425   0.493  0.3620  1.1407 -0.1845
  116MOL    H7530205   4.790   7.624   0.465  1.3794  0.3099  1.8282
  116MOL    H7630206   4.717   7.520   0.577  0.4761  0.5207  0.5670
  116MOL    H7730207   4.878   7.479   0.491 -0.3363 -0.1440 -2.3288
  116MOL    H7830208   4.300   7.378   0.210  0.1802 -0.9925  1.9383
  116MOL    H7930209   4.312   7.457   0.368 -0.3717 -2.4156  0.3869
  116MOL    C8030210   4.364   7.591   0.201 -0.2683 -0.0677  0.1789
  116MOL    N8130211   4.410   7.699   0.288  0.6050  0.4245 -0.2891
  116MOL    C8230212   4.515   7.777   0.258  0.1730  0.0956  0.6302
  116MOL    O8330213   4.557   7.802   0.146 -0.3614 -0.6859 -0.4461
  116MOL    C8430214   4.586   0.006   0.372  0.5047  0.8587 -0.6110
  116MOL    C8530215   4.229   7.634   0.131 -0.5358 -0.3900 -0.1631
  116MOL    H8630216   4.446   7.568   0.132 -1.4961  0.1352 -1.3794
  116MOL    H8730217   4.381   7.692   0.385 -1.8902 -2.3099 -1.1800
  116MOL    H8830218   4.550   0.109   0.368 -0.1731  0.6593  0.1158
  116MOL    H8930219   4.549   7.809   0.467  1.1360  1.5971 -0.0756
  116MOL    H9030220   4.691   7.817   0.362 -0.0081 -1.4909  0.4262
  116MOL    H9130221   4.165   7.556   0.090  2.1394 -2.8982  0.3169
  116MOL    H9230222   4.162   7.683   0.201 -0.7958 -0.5216 -0.3178
  116MOL    C9330223   4.243   7.731   0.008 -0.2808 -0.3309  0.4969
  116MOL    N9430224   4.106   7.780   7.814  0.2940 -0.0851  0.1018
  116MOL    C9530225   4.000   7.706   7.774  0.0088 -1.0145  0.1666
  116MOL    O9630226   4.003   7.585   7.744 -0.1534 -0.3940  0.3934
  116MOL    C9730227   3.866   7.778   7.770 -0.2907  0.3498 -0.2713
  116MOL    C9830228   4.321   7.678   7.727  0.1273 -0.3898 -0.6490
  116MOL    H9930229   4.298   7.817   0.046  1.2667 -1.9784  2.0851
  116MOL   H10030230   4.083   0.034   0.006 -0.4747  0.6465 -2.5592
  116MOL   H10130231   3.832   7.819   0.026 -0.6607  1.3319 -0.8115
  116MOL   H10230232   3.874   0.030   7.712 -0.0122  0.8209  0.4986
  116MOL   H10330233   3.782   7.720   7.732 -0.6275  1.2608 -0.9366
  116MOL   H10430234   4.415   7.633   7.758 -1.1061 -2.3185  0.4148
  116MOL   H10530235   4.265   7.589   7.697  0.5924  0.3301 -3.7942
  116MOL   C10630236   4.354   7.777   7.611 -0.4148 -0.2663  0.3381
  116MOL   N10730237   4.247   7.776   7.512  0.0414  0.5366 -0.0182
  116MOL   C10830238   4.177   0.043   7.469  0.0659 -0.5307 -0.1574
  116MOL   O10930239   4.197   0.160   7.500  0.0409 -0.5668 -0.0248
  116MOL   C11030240   4.053   0.009   7.380 -0.8848  0.0106 -0.5419
  116MOL   C11130241   4.498   7.760   7.546 -0.2938 -0.2992 -1.0783
  116MOL   H11230242   4.361   0.032   7.664 -1.9507 -1.4452  2.7290
  116MOL   H11330243   4.219   7.683   7.484  0.9424  0.7089 -1.4969
  116MOL   H11430244   3.959   0.023   7.432 -0.4028  5.1290 -0.8127
  116MOL   H11530245   4.044   0.080   7.297  0.8370  2.2742  1.1552
  116MOL   H11630246   4.056   7.750   7.333  0.4993  0.3811 -1.2700
  116MOL   H11730247   4.571   7.779   7.625 -1.4343  2.9044 -0.7108
  116MOL   H11830248   4.529   7.661   7.513 -0.4300 -1.2945  1.7187
  116MOL   C11930249   4.532   0.018   7.431 -0.3086  0.5234  0.0217
  116MOL   N12030250   4.487   0.156   7.451  0.1642  0.0580  0.4486
  116MOL   C12130251   4.552   0.263   7.495 -0.6583 -0.2377  0.8689
  116MOL   O12230252   4.498   0.369   7.524  0.1888  0.0420  0.5586
  116MOL   C12330253   4.703   0.259   7.514  0.0794 -0.0007 -0.0549
  116MOL   C12430254   4.490   7.816   7.288 -0.0811 -0.2080  0.2627
  116MOL   H12530255   4.641   0.025   7.431 -0.1900 -1.0456 -1.5987
  116MOL   H12630256   4.386   0.155   7.454  0.0717  0.3754 -1.5039
  116MOL   H12730257   4.758   0.268   7.420 -1.3812  1.7856 -0.7697
  116MOL   H12830258   4.740   0.341   7.574  0.5355 -0.6109  0.5120
  116MOL   H12930259   4.726   0.165   7.564 -2.2058  0.4576  1.9300
  116MOL   H13030260   4.382   7.807   7.283 -0.3403  2.9166 -1.1546
  116MOL   H13130261   4.537   0.051   7.224 -0.5656 -0.3098 -0.2064
  116MOL   C13230262   4.554   7.682   7.238 -0.5705  0.3657 -0.4385
  116MOL   N13330263   4.694   7.676   7.250 -0.0598  0.1677 -0.3950
  116MOL   C13430264   4.787   7.730   7.169  0.3821  1.0243  0.0922
  116MOL   O13530265   4.762   7.776   7.058  0.1268 -0.6434 -0.1666
  116MOL   C13630266   4.932   7.724   7.208  0.3163  0.4312  1.0331
  116MOL   C13730267   4.497   7.640   7.101  0.3869 -0.3802 -0.5941
  116MOL   H13830268   4.515   7.610   7.310 -1.1582  1.2772  0.1523
  116MOL   H13930269   4.732   7.629   7.331 -0.7674  2.9001  1.5756
  116MOL   H14030270   5.000   7.750   7.126 -1.0980 -0.0849 -0.3313
  116MOL   H14130271   4.950   7.801   7.282 -0.2277  0.0705  1.5477
  116MOL   H14230272   4.944   7.622   7.245 -1.2503 -1.5317 -3.4641
  116MOL   H14330273   4.511   7.715   7.024  1.5608  1.6817  1.5782
  116MOL   H14430274   4.570   7.565   7.071 -0.8223 -2.5296  1.6026
  116MOL   C14530275   4.352   7.585   7.101  1.1793  1.0404  0.2721
  116MOL   N14630276   4.336   7.453   7.162  0.8149 -0.3048  0.4496
  116MOL   C14730277   4.294   7.431   7.291  0.3501 -0.1095  0.4505
  116MOL   O14830278   4.251   7.523   7.363  0.4144 -0.3614  0.3844
  116MOL   C14930279   4.293   7.292   7.348  0.0298 -0.3742  0.1599
  116MOL   C15030280   4.295   7.577   6.948 -0.4191 -0.6351  0.0126
  116MOL   H15130281   4.291   7.660   7.152 -2.4564 -1.0784 -0.7476
  116MOL   H15230282   4.370   7.371   7.115 -1.6219 -1.3233  0.3929
  116MOL   H15330283   4.217   7.259   7.419 -1.8760  1.3530 -1.0008
  116MOL   H15430284   4.285   7.217   7.268 -1.6795 -0.8475  0.7555
  116MOL   H15530285   4.387   7.267   7.397  0.7396  0.6643 -0.6407
  116MOL   H15630286   4.348   7.648   6.885 -1.4956  0.8404  0.7525
  116MOL   H15730287   4.331   7.483   6.906 -1.4724 -1.5598  1.1396
  116MOL   C15830288   4.137   7.587   6.937  0.3740 -0.7177 -0.3516
  116MOL   N15930289   4.095   7.545   6.802  0.4857 -0.3931  0.0610
  116MOL   C16030290   4.023   7.433   6.772 -0.4421  0.2811 -1.0557
  116MOL   O16130291   4.002   7.342   6.855  0.1588 -0.2738  0.3132
  116MOL   C16230292   3.964   7.427   6.630  0.2059  0.0473 -0.2882
  116MOL   C16330293   4.085   7.731   6.980  0.5883 -0.1806  0.0574
  116MOL   H16430294   4.089   7.520   7.009  0.1707  2.0139  2.1529
  116MOL   H16530295   4.118   7.611   6.729  0.2157 -1.2662 -0.8380
  116MOL   H16630296   3.949   7.324   6.596 -2.0396  0.7160 -1.4610
  116MOL   H16730297   3.872   7.483   6.612 -0.9368 -0.8970  2.3724
  116MOL   H16830298   4.032   7.470   6.556 -0.4292  0.2460 -0.7585
  116MOL   H16930299   4.089   7.738   7.089 -0.4182  0.0569  0.0834
  116MOL   H17030300   4.158   7.794   6.930 -0.0754 -0.3591 -1.1417
  116MOL   C17130301   3.956   7.780   6.915 -0.1581 -0.8501  0.2998
  116MOL   N17230302   3.961   0.088   6.895 -0.0255 -1.0588  0.3364
  116MOL   C17330303   3.981   0.141   6.774 -0.2506 -0.3303  0.0272
  116MOL   O17430304   3.981   0.070   6.671 -0.0484 -0.1011 -0.6212
  116MOL   C17530305   4.008   0.289   6.766  0.0424  0.2022 -0.3799
  116MOL   C17630306   3.842   7.760   7.006  0.2678  0.1655 -0.2088
  116MOL   H17730307   3.936   7.730   6.820 -1.8412  2.9132 -1.4507
  116MOL   H17830308   3.988   0.142   6.976 -1.0269  1.8567 -1.1882
  116MOL   H17930309   4.025   0.313   6.661  2.0065  0.3857 -0.0465
  116MOL   H18030310   3.924   0.348   6.803 -0.4858  0.1444 -1.4649
  116MOL   H18130311   4.102   0.326   6.806 -1.6568  1.2911  2.7440
  116MOL   H18230312   3.866   7.665   7.053  4.2642  1.5452  0.7493
  116MOL   H18330313   3.827   0.002   7.077 -1.7760  0.0336 -0.4500
  116MOL   C18430314   3.703   7.740   6.935  0.8746 -0.1255  1.2563
  116MOL   N18530315   3.661   0.026   6.876  0.0642 -0.8574  0.0892
  116MOL   C18630316   3.561   0.039   6.794  0.3754 -0.5861 -0.2094
  116MOL   O18730317   3.495   7.789   6.751  0.5179  0.3301  0.6087
  116MOL   C18830318   3.528   0.182   6.739  0.3712 -0.2667 -0.5327
  116MOL   C18930319   3.594   7.682   7.032  0.2012  0.2908  0.4010
  116MOL   H19030320   3.710   7.673   6.850 -0.6065  2.5346 -1.0363
  116MOL   H19130321   3.703   0.106   6.921 -0.3479 -0.8203  0.4097
  116MOL   H19230322   3.449   0.216   6.805  0.8009 -1.3542  0.5554
  116MOL   H19330323   3.614   0.248   6.727  0.1813  0.1489  0.3215
  116MOL   H19430324   3.483   0.169   6.641  0.4786 -2.3400 -0.3252
  116MOL   H19530325   3.614   7.731   7.127 -0.7073  1.7679 -0.1442
  116MOL   H19630326   3.493   7.713   7.005  0.1454  0.4005  0.7317
  116MOL   C19730327   3.592   7.522   7.027 -0.4452  0.0496  0.1787
  116MOL   N19830328   3.542   7.482   6.896  0.5197 -0.5820 -0.1075
  116MOL   C19930329   3.584   7.381   6.818 -0.2378 -0.8477  0.4246
  116MOL   O20030330   3.653   7.289   6.864  0.2804  0.8451  0.0082
  116MOL   C20130331   3.541   7.391   6.675 -0.6867  0.2714 -0.5325
  116MOL   C20230332   3.506   7.458   7.139  0.1237  0.2004 -0.5119
  116MOL   H20330333   3.694   7.484   7.038 -1.0593 -1.8487 -0.4915
  116MOL   H20430334   3.481   7.550   6.853  0.6027 -0.0217  0.6585
  116MOL   H20530335   3.444   7.439   6.663 -0.4554  1.0629  0.6431
  116MOL   H20630336   3.610   7.447   6.612 -0.3869  1.2242  0.6187
  116MOL   H20730337   3.540   7.288   6.640  1.0407  0.2318 -0.4900
  116MOL   H20830338   3.405   7.493   7.116  0.0811 -0.6714 -1.6598
  116MOL   H20930339   3.501   7.350   7.124 -0.8506  0.4356 -1.9780
  116MOL   C21030340   3.536   7.490   7.285  0.5767  0.2086  0.2021
  116MOL   N21130341   3.676   7.464   7.320  0.0663 -0.1708 -0.1698
  116MOL   C21230342   3.772   7.555   7.358 -0.0362 -0.0507 -0.4411
  116MOL   O21330343   3.753   7.671   7.382  0.1060  0.2132  0.1353
  116MOL   C21430344   3.918   7.481   7.381  0.0974  0.5172 -0.2274
  116MOL   C21530345   3.448   7.392   7.371 -0.4243  0.2390 -0.0064
  116MOL   H21630346   3.521   7.596   7.308 -1.5610  0.3140 -1.4869
  116MOL   H21730347   3.714   7.372   7.301  0.7922 -0.1713  1.2017
  116MOL   H21830348   3.908   7.380   7.422 -0.7195  1.0865  0.9944
  116MOL   H21930349   3.983   7.486   7.294  0.0172  1.9248 -0.2225
  116MOL   H22030350   3.961   7.530   7.468 -2.8742 -2.3419  3.0244
  116MOL   H22130351   3.451   7.291   7.328  1.8840 -1.1695  3.2189
  116MOL   H22230352   3.492   7.385   7.471 -0.9885  3.1152  0.4809
  116MOL   C22330353   3.300   7.444   7.390  0.2232 -0.0010  0.8770
  116MOL   N22430354   3.291   7.562   7.472 -0.3769  0.1718 -0.4662
  116MOL   C22530355   3.302   7.575   7.607 -0.4781  0.0147 -0.3682
  116MOL   O22630356   3.327   7.487   7.686  0.3518 -0.0831  0.5065
  116MOL   C22730357   3.279   7.713   7.655 -0.8998 -0.5775  0.4352
  116MOL   C22830358   3.201   7.333   7.436  0.6834 -0.6811 -0.8808
  116MOL   H22930359   3.275   7.466   7.286 -0.7401 -1.5140  0.7779
  116MOL   H23030360   3.287   7.651   7.424 -0.9611  0.6014  0.3653
  116MOL   H23130361   3.372   7.769   7.651 -1.2677 -0.0748 -2.3575
  116MOL   H23230362   3.202   7.763   7.597 -0.2993  0.8333  0.8332
  116MOL   H23330363   3.244   7.711   7.758  2.5500  1.5652  1.7350
  116MOL   H23430364   3.208   7.238   7.383 -0.6108 -2.0945  1.4277
  116MOL   H23530365   3.216   7.308   7.541 -1.6149  0.4454 -0.2524
  116MOL   C23630366   3.057   7.378   7.443 -0.3832 -0.0451 -0.2186
  116MOL   N23730367   2.986   7.256   7.479  0.6219  0.1059  0.1002
  116MOL   C23830368   2.904   7.252   7.587  0.0171 -0.1280  0.2154
  116MOL   O23930369   2.871   7.351   7.650  0.3467  0.2529 -0.3859
  116MOL   C24030370   2.844   7.122   7.623 -0.0162  0.1909  0.3125
  116MOL   C24130371   3.002   7.438   7.310 -0.3279  0.4808 -0.0719
  116MOL   H24230372   3.055   7.451   7.524  1.0293 -2.4222  2.0194
  116MOL   H24330373   3.003   7.179   7.416  0.3134  1.0817 -1.1896
  116MOL   H24430374   2.908   7.036   7.602 -0.7051 -0.0988 -0.6104
  116MOL   H24530375   2.805   7.123   7.725  0.1752  1.4409  0.3778
  116MOL   H24630376   2.755   7.117   7.561 -1.7303  1.0937  2.6387
  116MOL   H24730377   3.072   7.514   7.276  1.3209 -0.6316  0.7810
  116MOL   H24830378   2.998   7.359   7.235 -3.1910  0.4310  0.0715
  116MOL   C24930379   2.862   7.507   7.327  0.3861 -0.1737  0.2464
  116MOL   N25030380   2.826   7.567   7.199 -0.0229  0.1106 -0.5856
  116MOL   C25130381   2.788   7.513   7.082  0.7082  0.4613 -0.2353
  116MOL   O25230382   2.806   7.566   6.972 -0.1965 -0.9903  0.2246
  116MOL   C25330383   2.717   7.371   7.096 -0.0503  0.2717  0.0637
  116MOL   C25430384   2.856   7.623   7.432  0.4702  0.2288 -0.0677
  116MOL   H25530385   2.787   7.430   7.343 -2.6173  2.4748 -0.5474
  116MOL   H25630386   2.861   7.660   7.181  4.3131 -0.7625  2.4279
  116MOL   H25730387   2.642   7.369   7.175 -1.1557 -0.3971 -0.9823
  116MOL   H25830388   2.668   7.340   7.003 -1.3344  1.4384  0.3478
  116MOL   H25930389   2.791   7.303   7.137 -1.6471 -0.3485  1.9549
  116MOL   H26030390   2.903   7.718   7.407 -1.6654  0.5400 -3.2325
  116MOL   H26130391   2.753   7.653   7.452  0.5877  0.9264 -0.4817
  116MOL   H26230392   2.887   7.588   7.530  0.2056  0.9811  0.2868
  117MOL     C130393   2.678   6.217   0.683  0.4615  0.1125 -0.6685
  117MOL     N230394   2.548   6.174   0.625 -0.3168 -0.0488  0.5449
  117MOL     C330395   2.540   6.077   0.533  0.2922 -0.6061 -0.0593
  117MOL     O430396   2.615   5.979   0.524 -0.0383 -0.3941  0.5032
  117MOL     C530397   2.427   6.103   0.431  0.4286 -0.0520 -0.4605
  117MOL     C630398   2.667   6.283   0.822 -0.2971 -0.1077  0.1706
  117MOL     H730399   2.751   6.136   0.684  1.3699  0.9121  0.8369
  117MOL     H830400   2.483   6.251   0.624  1.5426  1.6323  2.4724
  117MOL     H930401   2.459   6.053   0.339 -0.6347  0.1943 -0.9739
  117MOL    H1030402   2.331   6.075   0.474  0.9819 -0.8430  0.2759
  117MOL    H1130403   2.422   6.207   0.399  2.4627 -0.1445 -1.1444
  117MOL    H1230404   2.608   6.375   0.811  1.0945  0.6846 -0.7359
  117MOL    H1330405   2.594   6.225   0.880  1.3283  0.3626  2.7853
  117MOL    H1430406   2.731   6.292   0.625 -1.5943  0.0154 -2.6978
  117MOL    C1530407   2.805   6.315   0.884 -0.2841 -0.0479 -1.3474
  117MOL    N1630408   2.780   6.345   1.033 -0.1972  0.3138 -0.0195
  117MOL    C1730409   2.847   6.290   1.127 -0.3468  0.0926  0.2315
  117MOL    O1830410   2.957   6.228   1.110  0.8764  0.4152 -0.4676
  117MOL    C1930411   2.804   6.310   1.263  0.4671 -0.5413  0.2928
  117MOL    C2030412   2.880   6.437   0.825  0.0250 -0.8907 -0.3892
  117MOL    H2130413   2.865   6.225   0.873 -0.6608 -0.3745 -0.7783
  117MOL    H2230414   2.699   6.404   1.043 -0.6689 -0.4003  0.3728
  117MOL    H2330415   2.880   6.346   1.331  1.5883  0.1398 -1.2815
  117MOL    H2430416   2.718   6.377   1.267  0.1948 -0.7870 -1.0626
  117MOL    H2530417   2.761   6.221   1.311 -1.5515  0.3553  0.2202
  117MOL    H2630418   2.886   6.426   0.717  0.1970  1.5885 -0.6651
  117MOL    H2730419   2.825   6.531   0.835  2.3704  0.3066  1.8649
  117MOL    C2830420   3.026   6.456   0.874  0.1473 -0.0837 -0.6625
  117MOL    N2930421   3.073   6.593   0.850  0.1535  0.1457  0.3801
  117MOL    C3030422   3.088   6.655   0.728  0.2163  0.6097 -0.2702
  117MOL    O3130423   3.047   6.612   0.620  0.4806  0.5991  0.0540
  117MOL    C3230424   3.159   6.783   0.735  0.0354 -1.1357  0.0759
  117MOL    C3330425   3.121   6.347   0.818 -0.2466 -0.2126 -0.1115
  117MOL    H3430426   3.023   6.449   0.982 -0.9283  2.6400 -0.4765
  117MOL    H3530427   3.112   6.639   0.931  4.1305  2.3076 -2.5648
  117MOL    H3630428   3.220   6.815   0.652 -1.1633  1.6331  0.2243
  117MOL    H3730429   3.087   6.864   0.734  0.2725 -0.9264  0.0112
  117MOL    H3830430   3.209   6.798   0.831 -3.6539 -0.6611  2.0318
  117MOL    H3930431   3.086   6.247   0.841  0.2414 -0.4683 -0.4826
  117MOL    H4030432   3.123   6.359   0.710  0.8453 -2.1301 -0.3298
  117MOL    C4130433   3.262   6.358   0.872 -0.4528 -0.0210  0.8115
  117MOL    N4230434   3.353   6.267   0.799  0.8862 -0.1031  0.6029
  117MOL    C4330435   3.461   6.298   0.725  0.5654  0.6216 -0.5401
  117MOL    O4430436   3.479   6.401   0.671 -0.2519  0.4446  0.4465
  117MOL    C4530437   3.566   6.188   0.730 -0.0799  0.5548  0.1570
  117MOL    C4630438   3.283   6.307   1.023  0.4454 -0.3530  0.6559
  117MOL    H4730439   3.300   6.458   0.856 -0.4066 -0.1678  0.0164
  117MOL    H4830440   3.339   6.169   0.822 -3.4583 -0.4321 -2.8704
  117MOL    H4930441   3.565   6.124   0.818 -4.6844  2.5297  1.7062
  117MOL    H5030442   3.550   6.121   0.645 -0.5555  1.9948 -0.9214
  117MOL    H5130443   3.669   6.225   0.725  0.6637 -1.3381  1.2303
  117MOL    H5230444   3.195   6.249   1.048  0.3613 -0.9654 -0.9929
  117MOL    H5330445   3.373   6.246   1.029 -0.0007 -1.1692 -0.6850
  117MOL    C5430446   3.304   6.408   1.140 -0.6046 -0.2024 -0.0576
  117MOL    N5530447   3.386   6.522   1.107  0.4842  0.6546 -0.0318
  117MOL    C5630448   3.337   6.642   1.072  0.5307 -0.3733 -0.0906
  117MOL    O5730449   3.219   6.667   1.099  0.0913 -0.2073  0.3374
  117MOL    C5830450   3.438   6.727   0.994  0.1479  0.2897 -0.8096
  117MOL    C5930451   3.369   6.339   1.266 -0.2682  0.2449 -0.6665
  117MOL    H6030452   3.206   6.440   1.174 -0.2322 -0.9311  1.7584
  117MOL    H6130453   3.484   6.503   1.089  0.0910 -0.5275 -1.0202
  117MOL    H6230454   3.442   6.693   0.890 -1.1209 -0.5077 -0.6125
  117MOL    H6330455   3.400   6.829   0.997 -0.5646  0.0346 -0.8708
  117MOL    H6430456   3.539   6.718   1.033 -0.4020 -2.5587  0.0619
  117MOL    H6530457   3.445   6.268   1.233 -0.3012 -0.9521  1.7228
  117MOL    H6630458   3.420   6.403   1.338 -0.0188 -2.1473  1.3628
  117MOL    C6730459   3.284   6.246   1.354 -0.1205 -0.2969 -0.3315
  117MOL    N6830460   3.216   6.137   1.279  0.0544 -0.7682 -0.1191
  117MOL    C6930461   3.234   6.006   1.293  0.7066 -0.1056  0.5009
  117MOL    O7030462   3.320   5.952   1.362 -0.3645 -0.0826 -0.1397
  117MOL    C7130463   3.134   5.917   1.235  0.0808 -0.0451 -0.2230
  117MOL    C7230464   3.182   6.320   1.439  0.3686  0.3729  0.2262
  117MOL    H7330465   3.344   6.205   1.435 -0.0982  1.5975  0.6481
  117MOL    H7430466   3.138   6.161   1.219 -0.1959 -1.2284  0.0186
  117MOL    H7530467   3.132   5.900   1.127  1.5683 -2.1818  0.0643
  117MOL    H7630468   3.142   5.814   1.270  0.6497 -1.3658 -3.9704
  117MOL    H7730469   3.033   5.951   1.255 -0.4751 -3.2224  2.8791
  117MOL    H7830470   3.116   6.356   1.359 -1.0663 -1.7967  0.3956
  117MOL    H7930471   3.126   6.239   1.485 -0.0072 -0.6951 -2.0183
  117MOL    C8030472   3.221   6.417   1.545  0.5892  0.2260  0.0003
  117MOL    N8130473   3.232   6.353   1.676 -0.0496  0.6327  0.2945
  117MOL    C8230474   3.334   6.367   1.760  0.0779  0.0785  0.0890
  117MOL    O8330475   3.435   6.436   1.744 -0.0616  0.1736 -0.2973
  117MOL    C8430476   3.317   6.275   1.881  0.2735 -0.6387 -0.0058
  117MOL    C8530477   3.101   6.519   1.569  0.0977 -0.5739  0.4579
  117MOL    H8630478   3.311   6.468   1.511 -0.5436  1.7570 -0.7218
  117MOL    H8730479   3.176   6.268   1.681 -0.6062  0.9141 -0.9612
  117MOL    H8830480   3.263   6.328   1.959 -1.9576 -1.0667 -1.2336
  117MOL    H8930481   3.247   6.198   1.850 -0.6003 -0.5203  1.6109
  117MOL    H9030482   3.411   6.229   1.915  0.8584  1.4752  1.3356
  117MOL    H9130483   3.010   6.460   1.573 -0.9708  0.8594 -2.1066
  117MOL    H9230484   3.119   6.585   1.654  1.6119  1.1688 -1.1691
  117MOL    C9330485   3.061   6.608   1.446 -0.7619  0.0699 -0.9384
  117MOL    N9430486   3.182   6.678   1.386  0.1628 -0.3620  0.3043
  117MOL    C9530487   3.231   6.798   1.433  0.0158  0.4483 -0.9825
  117MOL    O9630488   3.202   6.846   1.542  1.1276 -0.2586  0.0730
  117MOL    C9730489   3.328   6.871   1.345  0.4074 -0.4222  0.4672
  117MOL    C9830490   2.952   6.707   1.488  0.2692 -0.2637  0.2492
  117MOL    H9930491   3.025   6.540   1.369  0.3467 -0.6952 -0.7986
  117MOL   H10030492   3.198   6.659   1.289 -1.4747  0.4881 -0.1559
  117MOL   H10130493   3.297   6.974   1.361  1.0505 -0.0657 -0.5197
  117MOL   H10230494   3.429   6.877   1.385 -0.5276  0.9201  2.7191
  117MOL   H10330495   3.326   6.836   1.242  1.0935 -0.4250  0.4531
  117MOL   H10430496   2.978   6.774   1.570 -1.9448  0.4525  0.3913
  117MOL   H10530497   2.938   6.765   1.397 -1.6410  1.3214  1.4969
  117MOL   C10630498   2.812   6.644   1.522  0.3426  0.8761 -0.2152
  117MOL   N10730499   2.701   6.731   1.476  0.0752  0.4833 -0.3840
  117MOL   C10830500   2.576   6.685   1.447  0.0317  0.0584 -0.5406
  117MOL   O10930501   2.554   6.559   1.440 -0.5131 -0.2673  0.3492
  117MOL   C11030502   2.467   6.781   1.436 -0.0178 -0.0320  0.6524
  117MOL   C11130503   2.786   6.589   1.668 -0.2472  0.4406 -1.1629
  117MOL   H11230504   2.802   6.552   1.464 -0.3594  0.4169  0.6256
  117MOL   H11330505   2.700   6.829   1.498 -0.3306  0.2599  0.6310
  117MOL   H11430506   2.410   6.759   1.346 -0.1795 -2.4391  1.3130
  117MOL   H11530507   2.390   6.779   1.514 -0.3859 -0.3648  0.2812
  117MOL   H11630508   2.495   6.885   1.422 -1.1951  0.3487  1.0048
  117MOL   H11730509   2.721   6.503   1.653 -2.5368  2.1118 -1.0148
  117MOL   H11830510   2.878   6.543   1.703 -0.0859  1.6302  0.0491
  117MOL   C11930511   2.723   6.694   1.766 -0.6338 -0.1587 -0.6560
  117MOL   N12030512   2.824   6.796   1.806  0.1232 -1.0960 -0.1714
  117MOL   C12130513   2.827   6.922   1.754  0.1784  0.4224 -0.0252
  117MOL   O12230514   2.758   6.954   1.659  0.6468 -0.6890 -0.4400
  117MOL   C12330515   2.930   7.013   1.812 -0.1197 -0.4538 -0.2492
  117MOL   C12430516   2.680   6.611   1.895  0.4050 -0.2178  0.2876
  117MOL   H12530517   2.635   6.738   1.718  0.2808 -0.7870 -2.9554
  117MOL   H12630518   2.895   6.773   1.874  0.4674 -1.2934 -0.5952
  117MOL   H12730519   2.882   7.104   1.846 -2.2583 -1.6947  0.1709
  117MOL   H12830520   2.974   6.957   1.894  1.8101  0.8814 -0.3536
  117MOL   H12930521   3.011   7.034   1.742  0.7952  2.2042  1.5477
  117MOL   H13030522   2.632   6.516   1.870  1.9989 -0.9528 -0.0163
  117MOL   H13130523   2.771   6.581   1.948  0.3625 -1.0061 -0.0778
  117MOL   C13230524   2.575   6.682   1.993 -0.2353  0.4047  0.0684
  117MOL   N13330525   2.584   6.827   1.991  0.2722 -0.8224 -0.3663
  117MOL   C13430526   2.499   6.908   1.918  0.4689 -1.0591  0.1412
  117MOL   O13530527   2.403   6.867   1.852 -0.3463 -0.2762  0.0534
  117MOL   C13630528   2.539   7.056   1.914  0.2955 -0.2927 -0.7480
  117MOL   C13730529   2.591   6.637   2.139  0.0777 -0.3750  0.2052
  117MOL   H13830530   2.477   6.658   1.951 -0.6770  0.9859  0.7595
  117MOL   H13930531   2.668   6.872   2.025 -1.1165  0.1327  1.9503
  117MOL   H14030532   2.586   7.083   2.009 -1.1714 -2.7330  0.7335
  117MOL   H14130533   2.611   7.078   1.835  1.6476 -1.4234  0.1326
  117MOL   H14230534   2.450   7.117   1.901 -0.4739 -1.1896  0.1892
  117MOL   H14330535   2.692   6.666   2.168  1.2395 -2.1018 -1.9342
  117MOL   H14430536   2.519   6.692   2.200  2.1266  2.2126  0.3787
  117MOL   C14530537   2.584   6.495   2.170 -0.1203 -1.0355  0.1296
  117MOL   N14630538   2.464   6.439   2.119 -0.1465 -0.3675  0.2418
  117MOL   C14730539   2.440   6.355   2.020 -0.4273  0.1034  0.3035
  117MOL   O14830540   2.538   6.304   1.965 -0.3680 -0.1998  0.1037
  117MOL   C14930541   2.301   6.300   1.995 -0.2367  0.4360 -0.1899
  117MOL   C15030542   2.600   6.471   2.325  0.3207  0.3750  0.5768
  117MOL   H15130543   2.668   6.440   2.128  0.3244 -2.1087  2.3486
  117MOL   H15230544   2.381   6.466   2.171  0.2626 -0.6599  1.0403
  117MOL   H15330545   2.272   6.240   2.081  1.4994 -0.5608 -0.2676
  117MOL   H15430546   2.223   6.374   1.981 -2.2834 -1.6856 -0.3136
  117MOL   H15530547   2.294   6.231   1.911 -0.2997  0.7892 -0.4774
  117MOL   H15630548   2.695   6.511   2.362  1.1318 -2.2991  1.5022
  117MOL   H15730549   2.529   6.537   2.374  0.1492  0.3352  0.3809
  117MOL   C15830550   2.591   6.327   2.375 -0.0971  0.1378  0.2833
  117MOL   N15930551   2.624   6.330   2.519  0.4298  0.0799 -0.3149
  117MOL   C16030552   2.548   6.280   2.620  0.4504 -0.0370  0.3462
  117MOL   O16130553   2.443   6.228   2.592  0.3929 -0.6649  0.0953
  117MOL   C16230554   2.587   6.293   2.761 -0.5869 -0.3300 -0.6419
  117MOL   C16330555   2.667   6.217   2.295 -0.5753  0.0231  0.4171
  117MOL   H16430556   2.484   6.304   2.370  0.3505 -1.9687 -0.2369
  117MOL   H16530557   2.711   6.376   2.544  0.3553  0.0262  0.0488
  117MOL   H16630558   2.517   6.242   2.828 -0.1820 -0.0589 -0.0045
  117MOL   H16730559   2.687   6.251   2.776 -1.4200 -1.9732  0.5238
  117MOL   H16830560   2.605   6.397   2.788  0.5879 -0.7845  0.3779
  117MOL   H16930561   2.660   6.118   2.340 -2.4195 -0.1234 -0.1587
  117MOL   H17030562   2.619   6.198   2.199 -0.7471 -1.6857  0.8260
  117MOL   C17130563   2.822   6.241   2.259  0.0658  0.2390  0.4045
  117MOL   N17230564   2.841   6.203   2.117  0.4819 -0.6692  0.7842
  117MOL   C17330565   2.908   6.280   2.029  0.1758 -0.0279 -0.6454
  117MOL   O17430566   2.961   6.388   2.051  0.4287  0.0718 -0.0133
  117MOL   C17530567   2.906   6.226   1.888 -0.1008  0.1643 -0.1728
  117MOL   C17630568   2.917   6.169   2.354  0.6608  0.7554  0.4744
  117MOL   H17730569   2.831   6.349   2.271 -0.5704  0.4751 -1.1066
  117MOL   H17830570   2.807   6.120   2.072  1.7523 -0.5214 -0.4708
  117MOL   H17930571   2.967   6.286   1.820 -1.0138  2.3710  0.9153
  117MOL   H18030572   2.955   6.129   1.875 -1.4469 -0.3792 -1.4304
  117MOL   H18130573   2.810   6.221   1.836 -0.4816  2.9303  0.1829
  117MOL   H18230574   2.888   6.192   2.457 -1.7995 -1.3463  0.3196
  117MOL   H18330575   2.908   6.061   2.342  1.0402  0.9186 -1.3872
  117MOL   C18430576   3.060   6.225   2.358 -0.5780 -0.2786  0.1752
  117MOL   N18530577   3.146   6.125   2.426 -0.0296  0.2276  0.1185
  117MOL   C18630578   3.209   6.023   2.359 -0.0705 -0.5703 -0.5065
  117MOL   O18730579   3.178   6.001   2.238 -0.1140 -0.0713  0.5507
  117MOL   C18830580   3.316   5.946   2.430  0.2455 -0.0479 -0.5442
  117MOL   C18930581   3.074   6.366   2.418 -0.1009 -0.1056  0.5018
  117MOL   H19030582   3.092   6.243   2.255 -0.3142 -1.9441 -0.0456
  117MOL   H19130583   3.155   6.138   2.526  3.4060  1.3089 -0.2360
  117MOL   H19230584   3.379   5.896   2.357 -0.3883 -1.0117 -0.4487
  117MOL   H19330585   3.377   6.022   2.479  0.2675  0.2822 -1.0909
  117MOL   H19430586   3.267   5.880   2.503 -0.2425 -0.9341 -1.6591
  117MOL   H19530587   2.981   6.414   2.389 -0.4840 -0.8578  0.4945
  117MOL   H19630588   3.073   6.372   2.527  2.5358 -0.4238  0.5764
  117MOL   C19730589   3.198   6.444   2.372  0.3048 -0.7861 -0.1276
  117MOL   N19830590   3.313   6.390   2.447  0.5066  0.5244 -0.7806
  117MOL   C19930591   3.430   6.367   2.392  0.6466  0.1437  0.4967
  117MOL   O20030592   3.464   6.406   2.279  0.3165 -0.4011  0.1648
  117MOL   C20130593   3.535   6.281   2.477  0.5237  0.2419 -0.4861
  117MOL   C20230594   3.182   6.590   2.422  0.3723  0.4525 -0.1856
  117MOL   H20330595   3.206   6.434   2.264 -1.6749  0.6751 -0.4371
  117MOL   H20430596   3.291   6.351   2.538  1.4796 -0.3032 -0.8988
  117MOL   H20530597   3.588   6.220   2.404 -2.1628 -0.1349 -2.2101
  117MOL   H20630598   3.604   6.330   2.546  0.5945  0.1637 -0.5019
  117MOL   H20730599   3.476   6.217   2.543  1.8804 -1.4609 -0.8851
  117MOL   H20830600   3.145   6.588   2.524 -3.2008  0.2477 -1.3903
  117MOL   H20930601   3.279   6.639   2.429 -0.5507  2.1541  0.8304
  117MOL   C21030602   3.087   6.681   2.346  0.3910 -0.2379 -0.1225
  117MOL   N21130603   3.122   6.661   2.205 -0.1652  0.0996  0.5423
  117MOL   C21230604   3.042   6.691   2.103 -0.0399  0.1372 -0.2817
  117MOL   O21330605   2.927   6.734   2.114  0.7894 -0.2588  0.4374
  117MOL   C21430606   3.094   6.674   1.958 -0.4635 -0.0484  0.0104
  117MOL   C21530607   3.103   6.833   2.378 -0.4150  0.1872 -0.7876
  117MOL   H21630608   2.986   6.641   2.354  0.8372 -1.8814 -2.1736
  117MOL   H21730609   3.207   6.610   2.185  0.3203  0.8177  0.7487
  117MOL   H21830610   3.106   6.771   1.908  0.6807  0.3719  1.0932
  117MOL   H21930611   3.190   6.624   1.965  0.1013  0.8665 -1.0661
  117MOL   H22030612   3.044   6.595   1.902 -0.7287 -0.6993  1.1589
  117MOL   H22130613   3.099   6.834   2.487 -0.6139 -0.8985 -0.7875
  117MOL   H22230614   3.206   6.867   2.367 -0.7378  0.7844 -2.1220
  117MOL   C22330615   3.004   6.943   2.340 -0.7450 -0.2484 -0.2353
  117MOL   N22430616   2.868   6.896   2.337 -0.9569  0.2587 -0.5230
  117MOL   C22530617   2.769   6.924   2.417  0.6749 -0.2294  0.3327
  117MOL   O22630618   2.787   6.967   2.529 -0.0425 -0.1434  0.2589
  117MOL   C22730619   2.627   6.889   2.377  0.7962  0.1740  0.2521
  117MOL   C22830620   3.041   7.024   2.213 -0.2710 -0.6641 -0.6715
  117MOL   H22930621   3.007   7.017   2.421 -1.7623 -0.2486 -0.1881
  117MOL   H23030622   2.854   6.819   2.272 -1.0281 -0.5918  0.4799
  117MOL   H23130623   2.609   6.782   2.390  1.4960  0.2202  1.7531
  117MOL   H23230624   2.553   6.939   2.440 -0.3154  0.1700 -1.0404
  117MOL   H23330625   2.606   6.920   2.275  0.4439 -0.7968  0.0314
  117MOL   H23430626   3.070   6.944   2.144 -0.5539 -0.9159 -0.4964
  117MOL   H23530627   2.955   7.081   2.178 -0.3331  0.8097  1.8169
  117MOL   C23630628   3.162   7.124   2.234  0.7414 -0.8390  0.6022
  117MOL   N23730629   3.099   7.248   2.294  0.1212 -0.4152 -1.0063
  117MOL   C23830630   3.128   7.306   2.415 -0.2265 -1.4816  0.6370
  117MOL   O23930631   3.195   7.246   2.496 -0.1143 -0.5456 -0.2172
  117MOL   C24030632   3.077   7.444   2.440  0.8021 -0.1930  0.4725
  117MOL   C24130633   3.227   7.163   2.092  0.2075 -0.1255 -1.7318
  117MOL   H24230634   3.236   7.093   2.308  0.0991 -0.9714  1.2008
  117MOL   H24330635   3.062   7.307   2.220 -0.2948 -2.1775 -2.2328
  117MOL   H24430636   3.140   7.531   2.422 -2.6263  1.7947 -2.6661
  117MOL   H24530637   2.979   7.458   2.395  0.7587 -2.0303 -0.0609
  117MOL   H24630638   3.049   7.459   2.544 -0.0178 -0.4267  0.2887
  117MOL   H24730639   3.164   7.162   2.004 -1.1932 -0.7106 -0.7489
  117MOL   H24830640   3.251   7.269   2.099  1.7326 -0.5296 -0.3710
  117MOL   C24930641   3.361   7.088   2.084 -0.2321  0.3180 -0.5534
  117MOL   N25030642   3.422   7.150   1.961 -0.5073 -0.3657  0.3378
  117MOL   C25130643   3.527   7.240   1.967  0.4020  0.6440  0.2170
  117MOL   O25230644   3.579   7.271   2.076  0.4383 -0.0089  0.0025
  117MOL   C25330645   3.557   7.299   1.832 -0.5613  0.0152 -0.2776
  117MOL   C25430646   3.351   6.941   2.064  0.0531  0.1473  0.3478
  117MOL   H25530647   3.422   7.107   2.172 -1.7376  0.4080  0.4927
  117MOL   H25630648   3.380   7.127   1.872 -0.4230 -2.5399  0.8439
  117MOL   H25730649   3.502   7.391   1.815 -2.1343 -0.1488  3.2729
  117MOL   H25830650   3.663   7.324   1.832  0.1563 -2.8465 -1.4711
  117MOL   H25930651   3.529   7.227   1.756  0.0341  1.5820 -1.9992
  117MOL   H26030652   3.316   6.898   2.158  0.9575 -0.0345  0.6062
  117MOL   H26130653   3.297   6.907   1.976  1.6152  0.8811 -0.9219
  117MOL   H26230654   3.448   6.892   2.053  0.4000  1.0310 -0.5723
  118MOL     C130655   1.277   1.535   0.285 -0.5235  0.3399  0.0435
  118MOL     N230656   1.296   1.390   0.259 -0.0063  0.2922 -0.2080
  118MOL     C330657   1.239   1.290   0.323 -0.1305 -0.7927 -0.0837
  118MOL     O430658   1.166   1.307   0.416  0.2195  0.2396  0.2892
  118MOL     C530659   1.270   1.152   0.268  0.6520  0.1383  0.6154
  118MOL     C630660   1.380   1.617   0.208  0.4513 -0.2427  0.4847
  118MOL     H730661   1.179   1.577   0.263 -1.0072 -0.5775  0.4370
  118MOL     H830662   1.353   1.363   0.179  0.7102  0.8307  0.1118
  118MOL     H930663   1.258   1.146   0.160  0.7710  1.2268  0.5335
  118MOL    H1030664   1.370   1.124   0.301  1.2619  0.8850 -0.5550
  118MOL    H1130665   1.205   1.076   0.311 -1.3150  0.3613 -1.8693
  118MOL    H1230666   1.359   1.600   0.102  3.4562 -0.2068 -0.1689
  118MOL    H1330667   1.354   1.722   0.224 -2.4400 -1.0944  1.7512
  118MOL    H1430668   1.287   1.555   0.391  0.6590 -2.3619  0.4703
  118MOL    C1530669   1.526   1.593   0.242  0.0305 -0.2199  0.5579
  118MOL    N1630670   1.552   1.609   0.381 -0.5473 -0.0929  0.1375
  118MOL    C1730671   1.644   1.543   0.451 -0.6532  0.3804  0.1879
  118MOL    O1830672   1.735   1.483   0.390  0.2737 -0.4585  0.0871
  118MOL    C1930673   1.632   1.538   0.598 -0.4007 -0.2314 -0.0224
  118MOL    C2030674   1.621   1.664   0.147  0.5313 -0.0166 -0.5502
  118MOL    H2130675   1.551   1.487   0.234  0.7612 -0.0540  0.6293
  118MOL    H2230676   1.499   1.676   0.434 -0.3537  0.9119 -0.9089
  118MOL    H2330677   1.634   1.638   0.643  0.0677  0.6951 -2.0172
  118MOL    H2430678   1.550   1.473   0.628  0.4607 -0.9884  0.6864
  118MOL    H2530679   1.716   1.485   0.641  2.2228  0.9701 -3.4788
  118MOL    H2630680   1.607   1.772   0.141  2.6220  0.2920 -0.2467
  118MOL    H2730681   1.723   1.660   0.185 -0.1253  1.0923  1.3764
  118MOL    C2830682   1.622   1.611   7.840  0.3027  0.2743 -0.7128
  118MOL    N2930683   1.681   1.474   7.823  0.1883  0.1381  0.1836
  118MOL    C3030684   1.616   1.357   0.003 -0.3652 -0.5722  0.8580
  118MOL    O3130685   1.496   1.344   0.028  0.3904  0.6039  0.3322
  118MOL    C3230686   1.706   1.244   7.821  0.3156  0.4926 -0.0883
  118MOL    C3330687   1.692   1.710   7.746  0.0032  0.0588 -0.2468
  118MOL    H3430688   1.519   1.617   7.803 -0.4056  1.8605  1.4065
  118MOL    H3530689   1.776   1.478   7.788 -1.3917  4.5332 -4.2610
  118MOL    H3630690   1.665   1.151   0.021  1.4430  0.0980  0.1699
  118MOL    H3730691   1.732   1.226   7.717  2.0349 -2.6098  0.8294
  118MOL    H3830692   1.795   1.247   0.044  0.2553  0.3828  0.0039
  118MOL    H3930693   1.687   1.683   7.640  3.5445  0.2972 -0.5463
  118MOL    H4030694   1.622   1.793   7.739  0.1274  0.2898  1.2999
  118MOL    C4130695   1.834   1.759   7.772 -0.0357  0.2769 -0.6307
  118MOL    N4230696   1.834   1.862   0.038  0.5313  0.1468  0.0039
  118MOL    C4330697   1.926   1.888   0.128 -0.0625  0.1859  0.3106
  118MOL    O4430698   2.029   1.825   0.137 -0.0804 -0.0644  0.3679
  118MOL    C4530699   1.901   2.000   0.232  0.2824 -0.3916  0.1318
  118MOL    C4630700   1.913   1.802   7.646  0.1901  0.2447 -0.3123
  118MOL    H4730701   1.886   1.674   7.815 -2.5435 -1.4976 -0.9928
  118MOL    H4830702   1.752   1.921   0.044  0.7289  0.3907  0.3217
  118MOL    H4930703   1.956   1.981   0.324  2.7633 -1.3648 -1.5001
  118MOL    H5030704   1.935   2.098   0.199 -1.3580  0.1882  0.0888
  118MOL    H5130705   1.796   2.017   0.257  0.7029  0.9571  1.0710
  118MOL    H5230706   1.843   1.869   7.596  1.2241  1.1066 -0.6463
  118MOL    H5330707   1.996   1.871   7.665  1.4331 -0.9911 -1.1808
  118MOL    C5430708   1.963   1.691   7.546  0.0021 -0.4467  0.0071
  118MOL    N5530709   2.062   1.603   7.616  0.7369 -0.0645  0.5751
  118MOL    C5630710   2.041   1.480   7.655  0.6355 -0.5551  0.1085
  118MOL    O5730711   1.934   1.413   7.643 -0.0394  0.1516 -0.3261
  118MOL    C5830712   2.157   1.413   7.726 -0.7829  0.4534 -0.0461
  118MOL    C5930713   2.019   1.755   7.414 -0.1068  0.2294  0.5891
  118MOL    H6030714   1.881   1.627   7.513 -0.3313  0.1615 -0.3541
  118MOL    H6130715   2.153   1.644   7.632 -0.0015  2.2602 -0.8737
  118MOL    H6230716   2.162   1.436   7.832 -0.0744 -0.5649  0.1420
  118MOL    H6330717   2.148   1.305   7.724 -0.0052  0.4027 -0.9481
  118MOL    H6430718   2.257   1.433   7.688 -0.7781  1.0752  0.2910
  118MOL    H6530719   1.928   1.783   7.360  0.0386 -1.7411 -0.7551
  118MOL    H6630720   2.065   1.850   7.439 -0.0781  0.7792 -1.4465
  118MOL    C6730721   2.109   1.666   7.313  0.1561 -0.6531  0.0025
  118MOL    N6830722   2.147   1.762   7.210 -0.0842 -0.1147 -0.1557
  118MOL    C6930723   2.272   1.805   7.181 -0.6915  0.4670  0.3970
  118MOL    O7030724   2.371   1.783   7.248  0.0276  0.6239 -0.6205
  118MOL    C7130725   2.284   1.882   7.046 -0.3847 -0.0163  0.5296
  118MOL    C7230726   2.046   1.541   7.250 -0.7465  0.7218  0.6334
  118MOL    H7330727   2.202   1.641   7.364  1.1426  0.8211 -1.0478
  118MOL    H7430728   2.076   1.814   7.161  0.4322  1.6649  0.9225
  118MOL    H7530729   2.380   1.858   7.000 -0.5563 -1.7366  1.0304
  118MOL    H7630730   2.202   1.858   6.979  0.7239  1.0699 -1.2518
  118MOL    H7730731   2.270   1.988   7.066 -0.4645 -0.0960  0.9047
  118MOL    H7830732   2.013   1.476   7.332 -1.1586  0.6513  0.4136
  118MOL    H7930733   1.960   1.578   7.195 -0.2830  2.8886  1.3358
  118MOL    C8030734   2.145   1.454   7.160  0.1405 -0.2369  0.0709
  118MOL    N8130735   2.065   1.346   7.113  0.1620 -0.3165  0.6572
  118MOL    C8230736   2.091   1.264   7.016 -0.3744 -0.6203 -0.4071
  118MOL    O8330737   2.176   1.295   6.933 -0.2267 -0.4452  0.2191
  118MOL    C8430738   2.011   1.140   7.018  0.6187 -0.4985  0.3042
  118MOL    C8530739   2.274   1.404   7.233  0.2114 -0.1261 -0.4019
  118MOL    H8630740   2.175   1.523   7.081 -0.6323  0.2524  0.2084
  118MOL    H8730741   1.985   1.328   7.172 -1.1954 -1.0437 -1.3336
  118MOL    H8830742   1.912   1.154   7.062  0.0509 -0.2525 -1.0278
  118MOL    H8930743   2.001   1.110   6.914 -0.7018  1.1128 -0.0514
  118MOL    H9030744   2.065   1.061   7.071 -0.1837 -1.0967  0.2418
  118MOL    H9130745   2.313   1.339   7.155 -1.8069 -1.3963 -0.3749
  118MOL    H9230746   2.328   1.498   7.244 -0.5834  0.0084  2.7179
  118MOL    C9330747   2.260   1.338   7.367 -0.2838  0.5254 -0.3045
  118MOL    N9430748   2.389   1.332   7.433 -0.1927 -0.2161 -0.1242
  118MOL    C9530749   2.494   1.256   7.383 -1.0908  0.4919 -0.1696
  118MOL    O9630750   2.493   1.185   7.278  0.3975 -0.1083 -0.4468
  118MOL    C9730751   2.619   1.256   7.468  0.2720  0.6961  0.4664
  118MOL    C9830752   2.193   1.194   7.360  0.2912  0.7435 -0.7813
  118MOL    H9930753   2.200   1.413   7.419 -0.8430 -0.0954 -0.0560
  118MOL   H10030754   2.394   1.359   7.530  0.8887  0.2822 -0.3065
  118MOL   H10130755   2.706   1.221   7.411 -0.1230 -1.8390  1.3409
  118MOL   H10230756   2.634   1.359   7.500  1.3621  0.0587  2.0731
  118MOL   H10330757   2.616   1.188   7.553  2.6557  0.8507  0.7099
  118MOL   H10430758   2.105   1.197   7.296  1.1943 -1.3850 -2.1607
  118MOL   H10530759   2.261   1.128   7.306 -0.1093 -0.6888  0.4363
  118MOL   C10630760   2.141   1.139   7.497  0.1009 -0.2911  0.0674
  118MOL   N10730761   2.253   1.079   7.565 -0.3122 -0.7448 -0.2430
  118MOL   C10830762   2.266   1.053   7.694 -0.0419 -0.0016  1.0617
  118MOL   O10930763   2.173   1.055   7.772  0.0664  0.0820 -0.1968
  118MOL   C11030764   2.408   1.027   7.746 -0.3150 -0.1183 -0.7408
  118MOL   C11130765   2.020   1.037   7.491  0.4423 -0.3340  0.0860
  118MOL   H11230766   2.111   1.232   7.546 -0.0566  0.4388 -1.3947
  118MOL   H11330767   2.338   1.087   7.510 -0.0546 -0.9437  0.1271
  118MOL   H11430768   2.395   1.010   0.013  0.6904  1.5079 -0.3492
  118MOL   H11530769   2.465   0.946   7.700 -2.5316 -1.0829 -1.8582
  118MOL   H11630770   2.470   1.116   7.733 -3.4996  2.1601 -0.8593
  118MOL   H11730771   2.057   0.938   7.465 -2.3575 -1.1695 -0.8378
  118MOL   H11830772   2.000   1.019   7.597  2.3361 -1.3631  0.2795
  118MOL   C11930773   1.896   1.067   7.408 -0.8386 -0.1611 -0.2641
  118MOL   N12030774   1.858   1.208   7.434 -0.3486 -0.5393 -0.2708
  118MOL   C12130775   1.795   1.284   7.344  0.2308  0.5196  0.5188
  118MOL   O12230776   1.809   1.284   7.224  0.0408  0.2846  1.0666
  118MOL   C12330777   1.684   1.382   7.391  0.3948 -0.4761 -0.1842
  118MOL   C12430778   1.784   0.974   7.450 -0.5248  0.4183  0.4564
  118MOL   H12530779   1.920   1.064   7.301  1.9682  2.6768  0.2103
  118MOL   H12630780   1.851   1.242   7.529 -0.6567 -1.0377 -0.1134
  118MOL   H12730781   1.692   1.403   7.498 -0.1079 -0.1667 -0.2068
  118MOL   H12830782   1.689   1.482   7.349  1.8385 -0.6994 -0.5717
  118MOL   H12930783   1.588   1.334   7.372  0.8242 -1.1835 -0.6154
  118MOL   H13030784   1.778   0.973   7.559  0.1696 -2.1452  0.4966
  118MOL   H13130785   1.691   1.023   7.421  0.2083  0.7546 -1.3980
  118MOL   C13230786   1.780   0.832   7.399  0.0029  0.3488  0.1693
  118MOL   N13330787   1.842   0.812   7.268  0.2207 -0.1931  0.2055
  118MOL   C13430788   1.921   0.717   7.237 -0.1598  0.8810 -0.5117
  118MOL   O13530789   1.932   0.613   7.308  0.9813  0.3594 -0.5698
  118MOL   C13630790   1.995   0.733   7.108  0.7847 -0.1326  0.0036
  118MOL   C13730791   1.639   0.766   7.409 -0.0793 -0.2006 -0.1565
  118MOL   H13830792   1.842   0.779   7.472  0.9195  0.9622 -0.1637
  118MOL   H13930793   1.805   0.863   7.189 -0.9714 -1.9295 -0.3714
  118MOL   H14030794   2.060   0.820   7.112 -0.0160  0.5540 -1.5977
  118MOL   H14130795   2.056   0.644   7.092 -0.2977 -0.3953 -3.1296
  118MOL   H14230796   1.913   0.739   7.036  1.1429  0.1665 -0.3783
  118MOL   H14330797   1.580   0.802   7.325  0.6667 -2.0328 -1.4995
  118MOL   H14430798   1.661   0.661   7.386  1.8866  0.5514 -1.8271
  118MOL   C14530799   1.563   0.775   7.543  0.2139  1.1126  0.2933
  118MOL   N14630800   1.618   0.665   7.624 -0.6603  0.3927 -0.3995
  118MOL   C14730801   1.731   0.662   7.699  0.0252 -0.6192 -0.2439
  118MOL   O14830802   1.800   0.764   7.723  0.0330 -0.1576 -0.2330
  118MOL   C14930803   1.779   0.524   7.738  0.2648  0.1391 -0.7881
  118MOL   C15030804   1.405   0.753   7.532  0.4756 -0.5244 -0.0688
  118MOL   H15130805   1.572   0.873   7.590 -0.8668  1.0139  0.7350
  118MOL   H15230806   1.574   0.575   7.620 -1.0940  0.5772  0.1312
  118MOL   H15330807   1.733   0.441   7.684  2.5952 -0.4151 -1.9600
  118MOL   H15430808   1.886   0.518   7.719 -0.3315 -2.0393 -3.6846
  118MOL   H15530809   1.772   0.524   0.007 -0.4852  0.3032 -0.8291
  118MOL   H15630810   1.384   0.664   7.472  1.6695  0.1764 -1.5688
  118MOL   H15730811   1.372   0.731   7.633  0.8974  0.3720  0.2678
  118MOL   C15830812   1.332   0.879   7.480  0.1429  0.4392  1.3528
  118MOL   N15930813   1.348   1.002   7.556  0.2111 -0.6966 -1.4090
  118MOL   C16030814   1.394   1.116   7.507  0.4672 -0.3393  0.9471
  118MOL   O16130815   1.431   1.136   7.394  0.2185  0.2184 -0.5067
  118MOL   C16230816   1.392   1.232   7.601  0.3495  0.5286  0.2624
  118MOL   C16330817   1.179   0.856   7.445 -0.2059  0.0694  0.5060
  118MOL   H16430818   1.382   0.904   7.386 -0.3002 -1.5911  0.5569
  118MOL   H16530819   1.317   1.012   7.651  1.8141 -0.5106 -0.8844
  118MOL   H16630820   1.373   1.206   7.705 -0.0382 -0.8417 -0.1243
  118MOL   H16730821   1.470   1.307   7.590  1.7529 -0.4988  2.8062
  118MOL   H16830822   1.306   1.286   7.562  0.8482  1.1452  0.0159
  118MOL   H16930823   1.164   0.775   7.374  0.8402 -0.0781  0.4356
  118MOL   H17030824   1.143   0.801   7.531  1.7924  0.8600  1.9169
  118MOL   C17130825   1.098   0.979   7.390 -0.8751 -0.0887 -0.1862
  118MOL   N17230826   0.957   0.928   7.377 -0.4669  0.1631 -0.5047
  118MOL   C17330827   0.864   0.931   7.476  0.4372 -0.5116 -0.3208
  118MOL   O17430828   0.877   0.996   7.582 -0.2538  0.5683 -0.7305
  118MOL   C17530829   0.738   0.852   7.457  0.3124  0.0820 -0.8049
  118MOL   C17630830   1.140   1.032   7.247  0.2058  0.8267 -0.9037
  118MOL   H17730831   1.104   1.056   7.467  0.1723 -1.6422  1.3064
  118MOL   H17830832   0.921   0.870   7.304 -0.5312  1.7648 -1.7744
  118MOL   H17930833   0.723   0.836   7.350  0.7785 -0.2541 -0.8201
  118MOL   H18030834   0.746   0.753   7.502 -1.6406  0.4114  0.3634
  118MOL   H18130835   0.650   0.903   7.498  1.9649  1.2015  1.4551
  118MOL   H18230836   1.249   1.027   7.241  0.3251  0.7386  1.0988
  118MOL   H18330837   1.100   0.968   7.168  3.0790 -0.3901 -1.4477
  118MOL   C18430838   1.087   1.174   7.224  0.5307 -0.4226  0.3640
  118MOL   N18530839   1.125   1.200   7.089  0.5757  0.6308  0.6613
  118MOL   C18630840   1.046   1.264   7.000  0.2227  1.0389 -0.7969
  118MOL   O18730841   0.926   1.295   7.019  0.1214 -0.3122 -0.4798
  118MOL   C18830842   1.110   1.277   6.863 -0.4657 -1.7311  1.0395
  118MOL   C18930843   1.139   1.281   7.323  0.1720 -0.3156 -0.0749
  118MOL   H19030844   0.979   1.174   7.235  0.5892 -0.6008  0.9660
  118MOL   H19130845   1.212   1.160   7.057 -1.0073 -1.2358 -1.4829
  118MOL   H19230846   1.034   1.308   6.792  0.2997 -0.4464  0.7687
  118MOL   H19330847   1.195   1.346   6.865 -0.5508 -1.6054  0.1563
  118MOL   H19430848   1.148   1.181   6.829  0.6721 -1.1246  0.5680
  118MOL   H19530849   1.131   1.245   7.425  0.7531  0.2005  0.1556
  118MOL   H19630850   1.246   1.266   7.312  0.4275  0.1630  1.6140
  118MOL   C19730851   1.100   1.433   7.314 -0.6052 -0.5191  0.0163
  118MOL   N19830852   1.192   1.500   7.408 -0.0925  0.3684  0.2997
  118MOL   C19930853   1.312   1.540   7.373 -0.1657 -0.0019  0.7566
  118MOL   O20030854   1.361   1.529   7.258  0.1480  0.2491 -0.5187
  118MOL   C20130855   1.391   1.604   7.488 -0.4596  0.2411  0.4399
  118MOL   C20230856   0.958   1.455   7.355 -0.3600 -0.8160  0.4868
  118MOL   H20330857   1.113   1.469   7.212 -1.0754 -1.8461 -0.5256
  118MOL   H20430858   1.159   1.524   7.501  0.9787  1.1369  0.4859
  118MOL   H20530859   1.492   1.562   7.490 -0.2309  0.4994 -2.7639
  118MOL   H20630860   1.394   1.713   7.486  0.0321  0.2385  0.7576
  118MOL   H20730861   1.357   1.587   7.590 -1.4546  0.0070  0.0751
  118MOL   H20830862   0.890   1.381   7.315 -0.6609  0.0170 -0.5718
  118MOL   H20930863   0.950   1.422   7.459 -0.3265 -1.6855  0.2088
  118MOL   C21030864   0.887   1.595   7.342 -0.6513 -0.9716  0.7696
  118MOL   N21130865   0.945   1.718   7.389  0.2408  0.1735  0.3946
  118MOL   C21230866   0.990   1.742   7.520  0.0316 -0.4053  0.5071
  118MOL   O21330867   1.016   1.656   7.603 -0.4112 -0.0940 -0.2444
  118MOL   C21430868   1.006   1.886   7.555  1.0689 -0.2133 -0.4742
  118MOL   C21530869   0.743   1.603   7.395 -0.8661  0.1414 -0.1239
  118MOL   H21630870   0.880   1.605   7.234 -2.9044 -0.4513  0.9583
  118MOL   H21730871   0.921   1.798   7.331 -0.5382  0.3649  0.9658
  118MOL   H21830872   0.920   1.948   7.529  1.0318  0.6679  1.7048
  118MOL   H21930873   1.032   1.894   7.660 -1.1632 -0.2358  0.0884
  118MOL   H22030874   1.095   1.915   7.498  2.5743 -2.9239  0.3995
  118MOL   H22130875   0.723   1.500   7.425  1.4485 -0.0552  0.8483
  118MOL   H22230876   0.728   1.663   7.485  1.9530 -0.1865  0.6183
  118MOL   C22330877   0.638   1.651   7.298 -0.1968  0.7453 -0.0817
  118MOL   N22430878   0.594   1.782   7.337  0.1091 -0.1979 -0.6416
  118MOL   C22530879   0.660   1.897   7.332  1.1933  0.1692 -1.0713
  118MOL   O22630880   0.776   1.900   7.287  0.3149 -0.3401  0.1252
  118MOL   C22730881   0.581   2.015   7.372 -0.0529  0.0269  0.2735
  118MOL   C22830882   0.528   1.548   7.280 -0.2881 -0.6528 -0.3490
  118MOL   H22930883   0.678   1.661   7.198 -2.8113 -0.2610 -1.2649
  118MOL   H23030884   0.505   1.779   7.384 -0.7348  0.1365 -2.1964
  118MOL   H23130885   0.629   2.063   7.457 -2.5738  1.9871  0.6496
  118MOL   H23230886   0.576   2.094   7.297  1.8895  0.1734  0.2821
  118MOL   H23330887   0.475   1.998   7.391 -0.0600 -0.1577  0.0667
  118MOL   H23430888   0.479   1.533   7.376 -0.6861  1.5953 -0.1526
  118MOL   H23530889   0.449   1.598   7.223 -1.0009 -1.7690 -0.3463
  118MOL   C23630890   0.573   1.414   7.202 -0.1140 -0.3971  0.0583
  118MOL   N23730891   0.651   1.433   7.078  0.0969  0.0075 -0.4418
  118MOL   C23830892   0.620   1.501   6.967 -0.2374  0.2300 -0.6220
  118MOL   O23930893   0.516   1.565   6.949 -0.6537 -0.5576 -0.1383
  118MOL   C24030894   0.709   1.496   6.845 -0.0021 -0.6024  0.1919
  118MOL   C24130895   0.459   1.317   7.178  0.5015 -0.1264 -0.1451
  118MOL   H24230896   0.642   1.367   7.273  2.0345  0.9873 -1.0304
  118MOL   H24330897   0.743   1.393   7.076  0.1194  0.0816 -1.0104
  118MOL   H24430898   0.706   1.593   6.796 -2.4316 -1.3768 -1.2906
  118MOL   H24530899   0.810   1.472   6.878  0.2878 -0.5747 -0.6489
  118MOL   H24630900   0.666   1.420   6.781  0.1514 -1.0284  0.5934
  118MOL   H24730901   0.412   1.303   7.275  0.7462 -4.8675 -0.6261
  118MOL   H24830902   0.385   1.370   7.117  0.1969  2.3864  2.2623
  118MOL   C24930903   0.484   1.180   7.116 -0.2869 -0.1834 -0.1256
  118MOL   N25030904   0.366   1.087   7.102 -0.2684 -0.1306 -0.2748
  118MOL   C25130905   0.262   1.109   7.020  0.0534 -0.0594  0.0469
  118MOL   O25230906   0.244   1.223   6.976 -0.0145 -0.2388 -0.3348
  118MOL   C25330907   0.165   0.998   6.971  0.4356  0.0589 -0.0232
  118MOL   C25430908   0.585   1.089   7.194 -0.0407 -1.5047  0.9160
  118MOL   H25530909   0.525   1.188   7.015  0.4771 -0.5985  0.1537
  118MOL   H25630910   0.372   0.999   7.152 -0.5808  0.0850  0.1484
  118MOL   H25730911   0.075   0.985   7.030  0.1001 -1.0631 -0.7670
  118MOL   H25830912   0.135   1.019   6.868  1.3226 -0.8582 -0.4854
  118MOL   H25930913   0.215   0.902   6.960  1.9747  0.8110  0.1739
  118MOL   H26030914   0.556   1.069   7.297 -0.2253 -2.4288  0.6918
  118MOL   H26130915   0.599   1.001   7.130  1.7466 -0.2161 -0.5342
  118MOL   H26230916   0.681   1.141   7.186 -0.2470 -1.4890 -1.8721
  119MOL     C130917   7.770   6.745   1.436 -0.6371  0.4873 -0.0659
  119MOL     N230918   7.814   6.847   1.533  0.2321 -0.1863 -0.3503
  119MOL     C330919   0.016   6.821   1.660  0.1441  0.3290  0.5829
  119MOL     O430920   0.032   6.713   1.713  0.1135 -0.5421 -0.1819
  119MOL     C530921   0.041   6.937   1.738  0.0782 -0.7116 -0.6440
  119MOL     C630922   7.646   6.781   1.353 -0.8383 -0.6049 -0.9495
  119MOL     H730923   0.019   6.725   1.376 -0.3027  1.4994  0.0819
  119MOL     H830924   7.811   6.943   1.503 -3.3390 -0.9418 -2.8724
  119MOL     H930925   0.100   7.010   1.683  1.6452 -1.8970 -0.5809
  119MOL    H1030926   7.782   6.977   1.763  0.2763 -0.9884  0.6422
  119MOL    H1130927   0.094   6.904   1.828  1.2693 -1.8575 -1.7463
  119MOL    H1230928   7.568   6.819   1.419  0.9544 -0.5115  1.1827
  119MOL    H1330929   7.672   6.861   1.284 -1.0615  0.1859 -0.1296
  119MOL    H1430930   7.748   6.650   1.486 -1.1991  1.0226  0.7229
  119MOL    C1530931   7.595   6.666   1.259  0.4860 -0.0276  0.3311
  119MOL    N1630932   7.543   6.554   1.329 -0.0246  0.6592 -0.4863
  119MOL    C1730933   7.418   6.518   1.338  0.3273 -0.2011 -0.1031
  119MOL    O1830934   7.330   6.583   1.285 -0.2301  0.0755  0.0490
  119MOL    C1930935   7.398   6.397   1.426 -0.4394 -0.4808  0.5345
  119MOL    C2030936   7.693   6.615   1.150  0.1007 -0.1763 -0.2290
  119MOL    H2130937   7.516   6.720   1.206  0.5800 -1.0101 -0.8190
  119MOL    H2230938   7.616   6.487   1.349 -2.4527 -2.1267 -0.6144
  119MOL    H2330939   7.440   6.307   1.381 -0.4767  0.4662 -1.3902
  119MOL    H2430940   7.444   6.406   1.524  1.7785  1.8421 -0.6882
  119MOL    H2530941   7.295   6.366   1.445 -0.2071 -1.5485  0.0943
  119MOL    H2630942   7.761   6.547   1.200  0.3709 -2.2062 -3.2204
  119MOL    H2730943   7.632   6.552   1.085 -0.5847 -0.5336  0.7554
  119MOL    C2830944   7.768   6.715   1.062  0.2529 -0.0488 -0.5694
  119MOL    N2930945   7.668   6.782   0.973  0.3477  0.6005 -0.8374
  119MOL    C3030946   7.663   6.912   0.948  0.1771  0.4537 -0.6773
  119MOL    O3130947   7.722   6.993   1.011 -0.1501 -0.6214  0.1711
  119MOL    C3230948   7.571   6.948   0.832  0.5093  0.1935 -0.3023
  119MOL    C3330949   0.050   6.659   0.990 -0.0430  0.0753  0.0793
  119MOL    H3430950   7.805   6.784   1.138 -2.0008  2.2959 -1.5125
  119MOL    H3530951   7.610   6.725   0.913 -0.3436  2.8710 -2.4114
  119MOL    H3630952   7.614   6.989   0.740  0.2133  1.8387  0.2634
  119MOL    H3730953   7.511   6.861   0.807 -1.3563  1.0650  1.0540
  119MOL    H3830954   7.506   7.030   0.863  0.1791 -0.8209  1.7792
  119MOL    H3930955   0.114   6.743   0.963 -1.5869  0.5613 -2.1650
  119MOL    H4030956   0.108   6.596   1.058 -0.1171 -1.6295 -1.4021
  119MOL    C4130957   0.039   6.583   0.856  0.0281 -0.2514  0.3201
  119MOL    N4230958   7.805   6.456   0.862  0.6189 -0.1512  0.4219
  119MOL    C4330959   7.683   6.429   0.812 -0.4462 -0.2725  0.0002
  119MOL    O4430960   7.608   6.514   0.761  0.2029 -0.2618  0.3712
  119MOL    C4530961   7.636   6.290   0.820 -0.0676  0.2332 -0.8085
  119MOL    C4630962   0.177   6.557   0.796  0.2090  0.5319 -0.5565
  119MOL    H4730963   7.827   6.645   0.782  1.1473 -0.6864 -0.8445
  119MOL    H4830964   0.020   6.387   0.911 -0.7603 -1.9111 -0.4341
  119MOL    H4930965   7.549   6.273   0.757 -2.1888  0.4266  1.9344
  119MOL    H5030966   7.713   6.218   0.792 -1.9035 -1.9203 -0.4684
  119MOL    H5130967   7.607   6.261   0.922  2.9120  2.3324  0.7081
  119MOL    H5230968   0.224   6.655   0.784 -0.1544  0.8899  0.7893
  119MOL    H5330969   0.239   6.506   0.871  0.5262  2.0812  0.2557
  119MOL    C5430970   0.186   6.472   0.668  0.1432  0.5724 -1.0579
  119MOL    N5530971   0.176   6.327   0.698  0.0041  0.4556  0.6781
  119MOL    C5630972   0.126   6.232   0.617 -0.8931 -0.6320 -0.4102
  119MOL    O5730973   0.077   6.255   0.505 -0.0930  0.2265  0.2389
  119MOL    C5830974   0.118   6.086   0.671 -0.3370  0.7751  0.2846
  119MOL    C5930975   0.319   6.501   0.597 -0.1726  0.2729  0.4803
  119MOL    H6030976   0.096   6.507   0.617  0.0450  1.9629  0.0380
  119MOL    H6130977   0.194   6.291   0.790 -1.3231 -0.1582  0.7021
  119MOL    H6230978   0.219   6.044   0.669  0.0834  1.6053  2.7838
  119MOL    H6330979   0.068   6.087   0.767  2.8399 -1.6997  2.0393
  119MOL    H6430980   0.063   6.024   0.601 -1.8570  1.0227  1.2418
  119MOL    H6530981   0.402   6.482   0.664 -0.3895 -0.0600  0.6540
  119MOL    H6630982   0.337   6.431   0.515  0.6531 -0.2069  1.0663
  119MOL    C6730983   0.348   6.641   0.537 -0.5309  0.0299  0.1143
  119MOL    N6830984   0.239   6.698   0.451 -0.0175 -0.0842  0.7950
  119MOL    C6930985   0.165   6.646   0.348  0.0599  0.1655 -0.4138
  119MOL    O7030986   0.177   6.529   0.304 -0.3228  0.0781  0.1960
  119MOL    C7130987   0.075   6.756   0.274 -0.9554 -0.5851  0.1955
  119MOL    C7230988   0.476   6.656   0.448 -0.0065 -0.3041 -0.5033
  119MOL    H7330989   0.358   6.705   0.625  1.7466  2.7651 -2.0223
  119MOL    H7430990   0.226   6.798   0.463 -0.7706 -0.1869  0.8341
  119MOL    H7530991   0.004   6.698   0.215 -0.1494  0.0165 -1.3822
  119MOL    H7630992   0.030   6.828   0.341  0.3730  1.1025 -0.6988
  119MOL    H7730993   0.134   6.811   0.200 -0.4714 -0.1269  0.9215
  119MOL    H7830994   0.475   6.579   0.371  0.5066  0.2496 -1.0619
  119MOL    H7930995   0.477   6.751   0.395  0.6756  0.7152  1.2954
  119MOL    C8030996   0.610   6.645   0.525  0.2015 -0.4170  0.3225
  119MOL    N8130997   0.610   6.714   0.656 -0.6200  0.4038  0.0227
  119MOL    C8230998   0.586   6.656   0.775 -0.5094  0.2255 -0.0995
  119MOL    O8330999   0.600   6.534   0.791 -0.6891 -0.0472  0.1878
  119MOL    C8431000   0.526   6.743   0.890  0.2743 -0.3615 -0.5483
  119MOL    C8531001   0.726   6.695   0.435 -0.7400 -0.2755  0.1066
  119MOL    H8631002   0.629   6.538   0.525 -0.7189 -0.6345 -3.0718
  119MOL    H8731003   0.612   6.815   0.652 -0.1876  0.4072  0.3130
  119MOL    H8831004   0.602   6.789   0.953  2.8374 -1.2806 -2.8836
  119MOL    H8931005   0.463   6.823   0.851  0.6830  0.4144  0.3695
  119MOL    H9031006   0.471   6.681   0.960  0.3533  1.4423  1.1515
  119MOL    H9131007   0.707   6.799   0.409 -0.6888  0.1373  1.6764
  119MOL    H9231008   0.821   6.696   0.486 -2.0788  2.1810  2.6460
  119MOL    C9331009   0.743   6.623   0.290 -0.4902 -0.1924 -0.8888
  119MOL    N9431010   0.766   6.481   0.298 -0.5778 -0.3337  0.1618
  119MOL    C9531011   0.677   6.386   0.249  0.2131 -0.3064  0.8442
  119MOL    O9631012   0.568   6.407   0.194  0.7244  0.2271  0.1890
  119MOL    C9731013   0.720   6.245   0.258 -0.2625 -0.3925 -0.3099
  119MOL    C9831014   0.867   6.692   0.227  0.3658 -0.4169 -0.2200
  119MOL    H9931015   0.660   6.647   0.223  0.0379  0.0565 -1.4474
  119MOL   H10031016   0.845   6.457   0.355 -0.0352  0.7873 -0.1209
  119MOL   H10131017   0.763   6.223   0.355 -0.3610 -0.1355 -0.2060
  119MOL   H10231018   0.635   6.177   0.247 -1.5931  0.8136  2.1604
  119MOL   H10331019   0.799   6.216   0.189  1.1909  0.2269  1.0739
  119MOL   H10431020   0.850   6.800   0.223 -0.4195 -0.5274 -0.1071
  119MOL   H10531021   0.953   6.703   0.292  0.3919 -0.8621 -0.1772
  119MOL   C10631022   0.913   6.649   0.084 -0.3440 -0.5119 -0.4061
  119MOL   N10731023   0.810   6.625   7.837  0.2662 -0.8686 -0.2228
  119MOL   C10831024   0.760   6.694   7.735 -0.5962 -0.2668 -0.0120
  119MOL   O10931025   0.805   6.802   7.695  0.0842  0.8081  0.0187
  119MOL   C11031026   0.649   6.627   7.663 -0.0871 -0.1886  0.1794
  119MOL   C11131027   1.014   6.532   0.089  0.2141  0.2523  0.2712
  119MOL   H11231028   0.967   6.740   0.058  0.7746 -0.7434  1.0858
  119MOL   H11331029   0.771   6.532   7.836 -0.8988 -0.4173  1.0879
  119MOL   H11431030   0.674   6.526   7.630 -0.3182  0.6628 -2.6822
  119MOL   H11531031   0.554   6.622   7.715 -0.8448  3.5516 -0.7195
  119MOL   H11631032   0.623   6.688   7.577 -0.4887 -1.7341 -0.8176
  119MOL   H11731033   0.961   6.445   0.128  2.1904 -0.9501  0.3502
  119MOL   H11831034   1.049   6.512   7.827 -0.4957  2.1685 -0.3837
  119MOL   C11931035   1.145   6.543   0.176  0.5889  0.2023  0.3720
  119MOL   N12031036   1.242   6.630   0.109 -0.2250  0.1165  0.0513
  119MOL   C12131037   1.256   6.759   0.115  0.0625 -0.7524  0.8229
  119MOL   O12231038   1.182   6.831   0.188  0.6887  0.3840  0.9091
  119MOL   C12331039   1.356   6.814   0.020  0.7002 -0.4024 -0.1429
  119MOL   C12431040   1.209   6.407   0.184 -0.2279  0.2437 -0.5848
  119MOL   H12531041   1.132   6.599   0.268  1.5656  1.3408 -0.1729
  119MOL   H12631042   1.320   6.585   0.064  0.3122 -1.3696  2.3476
  119MOL   H12731043   1.340   6.782   7.757 -1.0194 -0.4575  0.1356
  119MOL   H12831044   1.357   6.923   0.019  0.4152 -0.3565  1.8659
  119MOL   H12931045   1.458   6.792   0.054  1.6595  0.5113 -2.3160
  119MOL   H13031046   1.127   6.340   0.211  0.0367 -0.6948 -2.0652
  119MOL   H13131047   1.242   6.368   0.088 -0.9772 -3.9715  0.7518
  119MOL   C13231048   1.320   6.373   0.285 -0.0679 -0.6825  0.5184
  119MOL   N13331049   1.446   6.450   0.285  0.4613 -0.4027 -0.1241
  119MOL   C13431050   1.524   6.480   0.179  0.2534 -0.5338  0.2172
  119MOL   O13531051   1.490   6.467   0.065 -0.0331  0.1593 -0.4447
  119MOL   C13631052   1.663   6.541   0.211  0.0743 -0.3468 -0.1446
  119MOL   C13731053   1.344   6.218   0.282 -0.1109  0.2580  0.1629
  119MOL   H13831054   1.282   6.386   0.387 -0.1178  0.0586  0.4040
  119MOL   H13931055   1.474   6.473   0.379  1.5295 -0.3179 -0.4513
  119MOL   H14031056   1.712   6.475   0.282  0.9447  0.6849  0.2159
  119MOL   H14131057   1.727   6.553   0.124 -0.1116 -0.3889 -0.2882
  119MOL   H14231058   1.653   6.634   0.267 -1.1901 -1.3392  1.3315
  119MOL   H14331059   1.253   6.157   0.286  0.0956  0.0643  5.7292
  119MOL   H14431060   1.388   6.201   0.184 -1.9544  1.6392 -0.9631
  119MOL   C14531061   1.434   6.162   0.392 -0.5684  0.0911 -0.6241
  119MOL   N14631062   1.473   6.033   0.355 -0.1430  0.1197 -0.1059
  119MOL   C14731063   1.586   5.996   0.306 -1.0640 -0.2083  0.0056
  119MOL   O14831064   1.684   6.070   0.283 -0.0128 -0.0328  0.3523
  119MOL   C14931065   1.607   5.848   0.283 -0.1974  0.4551 -0.2508
  119MOL   C15031066   1.365   6.153   0.524 -0.3572  0.4093 -0.5557
  119MOL   H15131067   1.527   6.219   0.392 -0.7075  0.3196  0.4903
  119MOL   H15231068   1.412   5.953   0.370  0.7931 -0.5298  0.2691
  119MOL   H15331069   1.683   5.818   0.212 -2.4173 -1.3346 -1.9436
  119MOL   H15431070   1.639   5.807   0.379  1.3663  0.5396 -0.7354
  119MOL   H15531071   1.516   5.799   0.249 -0.0310  0.3322 -0.5153
  119MOL   H15631072   1.261   6.123   0.510 -0.0404 -1.8620  1.6270
  119MOL   H15731073   1.406   6.072   0.584 -0.8500 -0.6392 -1.6215
  119MOL   C15831074   1.361   6.263   0.636 -0.1042  0.2425 -0.0095
  119MOL   N15931075   1.494   6.312   0.666 -0.0590  0.3058  0.5697
  119MOL   C16031076   1.544   6.429   0.634  0.0490 -0.0735  0.1504
  119MOL   O16131077   1.479   6.513   0.577  0.3899 -0.4433  0.5325
  119MOL   C16231078   1.693   6.445   0.654 -0.5591  0.4007 -0.0725
  119MOL   C16331079   1.288   6.232   0.765  0.1157  0.7435 -0.4641
  119MOL   H16431080   1.304   6.343   0.589 -3.1054 -1.9721 -0.3732
  119MOL   H16531081   1.546   6.242   0.717  0.3477  0.6324  0.6043
  119MOL   H16631082   1.709   6.490   0.752  1.7414 -0.2605 -0.1278
  119MOL   H16731083   1.754   6.355   0.657 -0.3625  0.4440 -2.1449
  119MOL   H16831084   1.737   6.524   0.594  0.5333  0.1509  0.3883
  119MOL   H16931085   1.333   6.137   0.793 -0.4316  0.2853 -1.1240
  119MOL   H17031086   1.313   6.311   0.836  1.2991  1.7484 -1.9621
  119MOL   C17131087   1.133   6.206   0.752  0.1107  0.0506 -0.1214
  119MOL   N17231088   1.067   6.341   0.744 -0.1816 -0.4135  0.2197
  119MOL   C17331089   1.009   6.398   0.637  0.2726  0.1577 -0.3181
  119MOL   O17431090   0.998   6.343   0.528 -0.4062 -0.0421  0.1724
  119MOL   C17531091   0.953   6.539   0.657  0.3508 -1.0607  0.1898
  119MOL   C17631092   1.067   6.116   0.856 -0.2453 -0.1160  0.0676
  119MOL   H17731093   1.116   6.164   0.653  0.3316  1.6233 -0.8440
  119MOL   H17831094   1.064   6.390   0.832 -0.8077 -0.6181  0.3161
  119MOL   H17931095   0.973   6.603   0.571 -1.3074 -1.1018 -0.2296
  119MOL   H18031096   0.849   6.519   0.681 -0.0662 -0.3622 -1.0012
  119MOL   H18131097   1.004   6.586   0.742 -2.4863 -1.2070  2.0510
  119MOL   H18231098   1.005   6.035   0.816 -1.6635  0.2102  1.5709
  119MOL   H18331099   1.150   6.067   0.906  0.2371  0.2846 -0.3412
  119MOL   C18431100   0.964   6.186   0.959  0.1099 -0.1091  0.4249
  119MOL   N18531101   1.036   6.238   1.068 -0.1063  0.7242 -0.2111
  119MOL   C18631102   1.063   6.368   1.092 -0.4462 -0.0168  0.5133
  119MOL   O18731103   1.027   6.459   1.022 -0.1168  0.0926  0.7563
  119MOL   C18831104   1.150   6.406   1.210  0.6083  0.3129  0.2426
  119MOL   C18931105   0.862   6.075   1.007 -0.1435  0.3270 -0.4079
  119MOL   H19031106   0.907   6.267   0.914  0.0800 -1.0340 -1.2334
  119MOL   H19131107   1.087   6.177   1.131  0.6634  0.0750 -1.4586
  119MOL   H19231108   1.224   6.328   1.228  2.0380  1.6244  0.1336
  119MOL   H19331109   1.205   6.498   1.195  2.9553 -0.9777  0.7028
  119MOL   H19431110   1.105   6.414   1.309  0.4226 -3.5075  0.5495
  119MOL   H19531111   0.809   6.034   0.921 -2.1701  2.1317 -0.0624
  119MOL   H19631112   0.920   5.995   1.053 -0.0131 -1.2622 -3.2353
  119MOL   C19731113   0.763   6.123   1.116  0.5167  0.2617 -0.0325
  119MOL   N19831114   0.692   6.003   1.154 -0.0826 -0.6607 -0.0406
  119MOL   C19931115   0.742   5.905   1.235 -0.2512  0.1959  0.3327
  119MOL   O20031116   0.856   5.908   1.286 -0.0163  0.2027 -0.7390
  119MOL   C20131117   0.655   5.785   1.264 -0.3200 -0.1353  0.5719
  119MOL   C20231118   0.680   6.252   1.086 -0.1998 -0.5672 -0.0621
  119MOL   H20331119   0.824   6.156   1.200 -1.3374  1.7265  0.7830
  119MOL   H20431120   0.591   5.995   1.144 -0.3950  1.6043  0.8976
  119MOL   H20531121   0.549   5.801   1.246 -0.6237  0.2002  2.5142
  119MOL   H20631122   0.683   5.707   1.193 -0.6354 -0.1606  0.4746
  119MOL   H20731123   0.672   5.746   1.365  3.4205  0.6918  0.3508
  119MOL   H20831124   0.645   6.289   1.182 -0.8879  0.1710 -0.5874
  119MOL   H20931125   0.735   6.340   1.052  1.4180 -1.2944  0.5944
  119MOL   C21031126   0.557   6.242   0.987 -0.0407  0.1055  0.4772
  119MOL   N21131127   0.601   6.269   0.848 -0.5611 -0.8203 -0.0060
  119MOL   C21231128   0.600   6.177   0.752  0.3433  0.4386  0.6154
  119MOL   O21331129   0.592   6.052   0.764  0.0665  0.2877 -0.2576
  119MOL   C21431130   0.615   6.235   0.611 -0.3841 -0.0569  0.5150
  119MOL   C21531131   0.451   6.332   1.037 -0.8707 -0.4584 -0.6014
  119MOL   H21631132   0.528   6.137   0.986  0.2775  0.0226 -0.0725
  119MOL   H21731133   0.616   6.367   0.828 -0.7884 -1.0137 -1.1814
  119MOL   H21831134   0.673   6.164   0.551 -2.0057  0.3123 -1.5358
  119MOL   H21931135   0.515   6.247   0.570 -1.0214  0.6803  2.2491
  119MOL   H22031136   0.669   6.327   0.632  1.5764 -1.2420  0.8457
  119MOL   H22131137   0.493   6.431   1.052 -1.7078 -0.4112  1.5587
  119MOL   H22231138   0.387   6.345   0.949  0.9105  0.0473 -1.8516
  119MOL   C22331139   0.378   6.286   1.163  0.0967 -0.3505  0.3648
  119MOL   N22431140   0.292   6.175   1.140  0.1941 -0.6968 -0.5034
  119MOL   C22531141   0.178   6.174   1.065 -0.4198 -0.0934  0.0341
  119MOL   O22631142   0.136   6.271   1.008  0.2391 -0.3818  0.0162
  119MOL   C22731143   0.106   6.039   1.057  0.5066  0.1598  0.1906
  119MOL   C22831144   0.308   6.409   1.230 -0.8448  0.1430  0.7144
  119MOL   H22931145   0.441   6.241   1.240  1.8828 -0.0203 -0.8678
  119MOL   H23031146   0.322   6.098   1.198  1.4954  0.8723  0.9319
  119MOL   H23131147   0.153   5.963   0.995  0.6060  0.4591 -0.1051
  119MOL   H23231148   0.111   5.996   1.157 -1.4669 -1.9995 -0.5981
  119MOL   H23331149   0.004   6.035   1.019 -0.3384  0.3437  2.3714
  119MOL   H23431150   0.299   6.489   1.157  1.6466 -0.4298 -0.2893
  119MOL   H23531151   0.204   6.381   1.247 -1.7480  0.9415 -2.9535
  119MOL   C23631152   0.368   6.470   1.356  0.4097 -0.6024 -0.2788
  119MOL   N23731153   0.511   6.485   1.332  0.3456 -0.2408 -0.0517
  119MOL   C23831154   0.561   6.595   1.279  0.0562  0.2175 -0.5253
  119MOL   O23931155   0.497   6.698   1.251 -0.7391 -0.3355  0.8114
  119MOL   C24031156   0.710   6.599   1.261 -0.0232 -0.1950  0.0963
  119MOL   C24131157   0.361   6.389   1.488  0.5158 -0.2672 -0.1751
  119MOL   H24231158   0.327   6.571   1.364  0.2713 -0.5656 -1.3934
  119MOL   H24331159   0.569   6.403   1.331  0.5756 -0.0674 -0.9653
  119MOL   H24431160   0.725   6.611   1.154 -1.6619 -0.3582 -0.1604
  119MOL   H24531161   0.736   6.688   1.318 -0.8311  0.7840 -1.0414
  119MOL   H24631162   0.769   6.511   1.284 -0.3282 -0.1490  1.0837
  119MOL   H24731163   0.392   6.288   1.462 -0.8787 -0.4676 -1.0808
  119MOL   H24831164   0.434   6.412   1.566  1.9117  2.8462 -2.2779
  119MOL   C24931165   0.227   6.371   1.558  0.0226  0.3422 -0.1244
  119MOL   N25031166   0.249   6.287   1.677 -0.1548  0.1501 -0.0524
  119MOL   C25131167   0.293   6.324   1.796 -0.2661 -0.3255  0.0912
  119MOL   O25231168   0.329   6.443   1.809  0.5084 -0.3169 -0.7304
  119MOL   C25331169   0.299   6.227   1.912 -0.1042  0.5240  0.5229
  119MOL   C25431170   0.107   6.322   1.475  0.0693 -0.1327 -0.1602
  119MOL   H25531171   0.194   6.467   1.596  0.3077  0.7045 -0.7914
  119MOL   H25631172   0.216   6.192   1.679 -2.1041  0.8010 -0.4336
  119MOL   H25731173   0.373   6.148   1.902 -0.3918  0.1462  1.3393
  119MOL   H25831174   0.314   6.281   2.005  1.7896 -0.5983  0.8836
  119MOL   H25931175   0.199   6.188   1.928 -0.8762  2.2142 -0.0032
  119MOL   H26031176   0.138   6.240   1.410 -0.8053 -1.2834  0.8541
  119MOL   H26131177   0.042   6.280   1.552 -1.7659  0.5773 -1.2775
  119MOL   H26231178   0.056   6.404   1.425  2.1636  0.6052 -1.1162
  120MOL     C131179   5.444   6.412   5.337  0.5516  0.3602  0.0183
  120MOL     N231180   5.354   6.503   5.267  0.3185  0.7570 -0.2378
  120MOL     C331181   5.290   6.483   5.150 -0.2312 -0.1482 -0.5725
  120MOL     O431182   5.301   6.376   5.093  1.2705  0.0896 -0.4766
  120MOL     C531183   5.208   6.590   5.092  0.5319  0.5561  0.2726
  120MOL     C631184   5.578   6.377   5.268 -0.8082 -0.2958 -0.3641
  120MOL     H731185   5.461   6.445   5.440 -0.2052  1.8137 -0.3036
  120MOL     H831186   5.339   6.588   5.320 -2.6928 -0.2143  0.5823
  120MOL     H931187   5.266   6.677   5.062  1.0166  0.4780  0.9856
  120MOL    H1031188   5.161   6.563   4.997 -1.0227  1.5691  0.7305
  120MOL    H1131189   5.141   6.624   5.170 -0.3594 -0.5727  0.0260
  120MOL    H1231190   5.549   6.331   5.173 -0.9970  0.6675 -0.7712
  120MOL    H1331191   5.637   6.464   5.242 -1.2583 -0.1448 -0.8822
  120MOL    H1431192   5.400   6.315   5.360 -0.7389  0.7513 -0.7547
  120MOL    C1531193   5.669   6.267   5.341 -0.2327 -0.2651  0.1992
  120MOL    N1631194   5.702   6.308   5.477  0.1486 -0.1014 -0.1714
  120MOL    C1731195   5.645   6.281   5.597 -0.2993 -0.3333  0.0732
  120MOL    O1831196   5.556   6.203   5.603 -0.4895  0.7246 -0.0336
  120MOL    C1931197   5.677   6.359   5.721 -0.3954  0.3303  0.7804
  120MOL    C2031198   5.804   6.245   5.268 -0.6557 -0.4769 -0.3573
  120MOL    H2131199   5.611   6.174   5.340 -2.6422  1.1785  1.5916
  120MOL    H2231200   5.770   6.383   5.482  0.2062 -0.1496 -0.2242
  120MOL    H2331201   5.689   6.283   5.799  3.1983  0.6782  0.6563
  120MOL    H2431202   5.773   6.403   5.697 -0.4069  0.0592  0.2230
  120MOL    H2531203   5.602   6.433   5.747 -0.1205  1.6305 -1.9638
  120MOL    H2631204   5.863   6.337   5.268  2.3056 -2.3091 -0.5131
  120MOL    H2731205   5.859   6.164   5.316 -1.7668 -0.9203  0.1829
  120MOL    C2831206   5.788   6.197   5.121  0.0739 -0.2849 -0.5535
  120MOL    N2931207   5.709   6.073   5.108 -0.4917 -0.0652  0.0129
  120MOL    C3031208   5.603   6.064   5.029  0.2497 -0.5303 -0.2335
  120MOL    O3131209   5.517   5.974   5.049  0.1025  0.1098  0.0407
  120MOL    C3231210   5.594   6.157   4.908  0.2368 -0.8275  0.0460
  120MOL    C3331211   5.927   6.177   5.058 -0.6282  0.3345 -0.0968
  120MOL    H3431212   5.740   6.278   5.065 -3.4576 -0.3298  2.2023
  120MOL    H3531213   5.726   6.003   5.179 -1.2792  0.0941  0.3603
  120MOL    H3631214   5.688   6.167   4.855  0.4759 -3.6751 -0.1563
  120MOL    H3731215   5.510   6.120   4.849 -1.2977  0.3773  1.4016
  120MOL    H3831216   5.559   6.253   4.948  1.6732 -0.8389  1.3900
  120MOL    H3931217   5.905   6.162   4.952 -3.6930  1.3325  0.3562
  120MOL    H4031218   5.997   6.260   5.058  1.9211 -1.7333 -0.1692
  120MOL    C4131219   5.999   6.046   5.105  0.0339  0.5853  1.1159
  120MOL    N4231220   6.122   6.085   5.171  0.2970 -0.3810 -0.5241
  120MOL    C4331221   6.146   6.049   5.302 -0.0710 -0.8517  0.4778
  120MOL    O4431222   6.075   5.995   5.382  0.2319  0.0676 -0.7842
  120MOL    C4531223   6.284   6.099   5.357 -0.1685  0.4332 -0.1008
  120MOL    C4631224   6.034   5.945   4.992 -0.1883  0.1503 -0.9555
  120MOL    H4731225   5.930   6.000   5.175 -0.9753  1.4220  0.6917
  120MOL    H4831226   6.177   6.152   5.119  0.6450 -1.0292 -1.0018
  120MOL    H4931227   6.354   6.123   5.277 -0.0470  0.9207  0.1557
  120MOL    H5031228   6.289   6.185   5.423 -0.7852  1.1524 -0.9847
  120MOL    H5131229   6.334   6.022   5.416  2.0120  0.0345 -2.3427
  120MOL    H5231230   5.935   5.919   4.953 -0.9025  0.4446  0.6068
  120MOL    H5331231   6.087   5.991   4.908  2.4198 -1.8395 -0.4447
  120MOL    C5431232   6.110   5.818   5.031 -0.7892 -0.2257  0.2646
  120MOL    N5531233   6.127   5.725   4.910 -0.0329  0.5692 -0.0871
  120MOL    C5631234   6.235   5.654   4.885  0.1269 -0.3047 -0.3262
  120MOL    O5731235   6.343   5.665   4.943 -0.0370  0.1007  0.3470
  120MOL    C5831236   6.216   5.537   4.794 -0.1816  0.2456 -0.0063
  120MOL    C5931237   6.039   5.737   5.144 -0.0929  0.5438  0.3333
  120MOL    H6031238   6.205   5.846   5.077  1.3856 -2.3379 -2.7427
  120MOL    H6131239   6.051   5.707   4.846  1.0761 -0.9466 -1.0211
  120MOL    H6231240   6.218   5.562   4.688 -1.2536 -0.4360 -0.1905
  120MOL    H6331241   6.287   5.454   4.800  0.2571  0.5918 -0.3801
  120MOL    H6431242   6.114   5.500   4.809 -0.0323  0.1379  0.7813
  120MOL    H6531243   6.039   5.803   5.231  0.2265 -0.6391  1.2481
  120MOL    H6631244   5.934   5.726   5.118  0.6919 -1.1566 -2.3398
  120MOL    C6731245   6.084   5.593   5.186 -0.3196 -0.0599 -0.9226
  120MOL    N6831246   6.226   5.592   5.182 -0.6548  0.6179 -0.5166
  120MOL    C6931247   6.313   5.534   5.266 -0.0401 -0.3899  0.3892
  120MOL    O7031248   6.282   5.440   5.337  0.0790  0.7262  0.5023
  120MOL    C7131249   6.463   5.567   5.245  0.2435  0.0808  0.2402
  120MOL    C7231250   6.021   5.466   5.132 -0.3179 -0.0228 -0.9346
  120MOL    H7331251   6.061   5.600   5.292 -3.1436  1.1364 -1.5417
  120MOL    H7431252   6.264   5.649   5.109  1.2048 -0.1982 -0.2216
  120MOL    H7531253   6.507   5.641   5.311  0.0143  0.0910  0.3791
  120MOL    H7631254   6.519   5.474   5.241  0.3789  0.1059  1.5659
  120MOL    H7731255   6.479   5.597   5.141  0.8869  1.2486  0.6695
  120MOL    H7831256   6.001   5.470   5.025 -1.5839  1.7216 -0.6552
  120MOL    H7931257   6.097   5.388   5.142  0.5356  0.9474  0.2054
  120MOL    C8031258   5.890   5.423   5.207  0.2627 -0.5795  0.3263
  120MOL    N8131259   5.795   5.523   5.183 -0.3178 -0.6827  0.2141
  120MOL    C8231260   5.716   5.537   5.074  0.2979 -0.2696  0.1167
  120MOL    O8331261   5.723   5.471   4.975 -0.6978 -0.2235  0.3804
  120MOL    C8431262   5.636   5.660   5.067  0.0889 -1.1828 -0.3220
  120MOL    C8531263   5.908   5.387   5.352 -0.5647 -0.0382 -0.0022
  120MOL    H8631264   5.857   5.331   5.157  0.0398  0.8403 -2.2249
  120MOL    H8731265   5.777   5.588   5.258  1.9508  0.8080 -0.5036
  120MOL    H8831266   5.565   5.669   5.150  0.8689 -0.6915  0.3008
  120MOL    H8931267   5.706   5.743   5.060  0.1279 -1.3616 -2.5023
  120MOL    H9031268   5.580   5.664   4.974  2.5125 -2.9424 -1.9035
  120MOL    H9131269   5.909   5.478   5.411  3.8768 -0.6210  1.0505
  120MOL    H9231270   5.805   5.358   5.374 -1.4717 -0.3692 -4.2121
  120MOL    C9331271   6.001   5.270   5.395  0.8806 -0.5101  0.8394
  120MOL    N9431272   5.975   5.149   5.322  0.2379 -0.1686 -0.3337
  120MOL    C9531273   6.064   5.091   5.236  0.0026  0.0947 -0.2431
  120MOL    O9631274   6.177   5.127   5.234  0.1871 -0.2324  0.1188
  120MOL    C9731275   6.010   4.977   5.148 -0.4235 -0.2270 -0.3130
  120MOL    C9831276   5.967   5.237   5.548 -0.4098 -0.3428  0.2950
  120MOL    H9931277   6.105   5.302   5.398  1.5577 -2.4655 -0.3228
  120MOL   H10031278   5.881   5.113   5.327  0.2747 -0.0698  2.1687
  120MOL   H10131279   6.080   4.971   5.065  1.4667 -1.2856  1.3165
  120MOL   H10231280   6.008   4.887   5.209 -1.5061 -0.7603 -1.1301
  120MOL   H10331281   5.913   5.013   5.113 -1.2170  0.8043  2.7370
  120MOL   H10431282   5.981   5.329   5.604 -1.9939 -0.0745  0.2618
  120MOL   H10531283   5.864   5.208   5.569  0.1712 -1.5960  1.5749
  120MOL   C10631284   6.056   5.128   5.617 -0.4628  0.1387 -0.6391
  120MOL   N10731285   6.033   5.131   5.765 -0.1982  0.2988  0.5129
  120MOL   C10831286   5.989   5.032   5.842  0.8478  0.3540 -0.7778
  120MOL   O10931287   5.950   4.926   5.791 -0.0451  0.5229 -0.1339
  120MOL   C11031288   5.972   5.054   5.995 -0.8547 -0.0491 -0.3258
  120MOL   C11131289   6.211   5.126   5.589  0.2850 -0.0566 -0.0372
  120MOL   H11231290   6.022   5.035   5.571 -1.4612  1.2571 -2.2164
  120MOL   H11331291   6.047   5.218   5.815  2.0992 -1.3223  2.7804
  120MOL   H11431292   5.865   5.063   6.015 -0.9648  0.3047 -1.0616
  120MOL   H11531293   6.018   4.977   6.057  0.4426  0.4139 -0.6987
  120MOL   H11631294   6.020   5.149   6.019  0.0155 -0.3436 -0.8594
  120MOL   H11731295   6.238   5.024   5.615  0.4479 -0.8084 -3.0688
  120MOL   H11831296   6.231   5.134   5.482 -2.6633  0.6461 -0.5674
  120MOL   C11931297   6.302   5.225   5.667 -0.2723 -0.5567  0.0564
  120MOL   N12031298   6.280   5.367   5.624 -0.0374 -0.1691  0.2189
  120MOL   C12131299   6.234   5.466   5.703  0.4878  0.7139  0.7040
  120MOL   O12231300   6.192   5.444   5.814 -0.1925  0.5189 -0.7415
  120MOL   C12331301   6.232   5.609   5.648  0.1341  0.1708 -0.1248
  120MOL   C12431302   6.450   5.182   5.658  0.4200  0.0951 -0.2765
  120MOL   H12531303   6.279   5.210   5.772 -2.2619 -0.2328 -0.3124
  120MOL   H12631304   6.288   5.386   5.525 -1.7307 -1.9077 -0.2935
  120MOL   H12731305   6.320   5.613   5.583 -1.6848 -1.2790 -2.8016
  120MOL   H12831306   6.147   5.626   5.582 -0.8816 -1.9605  0.5836
  120MOL   H12931307   6.243   5.678   5.731 -2.7370 -2.3792  2.4932
  120MOL   H13031308   6.476   5.092   5.716  0.6685  0.2597 -0.1290
  120MOL   H13131309   6.464   5.147   5.556 -1.3630  0.2678 -0.5897
  120MOL   C13231310   6.567   5.280   5.663 -0.1959  0.1189 -0.0625
  120MOL   N13331311   6.691   5.214   5.620  0.0813  0.1300  0.4326
  120MOL   C13431312   6.750   5.243   5.504  0.7170 -1.0365  0.0457
  120MOL   O13531313   6.866   5.209   5.483 -0.2021  0.7622 -0.4007
  120MOL   C13631314   6.666   5.296   5.392  0.6435  0.0032  0.4355
  120MOL   C13731315   6.584   5.341   5.801  0.8162 -0.2747 -0.6063
  120MOL   H13831316   6.540   5.364   5.599 -0.7617  0.2219  0.3117
  120MOL   H13931317   6.756   5.181   5.690 -0.1547  1.4060  1.2664
  120MOL   H14031318   6.714   5.270   5.298 -3.1313  1.9570 -2.1836
  120MOL   H14131319   6.564   5.256   5.385 -0.3645  2.6478 -0.5806
  120MOL   H14231320   6.651   5.404   5.398  0.6632 -0.0351  1.2316
  120MOL   H14331321   6.492   5.383   5.841 -0.9141 -2.4111 -2.2127
  120MOL   H14431322   6.628   5.265   5.867 -0.6575  0.6103  1.4624
  120MOL   C14531323   6.696   5.457   5.803 -0.4863 -0.6547 -0.2082
  120MOL   N14631324   6.737   5.478   5.939 -0.3669  0.3550  0.4963
  120MOL   C14731325   6.868   5.507   5.974  0.3464 -0.0753  0.7890
  120MOL   O14831326   6.961   5.532   5.894 -0.0333 -0.0211 -0.2722
  120MOL   C14931327   6.910   5.516   6.119 -0.9098  0.0281  0.1211
  120MOL   C15031328   6.640   5.591   5.733 -0.3683  0.2735  0.0870
  120MOL   H15131329   6.788   5.432   5.749 -0.1111 -0.4680  0.3391
  120MOL   H15231330   6.668   5.454   6.009 -2.0389 -0.5877 -1.4326
  120MOL   H15331331   7.009   5.471   6.114 -1.2365 -0.5174 -1.6699
  120MOL   H15431332   6.908   5.621   6.152  3.5108  0.5536 -1.0560
  120MOL   H15531333   6.847   5.470   6.195 -0.9115  0.4677  0.3938
  120MOL   H15631334   6.598   5.571   5.634 -1.3309 -0.7274  0.6771
  120MOL   H15731335   6.551   5.612   5.792 -0.4916 -1.3116  0.4977
  120MOL   C15831336   6.747   5.710   5.723 -1.0485  0.4725  0.7003
  120MOL   N15931337   6.684   5.842   5.726 -0.4864 -0.5173  0.2287
  120MOL   C16031338   6.600   5.904   5.639 -0.4965  0.5096 -0.3647
  120MOL   O16131339   6.540   5.842   5.553 -0.5167  0.0449 -0.1705
  120MOL   C16231340   6.556   6.048   5.674  0.3372 -0.3339 -0.5657
  120MOL   C16331341   6.865   5.684   5.615 -0.0545 -0.4140  0.7710
  120MOL   H16431342   6.809   5.722   5.811 -0.6154  2.5482  0.1582
  120MOL   H16531343   6.726   5.913   5.785 -0.9872  1.2761 -1.5335
  120MOL   H16631344   6.516   6.100   5.587 -1.1107 -0.7610 -0.1815
  120MOL   H16731345   6.486   6.052   5.757  0.8489 -2.1678 -0.0179
  120MOL   H16831346   6.641   6.099   5.719  1.4690 -0.2645 -2.7128
  120MOL   H16931347   6.909   5.589   5.646  0.4433 -0.6411 -0.6162
  120MOL   H17031348   6.820   5.682   5.516  0.5472  1.0922  0.4542
  120MOL   C17131349   6.982   5.777   5.621  0.0457  0.5739  0.1910
  120MOL   N17231350   6.934   5.906   5.565  0.1755 -0.5701 -0.5677
  120MOL   C17331351   6.987   6.028   5.581 -0.1938 -0.1745  0.9482
  120MOL   O17431352   7.093   6.050   5.640  0.2724  0.0091 -0.5463
  120MOL   C17531353   6.922   6.146   5.518 -0.5230 -0.3509 -0.7308
  120MOL   C17631354   7.104   5.731   5.545  0.3078 -0.4018  0.2289
  120MOL   H17731355   7.001   5.790   5.727 -2.0063  0.2977  0.6246
  120MOL   H17831356   6.855   5.898   5.503 -0.5064 -0.1130  0.2234
  120MOL   H17931357   6.961   6.238   5.560  2.0835 -0.5566 -2.5046
  120MOL   H18031358   6.950   6.171   5.415 -2.5298 -0.8395 -1.4128
  120MOL   H18131359   6.814   6.134   5.528 -0.4765  0.8850  1.4026
  120MOL   H18231360   7.077   5.736   5.440 -0.5274 -0.8525  0.4221
  120MOL   H18331361   7.178   5.811   5.550 -0.7913  0.6889 -0.5310
  120MOL   C18431362   7.182   5.609   5.596  0.1501  0.4453 -0.1476
  120MOL   N18531363   7.329   5.615   5.585  0.0309  0.4414  0.1467
  120MOL   C18631364   7.412   5.692   5.658  0.0956  0.2522  0.6277
  120MOL   O18731365   7.370   5.767   5.749 -0.1129  0.1962  0.2156
  120MOL   C18831366   7.560   5.685   5.616 -0.1521 -0.0218  0.1280
  120MOL   C18931367   7.146   5.485   5.520  0.5580  0.5850  0.0758
  120MOL   H19031368   7.157   5.596   5.701 -2.4809 -2.3794 -1.0532
  120MOL   H19131369   7.373   5.555   5.515  0.7766 -0.2353  1.1799
  120MOL   H19231370   7.622   5.747   5.682  0.2305 -0.3737  0.0993
  120MOL   H19331371   7.603   5.585   5.623 -0.2058  0.0063  1.0046
  120MOL   H19431372   7.581   5.721   5.515  0.3534 -0.6228  0.0152
  120MOL   H19531373   7.038   5.480   5.513  0.6028 -0.1677 -0.2338
  120MOL   H19631374   7.172   5.497   5.414  1.5597  1.3360  0.4060
  120MOL   C19731375   7.186   5.349   5.572  0.1762 -1.0259 -0.0722
  120MOL   N19831376   7.137   5.253   5.470 -0.7792  0.0705 -0.6399
  120MOL   C19931377   7.202   5.201   5.363  0.0330  0.3072 -0.6183
  120MOL   O20031378   7.326   5.218   5.342 -0.2569 -0.4436 -0.2951
  120MOL   C20131379   7.126   5.101   5.278 -0.0746  0.0119  0.0173
  120MOL   C20231380   7.136   5.309   5.708  0.3935 -0.2049  0.0017
  120MOL   H20331381   7.294   5.351   5.557 -0.0639 -1.0549 -1.8757
  120MOL   H20431382   7.041   5.226   5.481 -0.4473 -0.5361  0.9358
  120MOL   H20531383   7.021   5.097   5.306  0.1852 -0.7642  0.9180
  120MOL   H20631384   7.134   5.119   5.171  1.9876  0.2327  0.1879
  120MOL   H20731385   7.168   5.002   5.299  1.1795  0.7760  1.2444
  120MOL   H20831386   7.176   5.374   5.786  0.2518  1.9144 -1.6403
  120MOL   H20931387   7.030   5.335   5.702  0.3134 -0.5673 -0.1173
  120MOL   C21031388   7.152   5.160   5.748 -0.3445  0.1442  0.1121
  120MOL   N21131389   7.089   5.134   5.874  0.1813 -0.2184  0.1388
  120MOL   C21231390   6.955   5.132   5.885 -0.2796  0.5327 -0.5144
  120MOL   O21331391   6.884   5.134   5.787  0.4819  0.9070 -0.1537
  120MOL   C21431392   6.890   5.123   6.024  0.0440 -0.4729 -0.3270
  120MOL   C21531393   7.307   5.119   5.749 -0.9912 -0.3559 -0.7044
  120MOL   H21631394   7.111   5.095   5.671  1.6901  0.1408 -1.0047
  120MOL   H21731395   7.153   5.136   5.953  0.0476  1.1229  0.2295
  120MOL   H21831396   6.793   5.073   6.019  0.5363 -1.4255 -0.5607
  120MOL   H21931397   6.952   5.073   6.099 -2.7598 -2.1988  0.9337
  120MOL   H22031398   6.871   5.224   6.058  0.7341 -0.8650  1.2565
  120MOL   H22131399   7.317   5.017   5.786 -0.6541  0.3457  1.1856
  120MOL   H22231400   7.335   5.109   5.644  0.9468 -2.1662 -0.0445
  120MOL   C22331401   7.410   5.213   5.821  0.1003  0.3326 -0.3483
  120MOL   N22431402   7.549   5.172   5.808  0.2185  0.3482  0.4538
  120MOL   C22531403   7.651   5.250   5.782 -0.3855  0.1075 -0.2474
  120MOL   O22631404   7.635   5.368   5.785 -0.3747  0.3367  0.5047
  120MOL   C22731405   7.789   5.197   5.750  0.0810  0.4154 -0.2562
  120MOL   C22831406   7.379   5.224   5.973 -0.1159  0.6715  0.0017
  120MOL   H22931407   7.397   5.314   5.783 -2.5753 -0.3985 -1.4784
  120MOL   H23031408   7.571   5.073   5.814  0.1719  0.4120  1.9225
  120MOL   H23131409   7.828   5.272   5.681 -0.3161  0.2102 -0.7028
  120MOL   H23231410   0.002   5.204   5.845 -0.9734  1.4659  0.2626
  120MOL   H23331411   7.773   5.104   5.696  0.3919  0.4665 -0.4360
  120MOL   H23431412   7.273   5.223   5.999  0.1554  3.6281  1.3942
  120MOL   H23531413   7.426   5.142   6.028 -3.7625  0.3688  2.8917
  120MOL   C23631414   7.424   5.354   6.045  1.2083 -0.0036  0.1086
  120MOL   N23731415   7.430   5.327   6.190  0.0556  0.0464 -0.0516
  120MOL   C23831416   7.349   5.268   6.272 -0.2297 -0.7002  0.0389
  120MOL   O23931417   7.235   5.235   6.239 -0.1165 -0.3308 -0.2517
  120MOL   C24031418   7.403   5.251   6.416 -0.4281  0.1597 -0.2371
  120MOL   C24131419   7.323   5.476   6.026  0.2014  0.3215 -0.5739
  120MOL   H24231420   7.523   5.388   6.014  1.6551 -1.2956  0.0991
  120MOL   H24331421   7.524   5.351   6.220 -0.2646  1.9070 -0.5301
  120MOL   H24431422   7.483   5.178   6.405 -0.2128  0.2893  0.4308
  120MOL   H24531423   7.442   5.337   6.470 -0.3502  0.1229 -0.2351
  120MOL   H24631424   7.325   5.214   6.482  1.1790  0.3037  1.7764
  120MOL   H24731425   7.321   5.503   5.920  2.0766 -0.5111 -0.8383
  120MOL   H24831426   7.220   5.456   6.054  0.8486 -2.1075  0.1767
  120MOL   C24931427   7.360   5.607   6.105  0.1279 -0.7908  0.2387
  120MOL   N25031428   7.296   5.711   6.026 -0.2173  0.4970  0.2433
  120MOL   C25131429   7.186   5.778   6.059  0.1455  0.2156 -0.7779
  120MOL   O25231430   7.133   5.766   6.171 -0.6272  0.1358  0.1210
  120MOL   C25331431   7.129   5.884   5.960 -0.1394  0.1826 -0.0004
  120MOL   C25431432   7.509   5.655   6.113  0.5838 -0.1006  0.1429
  120MOL   H25531433   7.337   5.598   6.211 -1.1092 -0.9353 -0.0400
  120MOL   H25631434   7.345   5.736   5.942 -1.6064  0.9668 -0.4491
  120MOL   H25731435   7.118   5.984   6.002 -0.0923  0.9123 -1.6649
  120MOL   H25831436   7.199   5.894   5.876  0.2521  0.1943  0.3224
  120MOL   H25931437   7.034   5.839   5.930  0.5354 -0.6437 -0.9715
  120MOL   H26031438   7.579   5.593   6.168  1.8334  0.1124 -1.1821
  120MOL   H26131439   7.550   5.678   6.015  1.9469  1.8314  1.1300
  120MOL   H26231440   7.519   5.753   6.159 -2.1970 -0.2496  1.1632
  121MOL     C131441   0.317   0.230   0.488  0.2713 -0.2841 -0.5068
  121MOL     N231442   0.305   0.273   0.625 -0.8593 -0.6285 -0.0360
  121MOL     C331443   0.358   0.218   0.733  0.3544  0.0307 -0.1572
  121MOL     O431444   0.438   0.121   0.727  0.0049  0.0794 -0.8038
  121MOL     C531445   0.328   0.291   0.867 -0.0930  0.4773 -0.2584
  121MOL     C631446   0.226   0.307   0.390  0.3259  0.0961 -0.0238
  121MOL     H731447   0.423   0.221   0.461 -0.1037 -2.5408 -1.3284
  121MOL     H831448   0.259   0.361   0.644  0.0855  0.3612 -2.1091
  121MOL     H931449   0.425   0.301   0.914  0.1308  1.2031 -0.8800
  121MOL    H1031450   0.273   0.384   0.853 -2.0985 -0.8330 -1.5493
  121MOL    H1131451   0.263   0.232   0.932  0.8490  1.0417  1.2077
  121MOL    H1231452   0.130   0.330   0.438 -0.5899 -0.0850 -1.7241
  121MOL    H1331453   0.264   0.406   0.364 -2.4153  0.8069 -1.6057
  121MOL    H1431454   0.277   0.129   0.481 -1.3067  0.2798  0.3176
  121MOL    C1531455   0.216   0.227   0.255  0.3748 -0.7168 -0.1208
  121MOL    N1631456   0.343   0.202   0.194 -0.4478  0.3050  0.7065
  121MOL    C1731457   0.417   0.088   0.195  0.2754 -0.6633  0.6250
  121MOL    O1831458   0.378   7.827   0.255 -0.0783 -0.4860  0.3622
  121MOL    C1931459   0.547   0.081   0.113  1.1882 -0.2934 -0.3042
  121MOL    C2031460   0.134   0.314   0.150 -0.0591 -0.1193  0.2396
  121MOL    H2131461   0.158   0.137   0.276  1.8012 -1.9919 -1.4991
  121MOL    H2231462   0.381   0.272   0.133 -1.7663  1.0403  0.7188
  121MOL    H2331463   0.552   7.823   0.065 -0.4816 -0.0811 -0.9414
  121MOL    H2431464   0.545   0.155   0.033 -0.5059 -0.4567 -0.4259
  121MOL    H2531465   0.640   0.080   0.169 -0.5571  1.9473  2.8249
  121MOL    H2631466   0.185   0.400   0.105 -0.3921  0.2251  0.5204
  121MOL    H2731467   0.125   0.247   0.064  0.8998 -0.9792  0.8069
  121MOL    C2831468   7.828   0.348   0.189  0.1240 -0.4717  0.1011
  121MOL    N2931469   7.744   0.348   0.065 -0.2224 -0.2333 -0.1034
  121MOL    C3031470   7.671   0.249   0.014 -0.0643  0.3385 -0.2226
  121MOL    O3131471   7.669   0.130   0.058 -0.2624 -0.0956 -0.1039
  121MOL    C3231472   7.585   0.277   7.726  0.5946 -0.0460 -0.8412
  121MOL    C3331473   7.823   0.490   0.257  0.4834  0.6546  0.5900
  121MOL    H3431474   7.801   0.268   0.259 -1.3509 -0.5566 -0.5488
  121MOL    H3531475   7.765   0.430   0.010  0.1071  0.0882  0.4898
  121MOL    H3631476   7.502   0.337   7.763  0.4890 -0.4047 -0.4911
  121MOL    H3731477   7.641   0.321   7.644 -0.5174  1.7300 -0.6583
  121MOL    H3831478   7.527   0.189   7.698 -1.5032  0.7342  0.9537
  121MOL    H3931479   0.059   0.512   0.332  2.4338 -1.4803 -0.7220
  121MOL    H4031480   0.011   0.561   0.179  0.3294  1.5423  1.3316
  121MOL    C4131481   7.692   0.528   0.321  0.3808 -0.1033  0.2899
  121MOL    N4231482   7.575   0.527   0.230  0.3038 -0.4384 -0.0467
  121MOL    C4331483   7.462   0.464   0.260 -0.1377  0.2038 -0.4962
  121MOL    O4431484   7.451   0.387   0.354  0.0193  0.0413 -0.1651
  121MOL    C4531485   7.347   0.489   0.166  0.4592  0.2106 -0.6274
  121MOL    C4631486   7.692   0.657   0.400  0.1214 -0.0610 -0.2424
  121MOL    H4731487   7.667   0.449   0.392  1.1200 -1.2211 -0.6704
  121MOL    H4831488   7.590   0.574   0.141  0.0223  1.9754  1.1448
  121MOL    H4931489   7.253   0.469   0.218  1.8801 -1.2299  1.4160
  121MOL    H5031490   7.352   0.594   0.136 -1.5983  0.7235  0.7282
  121MOL    H5131491   7.341   0.436   0.071  0.0978 -0.0533 -0.4588
  121MOL    H5231492   7.715   0.742   0.336 -0.5474 -0.0403 -0.4523
  121MOL    H5331493   7.588   0.671   0.430 -0.9980 -2.2732 -2.9389
  121MOL    C5431494   7.785   0.662   0.527  0.0355  0.2542  0.1996
  121MOL    N5531495   7.756   0.557   0.620  0.5782  0.4606 -0.3651
  121MOL    C5631496   0.002   0.478   0.685 -0.4591  0.4467  0.2133
  121MOL    O5731497   0.124   0.486   0.668  0.2008  0.0731 -0.2983
  121MOL    C5831498   7.783   0.396   0.796 -0.3197  0.1484  0.0604
  121MOL    C5931499   7.757   0.802   0.598 -0.6570  0.0667  0.8325
  121MOL    H6031500   0.051   0.670   0.506 -0.0928 -2.2826 -1.6057
  121MOL    H6131501   7.659   0.543   0.646  0.4936  1.5201 -0.0893
  121MOL    H6231502   0.029   0.341   0.834 -0.8569 -0.0644  0.9853
  121MOL    H6331503   7.747   0.447   0.886  1.3033  2.5534 -0.6166
  121MOL    H6431504   7.718   0.325   0.745  0.8690 -0.4734 -0.5858
  121MOL    H6531505   7.771   0.877   0.520  1.4147  0.1591  1.2903
  121MOL    H6631506   7.655   0.818   0.633 -0.9769  0.2384 -0.1637
  121MOL    C6731507   0.017   0.834   0.720 -1.0958 -0.2148  0.3110
  121MOL    N6831508   7.792   0.930   0.814 -0.0098 -0.2151 -0.4578
  121MOL    C6931509   7.734   1.042   0.775  0.0730  0.5181  0.0863
  121MOL    O7031510   7.739   1.082   0.654 -0.3669  0.1096 -0.0633
  121MOL    C7131511   7.663   1.131   0.882 -0.3988 -0.0205  0.0689
  121MOL    C7231512   0.154   0.897   0.678  0.4004  0.4052 -0.3520
  121MOL    H7331513   0.039   0.743   0.776 -0.1859  0.7233  1.5129
  121MOL    H7431514   7.768   0.902   0.908 -1.6369  1.3424 -0.3909
  121MOL    H7531515   7.745   1.175   0.938  0.6557 -2.2351  0.3325
  121MOL    H7631516   7.589   1.206   0.855  0.0807  0.2252 -0.5760
  121MOL    H7731517   7.604   1.070   0.950 -0.4834 -0.8319 -0.7272
  121MOL    H7831518   0.191   0.855   0.585 -1.4387  0.1981 -1.0002
  121MOL    H7931519   0.134   1.002   0.658  2.8516  1.2271  1.2047
  121MOL    C8031520   0.257   0.910   0.796 -0.0757 -0.0948 -0.1716
  121MOL    N8131521   0.365   1.005   0.769  0.8637  0.1136 -0.3608
  121MOL    C8231522   0.341   1.137   0.807 -0.1410  0.6760 -0.4290
  121MOL    O8331523   0.223   1.166   0.835 -0.0615 -0.3687  0.6155
  121MOL    C8431524   0.452   1.239   0.794  0.1380 -0.2105  0.4649
  121MOL    C8531525   0.315   0.767   0.815  0.6807  0.1325  0.0662
  121MOL    H8631526   0.204   0.914   0.891 -0.3861 -0.3749 -0.3334
  121MOL    H8731527   0.454   0.973   0.733  1.1312 -1.4865  1.6537
  121MOL    H8831528   0.541   1.180   0.774  0.1960 -0.5143  1.5828
  121MOL    H8931529   0.430   1.301   0.707  0.8041  1.0730  1.2021
  121MOL    H9031530   0.465   1.301   0.883  0.7584 -1.1906  1.0679
  121MOL    H9131531   0.231   0.697   0.825  0.4595  0.1873 -1.2720
  121MOL    H9231532   0.363   0.735   0.723 -0.2135  1.2270 -0.7985
  121MOL    C9331533   0.412   0.754   0.932 -0.1484  0.3393 -0.6858
  121MOL    N9431534   0.496   0.632   0.926  0.6212 -0.3911 -0.1642
  121MOL    C9531535   0.627   0.630   0.933 -0.6142 -0.2267  0.6970
  121MOL    O9631536   0.700   0.725   0.951  0.6619 -0.3845  0.8602
  121MOL    C9731537   0.693   0.498   0.901  0.2718  0.4834 -0.8117
  121MOL    C9831538   0.339   0.764   1.070  0.3345 -1.1632 -0.4687
  121MOL    H9931539   0.476   0.842   0.931 -0.6672  0.7214 -0.5317
  121MOL   H10031540   0.453   0.543   0.907  1.7778 -1.4265  1.8657
  121MOL   H10131541   0.780   0.517   0.837  2.4896 -1.3041  1.5883
  121MOL   H10231542   0.719   0.472   1.003 -0.2324 -0.7485 -0.9959
  121MOL   H10331543   0.634   0.413   0.868  0.1203 -0.6193  2.1592
  121MOL   H10431544   0.242   0.716   1.054  0.5048 -1.0097 -2.0428
  121MOL   H10531545   0.390   0.706   1.147 -0.7319  1.7914  2.5661
  121MOL   C10631546   0.328   0.908   1.124 -0.2136 -0.2908 -0.4462
  121MOL   N10731547   0.446   0.926   1.202  0.1866  0.2226  0.5843
  121MOL   C10831548   0.512   1.046   1.205  0.0819 -0.2426 -0.0843
  121MOL   O10931549   0.489   1.135   1.118  0.5346  0.2182 -0.3398
  121MOL   C11031550   0.610   1.068   1.320 -0.1254 -0.2534 -0.4514
  121MOL   C11131551   0.214   0.920   1.231  0.1417  0.4761 -0.2842
  121MOL   H11231552   0.324   0.975   1.038  0.4216  1.8404  1.1386
  121MOL   H11331553   0.472   0.853   1.267 -0.5988 -0.7125 -0.1347
  121MOL   H11431554   0.703   1.024   1.284 -0.0390 -0.5722  0.1616
  121MOL   H11531555   0.634   1.174   1.319  1.3029 -0.5758 -0.7540
  121MOL   H11631556   0.582   1.028   1.417 -0.7233 -1.0452 -0.9347
  121MOL   H11731557   0.204   0.825   1.283 -1.9008  1.1673  0.6180
  121MOL   H11831558   0.249   0.995   1.302  3.4927  0.1369 -1.4890
  121MOL   C11931559   0.075   0.972   1.181 -0.0948  0.2080 -0.1270
  121MOL   N12031560   0.084   1.107   1.117  0.1612 -0.9354 -0.1444
  121MOL   C12131561   0.086   1.225   1.182 -0.0289  0.2860 -0.3846
  121MOL   O12231562   0.065   1.236   1.302 -1.0144  0.1922  0.7432
  121MOL   C12331563   0.112   1.352   1.104 -0.3981  0.2191 -0.4946
  121MOL   C12431564   7.806   0.949   1.285 -0.1403  0.0593 -0.5573
  121MOL   H12531565   0.047   0.910   1.096  1.9967 -0.7050 -0.1935
  121MOL   H12631566   0.112   1.107   1.020  3.3087  2.5138  0.6553
  121MOL   H12731567   0.213   1.369   1.068 -0.4490  0.5789 -0.4668
  121MOL   H12831568   0.045   1.353   1.018 -1.2045  0.3106  0.1244
  121MOL   H12931569   0.087   1.444   1.156 -2.1455 -0.3409 -0.2992
  121MOL   H13031570   7.814   0.842   1.302 -0.3066  0.1075 -0.1735
  121MOL   H13131571   7.831   0.994   1.381  1.1040  1.2394 -1.4107
  121MOL   C13231572   7.659   0.988   1.257 -0.0023 -0.3299 -0.2996
  121MOL   N13331573   7.624   1.122   1.291  0.4750 -0.0919  0.3088
  121MOL   C13431574   7.529   1.186   1.231 -0.1271 -0.3124  0.1278
  121MOL   O13531575   7.448   1.145   1.155  0.4382 -0.6211 -0.4618
  121MOL   C13631576   7.513   1.337   1.278 -0.5515  0.1674 -0.0075
  121MOL   C13731577   7.569   0.889   1.334 -0.4505  0.5886  0.3875
  121MOL   H13831578   7.644   0.974   1.150 -2.6169 -0.5673  0.0761
  121MOL   H13931579   7.693   1.169   1.348  2.0862 -3.2702  1.0991
  121MOL   H14031580   7.466   1.351   1.375  0.1786 -2.6980  0.7923
  121MOL   H14131581   7.611   1.383   1.265  0.4204 -1.3481  1.8039
  121MOL   H14231582   7.443   1.382   1.207 -0.3728 -1.1086 -1.0138
  121MOL   H14331583   7.605   0.857   1.432  1.8484 -1.2865 -1.0121
  121MOL   H14431584   7.477   0.943   1.355  0.1282  1.5461  0.4505
  121MOL   C14531585   7.541   0.760   1.248 -0.1582 -1.0480  0.1687
  121MOL   N14631586   7.455   0.799   1.134 -0.3583  0.5643  0.0468
  121MOL   C14731587   7.498   0.806   1.008 -0.0052  0.0990 -0.5687
  121MOL   O14831588   7.617   0.781   0.971  0.3326 -0.7358 -0.0260
  121MOL   C14931589   7.392   0.839   0.916 -0.6852  0.2061 -0.3154
  121MOL   C15031590   7.480   0.644   1.319 -0.0554 -0.7194 -0.1356
  121MOL   H15131591   7.639   0.726   1.217 -0.3279 -1.4819  0.1034
  121MOL   H15231592   7.357   0.805   1.157 -0.7699  0.8221 -1.6790
  121MOL   H15331593   7.380   0.748   0.856 -0.3408 -0.1853  0.2100
  121MOL   H15431594   7.295   0.856   0.962 -2.3167  0.6425 -3.7097
  121MOL   H15531595   7.412   0.920   0.845 -0.3235  0.5223  0.1425
  121MOL   H15631596   7.561   0.618   1.386 -1.0023  0.8387  1.6747
  121MOL   H15731597   7.395   0.681   1.377  1.2336  0.0922  1.2598
  121MOL   C15831598   7.455   0.514   1.246 -0.0443 -0.5305  0.6737
  121MOL   N15931599   7.354   0.434   1.312  0.2726  0.7584 -0.0698
  121MOL   C16031600   7.357   0.385   1.441 -0.4408 -0.2695 -0.3857
  121MOL   O16131601   7.449   0.398   1.519  0.2659 -0.2288 -0.2721
  121MOL   C16231602   7.239   0.309   1.488 -0.3731  0.0221  0.3926
  121MOL   C16331603   7.587   0.436   1.213  0.0664 -0.1117  0.1698
  121MOL   H16431604   7.415   0.539   1.148 -2.9530  0.1578  1.9926
  121MOL   H16531605   7.273   0.404   1.259 -0.0757  0.6033  0.5486
  121MOL   H16631606   7.232   0.225   1.419  0.4461 -0.1063  0.4540
  121MOL   H16731607   7.249   0.271   1.589  2.0427 -0.3362  0.0517
  121MOL   H16831608   7.160   0.383   1.482 -0.1197  0.2233 -0.6006
  121MOL   H16931609   7.653   0.502   1.157  1.4539 -0.1949  1.6957
  121MOL   H17031610   7.649   0.409   1.298 -0.0572 -2.5978 -0.4941
  121MOL   C17131611   7.566   0.295   1.149 -0.3261 -0.7292 -0.5143
  121MOL   N17231612   7.690   0.215   1.149 -0.0910  0.0539 -0.6136
  121MOL   C17331613   7.733   0.141   1.250 -0.2351  0.1533 -0.7384
  121MOL   O17431614   7.675   0.132   1.360  0.0305  0.2855 -0.7434
  121MOL   C17531615   0.020   0.062   1.238 -0.4615  0.6001 -0.2183
  121MOL   C17631616   7.507   0.309   1.008 -0.2113  0.0153 -0.6652
  121MOL   H17731617   7.496   0.236   1.208  0.3671  0.0449  1.1019
  121MOL   H17831618   7.729   0.197   1.057  0.1049  0.0902 -0.5384
  121MOL   H17931619   0.100   0.113   1.185 -0.7688  1.0994 -0.2143
  121MOL   H18031620   0.048   0.022   1.335 -2.1913 -0.7546 -0.2490
  121MOL   H18131621   7.837   7.809   1.185  2.6371  0.0248 -0.6333
  121MOL   H18231622   7.512   0.411   0.969  0.0090  1.2724  2.4351
  121MOL   H18331623   7.569   0.255   0.937  2.2364  3.0805 -0.9728
  121MOL   C18431624   7.352   0.263   1.002 -0.0638 -0.3773  0.2771
  121MOL   N18531625   7.347   0.116   1.002  0.2813 -0.0889  0.8162
  121MOL   C18631626   7.259   0.048   1.074  0.2422 -0.7093  0.2098
  121MOL   O18731627   7.180   0.109   1.147 -0.4808  0.3351 -0.0501
  121MOL   C18831628   7.276   7.740   1.075  0.1137  0.1820  0.2349
  121MOL   C18931629   7.273   0.333   0.887  0.0671 -0.3811 -0.6333
  121MOL   H19031630   7.300   0.295   1.093 -0.8364 -0.6665 -0.0604
  121MOL   H19131631   7.402   0.080   0.926 -1.2312 -0.2940 -0.2215
  121MOL   H19231632   7.215   7.690   1.151 -0.2077  0.0778 -0.0877
  121MOL   H19331633   7.246   7.700   0.978  0.4858 -0.4306  0.3652
  121MOL   H19431634   7.378   7.708   1.098 -0.7841 -0.9819  2.8536
  121MOL   H19531635   7.177   0.283   0.904  1.6319 -2.5699  2.3703
  121MOL   H19631636   7.260   0.439   0.905 -2.5513 -0.6573 -0.7019
  121MOL   C19731637   7.316   0.299   0.744  0.3443  0.0654 -0.5028
  121MOL   N19831638   7.287   0.411   0.659  0.1513 -0.1592  0.2376
  121MOL   C19931639   7.362   0.519   0.637  0.0471  0.2618  0.2464
  121MOL   O20031640   7.480   0.526   0.671 -0.7010  0.4989 -0.0181
  121MOL   C20131641   7.304   0.633   0.559 -0.0953 -0.3332 -0.1361
  121MOL   C20231642   7.253   0.173   0.681 -0.4435  0.3364 -0.1570
  121MOL   H20331643   7.424   0.288   0.736  0.2227 -0.8614 -1.0157
  121MOL   H20431644   7.195   0.428   0.622 -0.5761  3.1390  3.2172
  121MOL   H20531645   7.288   0.620   0.453 -2.3566  1.6500 -0.0652
  121MOL   H20631646   7.206   0.661   0.598 -0.0347  0.4526 -0.5401
  121MOL   H20731647   7.374   0.716   0.573  0.3425 -0.4463 -1.5713
  121MOL   H20831648   7.274   0.094   0.753  1.6962  0.0905 -1.0235
  121MOL   H20931649   7.145   0.188   0.683 -0.3339  1.1023  0.3166
  121MOL   C21031650   7.304   0.125   0.540  0.5319 -0.2040 -0.0562
  121MOL   N21131651   7.449   0.147   0.526 -0.0369 -0.3059 -0.0285
  121MOL   C21231652   7.536   0.053   0.483  0.2786  0.5772  0.6009
  121MOL   O21331653   7.515   7.777   0.450 -0.3739  0.1833 -0.4037
  121MOL   C21431654   7.676   0.107   0.471  0.2223  0.2585 -0.2643
  121MOL   C21531655   7.241   0.188   0.416  0.1495 -0.4460 -1.0190
  121MOL   H21631656   7.278   0.020   0.535  1.3396 -0.3365 -1.5666
  121MOL   H21731657   7.479   0.242   0.541  1.1766 -0.1808 -2.9103
  121MOL   H21831658   7.674   0.134   0.366 -1.1953  1.8747  0.1619
  121MOL   H21931659   7.711   0.190   0.532  0.4539  0.9076 -1.2643
  121MOL   H22031660   7.753   0.029   0.470  0.8273  0.7438  2.9453
  121MOL   H22131661   7.238   0.296   0.424 -2.2989 -0.5348 -0.4265
  121MOL   H22231662   7.298   0.163   0.326  0.7083  0.9402 -1.0556
  121MOL   C22331663   7.100   0.145   0.388  0.0050  0.4532  0.1552
  121MOL   N22431664   7.090   0.006   0.351  0.0897 -0.0396 -0.1820
  121MOL   C22531665   7.074   7.727   0.417 -0.0018  0.4439 -0.0126
  121MOL   O22631666   7.037   7.718   0.535 -0.6464 -0.3653 -0.5041
  121MOL   C22731667   7.101   7.598   0.341  0.2727  0.3097 -0.2100
  121MOL   C22831668   7.038   0.235   0.276  0.3548 -0.0749 -0.2571
  121MOL   H22931669   7.039   0.157   0.478 -1.4641 -3.3591 -0.2311
  121MOL   H23031670   7.123   7.838   0.256 -0.1625  0.1722 -0.2878
  121MOL   H23131671   7.202   7.594   0.300  0.3978  0.2614  0.0959
  121MOL   H23231672   7.096   7.512   0.409 -2.0425  0.7748  0.2535
  121MOL   H23331673   7.028   7.593   0.261 -1.8537  1.0851  1.6112
  121MOL   H23431674   7.092   0.235   0.182 -0.3223  1.6857 -0.6532
  121MOL   H23531675   6.954   0.177   0.239 -0.1317 -0.4348  1.3849
  121MOL   C23631676   6.996   0.376   0.314  0.0780  0.2679  0.4916
  121MOL   N23731677   6.898   0.362   0.426  0.2859 -0.9211 -0.1351
  121MOL   C23831678   6.933   0.407   0.549  0.5405  0.0347 -0.4485
  121MOL   O23931679   7.025   0.489   0.577 -0.0706 -0.2353  0.3556
  121MOL   C24031680   6.863   0.322   0.663  0.4793 -0.7121 -0.4759
  121MOL   C24131681   6.932   0.452   0.198  0.0987  0.2716 -0.3719
  121MOL   H24231682   7.082   0.438   0.340  0.4880 -0.3220  0.5417
  121MOL   H24331683   6.825   0.294   0.411 -2.2668  1.7760 -0.3859
  121MOL   H24431684   6.923   0.341   0.753 -0.5623  0.2708  0.0228
  121MOL   H24531685   6.759   0.350   0.680  0.4841 -0.2078 -1.2588
  121MOL   H24631686   6.867   0.214   0.648  0.1379 -0.5353 -1.8454
  121MOL   H24731687   7.005   0.450   0.118  0.1687 -0.1218 -0.3001
  121MOL   H24831688   6.845   0.397   0.163 -0.8892  1.3622  0.3311
  121MOL   C24931689   6.904   0.601   0.228  0.1057 -0.6414 -0.5251
  121MOL   N25031690   6.802   0.666   0.149 -0.1019  0.7773 -0.1699
  121MOL   C25131691   6.669   0.651   0.180 -0.4733  0.9374  0.4348
  121MOL   O25231692   6.632   0.583   0.278 -0.5193 -0.6982 -0.2337
  121MOL   C25331693   6.570   0.722   0.088  0.2271  0.2797 -0.3685
  121MOL   C25431694   7.035   0.690   0.199  0.3385 -1.0066  0.2157
  121MOL   H25531695   6.896   0.613   0.336  1.3678 -0.1510 -0.4844
  121MOL   H25631696   6.835   0.720   0.070  1.6644 -2.4328 -1.7088
  121MOL   H25731697   6.546   0.816   0.137  0.9596 -0.6877  1.9040
  121MOL   H25831698   6.614   0.733   7.828 -0.0370 -1.3180 -0.6832
  121MOL   H25931699   6.471   0.678   0.080  0.4832 -0.4713  0.5014
  121MOL   H26031700   7.121   0.646   0.249 -0.9663 -0.9785  2.5633
  121MOL   H26131701   7.054   0.694   0.091 -0.0508 -1.4481  0.1282
  121MOL   H26231702   7.028   0.787   0.248  0.7114 -1.8104  1.8742
  122MOL     C131703   5.160   0.270   2.569 -0.3053  0.6417 -0.6186
  122MOL     N231704   5.231   0.153   2.518  0.2908 -0.5328  0.1650
  122MOL     C331705   5.227   0.112   2.395  0.0409 -0.4529  0.1147
  122MOL     O431706   5.164   0.175   2.307 -0.1921 -0.3057  0.2247
  122MOL     C531707   5.303   7.828   2.362 -0.1844 -0.4057  0.1876
  122MOL     C631708   5.185   0.302   2.720  0.1468 -0.0164  0.6877
  122MOL     H731709   5.181   0.362   2.515  2.9179  1.0473  1.1364
  122MOL     H831710   5.303   0.113   2.577  1.7326  1.5705 -0.0999
  122MOL     H931711   5.393   7.839   2.301 -0.5677 -0.6040 -0.4109
  122MOL    H1031712   5.338   7.788   2.458  0.8587 -0.8615 -0.3758
  122MOL    H1131713   5.232   7.752   2.328 -0.6626 -0.6797  1.7503
  122MOL    H1231714   5.158   0.217   2.783 -0.6475 -0.7151 -0.5705
  122MOL    H1331715   5.289   0.316   2.748  0.1698 -0.3225  0.7654
  122MOL    H1431716   5.052   0.255   2.567 -0.4577  0.7745  2.8959
  122MOL    C1531717   5.108   0.427   2.767 -0.4375 -0.2261 -0.0776
  122MOL    N1631718   5.151   0.466   2.901 -0.5341  0.3601 -0.2037
  122MOL    C1731719   5.248   0.544   2.937  0.6265 -0.3930  0.6107
  122MOL    O1831720   5.314   0.605   2.849 -0.2178 -0.1109  0.1860
  122MOL    C1931721   5.277   0.574   3.082  0.3001 -0.3410  0.0102
  122MOL    C2031722   4.949   0.423   2.767 -0.5565 -0.5811 -0.4741
  122MOL    H2131723   5.123   0.509   2.697 -0.7436  0.0573  0.1862
  122MOL    H2231724   5.105   0.422   2.979  0.3263  1.4177  0.9070
  122MOL    H2331725   5.183   0.587   3.136  0.5631  2.0847 -0.0616
  122MOL    H2431726   5.320   0.487   3.132 -0.9727 -0.4767  0.8881
  122MOL    H2531727   5.341   0.661   3.097  0.1382 -0.4848  1.7035
  122MOL    H2631728   4.925   0.317   2.759  2.1971 -1.5350  2.4789
  122MOL    H2731729   4.906   0.458   2.861  1.8040 -1.0261  0.8320
  122MOL    C2831730   4.886   0.503   2.646  0.0711  0.3970 -0.0303
  122MOL    N2931731   4.915   0.650   2.663  0.6769  0.8581 -0.2970
  122MOL    C3031732   4.961   0.732   2.565  0.1524  0.0721  0.2266
  122MOL    O3131733   4.989   0.696   2.453 -0.4841 -0.0624 -0.0916
  122MOL    C3231734   4.963   0.883   2.593  0.0013  0.4032 -0.7139
  122MOL    C3331735   4.732   0.486   2.645  1.2158 -0.1406  0.4908
  122MOL    H3431736   4.922   0.455   2.555  0.0015 -3.4094  1.8639
  122MOL    H3531737   4.907   0.692   2.755 -2.0183  1.4487 -0.7867
  122MOL    H3631738   5.043   0.908   2.663  1.0283 -2.0265 -0.9622
  122MOL    H3731739   4.983   0.928   2.496  2.3223  0.4199 -0.2640
  122MOL    H3831740   4.865   0.911   2.631  0.1614 -0.0178  0.0159
  122MOL    H3931741   4.710   0.433   2.738  1.4322  1.7085  1.6340
  122MOL    H4031742   4.672   0.577   2.656 -1.2661 -1.5364 -1.2195
  122MOL    C4131743   4.678   0.401   2.523 -0.1482 -0.2367 -0.7639
  122MOL    N4231744   4.540   0.433   2.495  0.0714 -0.0025  0.2122
  122MOL    C4331745   4.432   0.406   2.576  0.0513 -0.4293  0.2063
  122MOL    O4431746   4.445   0.361   2.687 -0.3145 -0.1047 -0.4912
  122MOL    C4531747   4.290   0.455   2.523 -1.2370  0.2703 -0.0777
  122MOL    C4631748   4.712   0.251   2.536  0.0874  0.2385 -0.1537
  122MOL    H4731749   4.744   0.435   2.444 -0.0762  2.7144  0.4932
  122MOL    H4831750   4.519   0.494   2.417 -2.2889 -0.6345  0.3299
  122MOL    H4931751   4.215   0.382   2.556 -2.3525  0.7655 -1.4796
  122MOL    H5031752   4.265   0.559   2.544 -2.0900 -0.2533  1.6620
  122MOL    H5131753   4.296   0.433   2.417  0.0554  0.0509  0.0298
  122MOL    H5231754   4.819   0.234   2.545  0.0247 -0.1205 -0.0534
  122MOL    H5331755   4.663   0.221   2.630  0.2088  0.5784  0.0174
  122MOL    C5431756   4.659   0.164   2.433  0.0320  0.3901  0.1958
  122MOL    N5531757   4.681   0.028   2.451 -0.0933  0.1011  0.3925
  122MOL    C5631758   4.594   7.762   2.442 -0.5146  0.3135 -0.1508
  122MOL    O5731759   4.481   7.773   2.398  0.3084  0.1018  0.1486
  122MOL    C5831760   4.653   7.622   2.466 -0.1988  0.9304 -0.3192
  122MOL    C5931761   4.725   0.204   2.291 -0.6337 -0.2254 -0.2650
  122MOL    H6031762   4.551   0.179   2.435 -0.0297 -0.1759  1.0356
  122MOL    H6131763   4.780   0.007   2.447  0.6010  2.4964  3.0202
  122MOL    H6231764   4.722   7.592   2.387 -0.8474 -0.1387 -0.4917
  122MOL    H6331765   4.693   7.606   2.566 -4.6444 -2.3158  1.0815
  122MOL    H6431766   4.573   7.548   2.459  0.0489  0.4879  1.3654
  122MOL    H6531767   4.753   0.310   2.288  0.3200 -0.5127 -2.0740
  122MOL    H6631768   4.816   0.146   2.282 -0.8064 -0.1556 -2.6807
  122MOL    C6731769   4.632   0.181   2.165 -0.6581  0.2773  0.7767
  122MOL    N6831770   4.498   0.158   2.202 -0.2517 -0.0408  0.1867
  122MOL    C6931771   4.401   0.239   2.206  0.2847 -0.2399 -0.8217
  122MOL    O7031772   4.404   0.362   2.175  0.2265  0.4339  0.9476
  122MOL    C7131773   4.273   0.179   2.264  1.0264 -0.1457 -0.2512
  122MOL    C7231774   4.687   0.102   2.047 -0.7861 -0.1798 -0.2626
  122MOL    H7331775   4.636   0.281   2.122  0.2301  0.5084  1.3867
  122MOL    H7431776   4.480   0.067   2.242  0.6283 -1.0621 -1.6858
  122MOL    H7531777   4.256   0.203   2.368 -1.2970 -1.3199 -0.3399
  122MOL    H7631778   4.189   0.208   2.200  1.6794  1.1916 -0.5241
  122MOL    H7731779   4.277   0.070   2.264 -0.8359 -0.2381 -1.6709
  122MOL    H7831780   4.630   0.120   1.957 -0.1750 -0.7893 -0.7783
  122MOL    H7931781   4.789   0.134   2.025 -0.5865 -0.6564 -0.0299
  122MOL    C8031782   4.684   7.793   2.069 -0.6667  0.7020 -0.1058
  122MOL    N8131783   4.816   7.741   2.043  0.7059 -0.1544 -0.3896
  122MOL    C8231784   4.910   7.705   2.135  0.1733  0.3194 -0.2390
  122MOL    O8331785   4.893   7.710   2.254  0.3483  0.2229  0.3190
  122MOL    C8431786   5.042   7.642   2.073  0.3671  0.0032 -0.9322
  122MOL    C8531787   4.569   7.722   1.982 -0.0566  0.3443  0.1808
  122MOL    H8631788   4.648   7.773   2.170 -1.2551  1.1447 -0.2242
  122MOL    H8731789   4.845   7.732   1.947 -1.1374  1.5063 -1.1310
  122MOL    H8831790   5.084   7.576   2.149  0.6952  1.1407 -0.1189
  122MOL    H8931791   5.015   7.582   1.986 -0.3910  1.6705 -1.8846
  122MOL    H9031792   5.122   7.714   2.057  0.1826  0.8324  1.6424
  122MOL    H9131793   4.484   7.788   1.963  1.5837  2.6039  0.5198
  122MOL    H9231794   4.625   7.706   1.889 -0.3990 -0.5048  0.1142
  122MOL    C9331795   4.520   7.587   2.048 -0.2861  0.1792 -0.4097
  122MOL    N9431796   4.644   7.514   2.084 -0.0222 -0.5929  0.5064
  122MOL    C9531797   4.650   7.404   2.161  0.6841 -0.6621  0.0643
  122MOL    O9631798   4.551   7.346   2.204 -0.4583  1.1044  0.2101
  122MOL    C9731799   4.785   7.351   2.174 -0.1238  1.1639  0.3097
  122MOL    C9831800   4.435   7.501   1.942  0.0608 -0.2087 -0.4094
  122MOL    H9931801   4.465   7.598   2.141 -0.1696  1.9508 -0.5335
  122MOL   H10031802   4.733   7.556   2.062 -1.9684  2.2541 -2.3377
  122MOL   H10131803   4.831   7.307   2.085  0.3520  1.2629  0.5098
  122MOL   H10231804   4.842   7.438   2.206 -1.2062  1.9621  0.0981
  122MOL   H10331805   4.788   7.264   2.239 -0.1738  0.2825 -0.8468
  122MOL   H10431806   4.494   7.466   1.857 -0.0516 -0.2979 -0.4501
  122MOL   H10531807   4.407   7.411   1.997  0.0218  0.7395  1.1682
  122MOL   C10631808   4.316   7.579   1.878 -0.1094  0.3074 -0.1573
  122MOL   N10731809   4.217   7.601   1.980  0.0474  0.4138  0.0172
  122MOL   C10831810   4.197   7.709   2.054  0.5848  0.7188 -0.0021
  122MOL   O10931811   4.261   7.808   2.034 -0.3477  0.0034  0.1035
  122MOL   C11031812   4.109   7.706   2.178 -0.5321 -0.0456  0.5409
  122MOL   C11131813   4.254   7.499   1.764 -0.7320  0.5786 -1.0158
  122MOL   H11231814   4.358   7.666   1.827 -0.3913  0.2100 -0.5627
  122MOL   H11331815   4.140   7.538   1.994  0.3997  0.2339  1.2150
  122MOL   H11431816   4.039   7.790   2.171  1.3919  1.5002 -0.7583
  122MOL   H11531817   4.038   7.626   2.197  1.4096 -2.0619 -0.5777
  122MOL   H11631818   4.154   7.732   2.274  1.5829 -2.1326  0.1394
  122MOL   H11731819   4.333   7.474   1.693  1.2737  3.2883  0.1547
  122MOL   H11831820   4.213   7.407   1.805  3.2935 -0.2720  1.3696
  122MOL   C11931821   4.159   7.569   1.667  0.9131  0.1703 -0.1563
  122MOL   N12031822   4.050   7.638   1.733 -0.0369  0.1790 -0.2034
  122MOL   C12131823   3.990   7.747   1.681  0.1406  0.4641 -0.0994
  122MOL   O12231824   4.039   7.812   1.586  0.1146 -0.0272  0.5162
  122MOL   C12331825   3.854   7.790   1.740  0.2266 -0.4697 -0.0228
  122MOL   C12431826   4.098   7.453   1.590  0.0523 -0.0858 -0.1661
  122MOL   H12531827   4.208   7.638   1.598 -1.1564  1.8276  0.0111
  122MOL   H12631828   3.994   7.587   1.800 -1.0991 -2.1786 -2.8022
  122MOL   H12731829   3.861   7.776   1.847 -0.6483 -0.1103  0.0798
  122MOL   H12831830   3.828   0.050   1.706  2.2038  0.9695  2.5230
  122MOL   H12931831   3.777   7.730   1.692 -0.3798  1.0642 -1.0262
  122MOL   H13031832   4.176   7.392   1.543  0.0590  1.2349 -1.9131
  122MOL   H13131833   4.044   7.387   1.658 -1.6806 -0.2781 -1.6965
  122MOL   C13231834   4.004   7.488   1.469 -0.5135 -0.7133  0.4739
  122MOL   N13331835   3.874   7.413   1.467  0.0098  1.0564  0.2524
  122MOL   C13431836   3.770   7.428   1.548  0.6946  0.2258  0.3370
  122MOL   O13531837   3.782   7.473   1.661  0.2250  0.3495 -0.2353
  122MOL   C13631838   3.638   7.372   1.499 -0.3126 -0.7305 -0.1184
  122MOL   C13731839   4.079   7.482   1.332 -0.4954 -0.5170  0.0588
  122MOL   H13831840   3.969   7.589   1.491 -1.7030 -1.1222  0.5044
  122MOL   H13931841   3.858   7.355   1.386 -3.3239 -0.0685  1.5916
  122MOL   H14031842   3.641   7.264   1.488  0.9308 -0.9368  1.9860
  122MOL   H14131843   3.565   7.413   1.569  0.8085 -1.0936  1.2992
  122MOL   H14231844   3.615   7.408   1.399 -1.2618 -0.5652  0.1479
  122MOL   H14331845   4.121   7.381   1.339 -1.7418 -0.8385  3.8562
  122MOL   H14431846   4.005   7.479   1.252 -0.8871 -0.7503  0.4267
  122MOL   C14531847   4.171   7.597   1.306 -0.0500  0.0679  0.3103
  122MOL   N14631848   4.092   7.727   1.303 -0.0548  0.3503  0.1368
  122MOL   C14731849   3.991   7.748   1.221  0.3031  0.9781  0.1832
  122MOL   O14831850   3.979   7.691   1.110  0.0852  0.1600 -0.0846
  122MOL   C14931851   3.884   0.007   1.277  0.3745 -0.0196  0.0723
  122MOL   C15031852   4.252   7.573   1.183 -0.2892 -0.6531 -0.9616
  122MOL   H15131853   4.235   7.620   1.391 -0.0826  1.2601  0.0155
  122MOL   H15231854   4.109   7.782   1.385 -0.9089  2.1413 -0.8692
  122MOL   H15331855   3.822   0.045   1.195 -1.4804 -0.2794  1.3207
  122MOL   H15431856   3.805   7.789   1.324  1.3258 -1.1080  0.3508
  122MOL   H15531857   3.920   0.083   1.345 -0.1259  1.0717 -0.8599
  122MOL   H15631858   4.183   7.553   1.100 -1.0790 -2.9425  0.2008
  122MOL   H15731859   4.307   7.665   1.164 -1.6257  0.3384 -0.1859
  122MOL   C15831860   4.360   7.461   1.205 -0.3666  0.1761  0.1451
  122MOL   N15931861   4.453   7.507   1.305  0.0379 -0.2027  0.0660
  122MOL   C16031862   4.479   7.454   1.429 -0.8243 -0.6093  0.5769
  122MOL   O16131863   4.428   7.357   1.479 -0.1865 -0.3493 -0.0430
  122MOL   C16231864   4.572   7.539   1.514  0.6035  0.5864 -0.2848
  122MOL   C16331865   4.432   7.421   1.068  0.1185 -0.2858  0.5012
  122MOL   H16431866   4.319   7.368   1.245  2.6871 -1.3547 -0.0537
  122MOL   H16531867   4.520   7.580   1.283  1.1750 -0.4244  2.6210
  122MOL   H16631868   4.580   7.505   1.617 -2.2267 -0.2898 -0.2937
  122MOL   H16731869   4.668   7.522   1.465  0.2353 -0.4086 -0.6936
  122MOL   H16831870   4.537   7.642   1.515 -0.5872  0.1707  1.6552
  122MOL   H16931871   4.358   7.420   0.988 -0.4029  0.8699  0.9555
  122MOL   H17031872   4.499   7.504   1.045  0.9270 -1.3458 -1.0894
  122MOL   C17131873   4.523   7.295   1.070 -0.0978 -0.7281  0.3116
  122MOL   N17231874   4.597   7.284   0.939 -0.3434 -0.2140  0.1061
  122MOL   C17331875   4.713   7.356   0.914  0.1565  0.5193 -0.2579
  122MOL   O17431876   4.754   7.441   0.992  0.1933 -0.4494  0.2079
  122MOL   C17531877   4.793   7.327   0.792  0.6197 -0.5182  0.5430
  122MOL   C17631878   4.448   7.168   1.094  0.7101  0.6720 -0.3387
  122MOL   H17731879   4.599   7.315   1.145  1.3997 -4.0855 -0.2047
  122MOL   H17831880   4.557   7.229   0.864  0.0429 -0.6808  0.2412
  122MOL   H17931881   4.875   7.397   0.774 -0.9936  1.1931 -0.4074
  122MOL   H18031882   4.828   7.224   0.799  3.5173  0.3406 -0.3837
  122MOL   H18131883   4.736   7.338   0.700  0.6441 -2.1523  0.3192
  122MOL   H18231884   4.355   7.191   1.146  0.1566 -1.2804 -0.4146
  122MOL   H18331885   4.406   7.141   0.998 -0.9731  1.5331  0.1321
  122MOL   C18431886   4.530   7.058   1.167 -0.3019 -0.3840  0.0194
  122MOL   N18531887   4.536   6.940   1.079 -0.4124  0.5835 -0.1362
  122MOL   C18631888   4.642   6.872   1.044  0.3691  0.1079  0.0793
  122MOL   O18731889   4.757   6.911   1.061 -0.5695 -0.7922 -0.2674
  122MOL   C18831890   4.616   6.728   1.001  0.3683 -0.8805 -0.3893
  122MOL   C18931891   4.464   7.027   1.304  0.6358  0.5876  1.3771
  122MOL   H19031892   4.631   7.090   1.193  0.3685 -0.5680 -2.3259
  122MOL   H19131893   4.448   6.902   1.049 -0.3928  0.0393  0.4813
  122MOL   H19231894   4.573   6.670   1.084 -1.0809 -1.0913 -1.2722
  122MOL   H19331895   4.547   6.731   0.917  1.1292  1.8982 -0.9398
  122MOL   H19431896   4.709   6.675   0.981  1.1624  0.9904 -1.7356
  122MOL   H19531897   4.424   7.118   1.349  0.7054  0.3062  2.0237
  122MOL   H19631898   4.368   6.978   1.287  0.1200  2.4158 -1.2663
  122MOL   C19731899   4.553   6.947   1.403 -0.3663 -0.3336  0.1593
  122MOL   N19831900   4.462   6.864   1.485  0.2472 -0.5677  0.3204
  122MOL   C19931901   4.465   6.729   1.498  0.3050 -0.0767  0.0446
  122MOL   O20031902   4.523   6.660   1.414  0.1961 -0.2221  0.2886
  122MOL   C20131903   4.401   6.663   1.619  0.0152 -0.2658 -0.0219
  122MOL   C20231904   4.647   7.035   1.494  0.8186  0.1449  0.5609
  122MOL   H20331905   4.622   6.882   1.349 -0.8360 -0.7217  0.0287
  122MOL   H20431906   4.390   6.914   1.534 -0.7329  0.0188 -1.6739
  122MOL   H20531907   4.395   6.555   1.601  0.4872 -0.1122 -1.1564
  122MOL   H20631908   4.473   6.666   1.700  0.1286 -1.8680 -0.0381
  122MOL   H20731909   4.311   6.714   1.654  2.2007  1.8263  2.7354
  122MOL   H20831910   4.703   7.109   1.437 -1.4106  1.5255  0.1042
  122MOL   H20931911   4.585   7.104   1.551  1.9649  1.0457  0.7300
  122MOL   C21031912   4.746   6.953   1.582 -0.0171  0.7888  0.3973
  122MOL   N21131913   4.803   7.038   1.690 -0.2298 -0.1893  0.2624
  122MOL   C21231914   4.895   7.138   1.670 -0.0639  0.1206 -0.0003
  122MOL   O21331915   4.923   7.184   1.563 -0.0513  0.0337  0.2768
  122MOL   C21431916   4.956   7.192   1.798  0.6763  0.2000  0.3455
  122MOL   C21531917   4.851   6.871   1.505  0.9480  0.3344 -0.7512
  122MOL   H21631918   4.674   6.889   1.633  0.6139 -0.7017 -0.5558
  122MOL   H21731919   4.795   7.006   1.785  1.3882 -0.3539  0.3552
  122MOL   H21831920   5.058   7.225   1.781  0.3986  0.0994 -1.6651
  122MOL   H21931921   4.894   7.269   1.844 -0.1397  0.0136 -0.4263
  122MOL   H22031922   4.964   7.107   1.866 -1.3425 -0.9186 -0.7586
  122MOL   H22131923   4.792   6.801   1.446  0.4712 -1.0483  1.3255
  122MOL   H22231924   4.899   6.943   1.439  1.0308  2.0171  1.1169
  122MOL   C22331925   4.951   6.781   1.588 -0.1229  0.2695 -0.0391
  122MOL   N22431926   4.904   6.727   1.712  0.3584 -0.5562 -0.0279
  122MOL   C22531927   4.872   6.599   1.729  0.3579  0.0268  0.3979
  122MOL   O22631928   4.869   6.518   1.635 -0.9025 -0.5684 -0.3668
  122MOL   C22731929   4.835   6.553   1.870  0.3607 -0.7592  0.3736
  122MOL   C22831930   5.079   6.860   1.614 -0.3496 -0.6536 -0.0205
  122MOL   H22931931   4.980   6.695   1.527  1.1894  0.6864 -0.0200
  122MOL   H23031932   4.904   6.793   1.788 -0.8150  0.4047 -0.8541
  122MOL   H23131933   4.926   6.536   1.927 -0.7991 -1.6540  1.9901
  122MOL   H23231934   4.768   6.628   1.911 -0.4678 -1.3813  0.1740
  122MOL   H23331935   4.775   6.462   1.866 -1.0050  0.0889  1.1438
  122MOL   H23431936   5.130   6.890   1.522 -0.9411  1.0645  0.1921
  122MOL   H23531937   5.060   6.953   1.668  0.4394  0.4326 -1.5427
  122MOL   C23631938   5.197   6.787   1.691 -0.2550  0.1238  0.7275
  122MOL   N23731939   5.295   6.877   1.748 -0.3033  0.1888 -0.7648
  122MOL   C23831940   5.271   6.945   1.865  0.8184 -0.0439 -0.1608
  122MOL   O23931941   5.168   6.939   1.931 -0.0782  0.4684 -0.1754
  122MOL   C24031942   5.385   7.045   1.891  0.4769 -0.0212 -0.3850
  122MOL   C24131943   5.270   6.687   1.593 -0.2492  0.1276  0.1759
  122MOL   H24231944   5.166   6.732   1.780 -0.7606 -1.6827 -0.5341
  122MOL   H24331945   5.381   6.896   1.699  0.6365  0.2615  0.8851
  122MOL   H24431946   5.357   7.137   1.944 -0.7031  0.4277 -1.7371
  122MOL   H24531947   5.458   6.994   1.953  2.0684  2.6598  0.0433
  122MOL   H24631948   5.437   7.066   1.798 -0.7241 -1.1463 -1.3338
  122MOL   H24731949   5.199   6.611   1.559  1.5154 -0.4274 -2.3939
  122MOL   H24831950   5.303   6.746   1.508 -2.0942  0.2834 -0.4521
  122MOL   C24931951   5.391   6.596   1.630  0.3914 -1.1787 -0.7629
  122MOL   N25031952   5.418   6.491   1.533  0.2804 -0.3377 -0.3247
  122MOL   C25131953   5.530   6.415   1.520 -0.6168 -0.4950  0.8549
  122MOL   O25231954   5.626   6.420   1.594 -0.1158 -0.3931 -0.2346
  122MOL   C25331955   5.526   6.313   1.406  0.4244  0.2197  0.3530
  122MOL   C25431956   5.375   6.536   1.771 -0.7251  0.5849 -0.0727
  122MOL   H25531957   5.481   6.656   1.627 -1.0496  0.9537 -2.8552
  122MOL   H25631958   5.344   6.481   1.466  0.6656 -2.8788 -0.4080
  122MOL   H25731959   5.627   6.273   1.394 -0.1699 -1.4274  0.7267
  122MOL   H25831960   5.465   6.232   1.444 -0.6949  1.3786  1.0830
  122MOL   H25931961   5.491   6.355   1.311  0.7044 -0.5065 -0.0724
  122MOL   H26031962   5.362   6.618   1.842  2.9090  0.0994  1.2468
  122MOL   H26131963   5.289   6.471   1.785  1.0849 -2.5995 -3.1271
  122MOL   H26231964   5.455   6.467   1.796 -1.1013 -1.1571 -3.3709
  123MOL     C131965   0.994   6.755   6.647  0.1557 -0.0234 -0.2000
  123MOL     N231966   0.920   6.727   6.769 -0.0943 -0.5605  0.0128
  123MOL     C331967   0.859   6.614   6.795  0.4182  0.0260  0.2349
  123MOL     O431968   0.850   6.519   6.715 -0.4156 -0.0025 -0.1311
  123MOL     C531969   0.806   6.606   6.936 -0.3399  0.5490  0.2714
  123MOL     C631970   0.975   6.903   6.608 -0.3847  0.4895  0.2894
  123MOL     H731971   1.098   6.732   6.671  1.3353  0.8103 -4.1898
  123MOL     H831972   0.907   6.808   6.828 -0.8796 -0.4435 -0.3156
  123MOL     H931973   0.871   6.543   6.997  0.9119 -1.1750 -2.7143
  123MOL    H1031974   0.802   6.700   6.991 -0.9881 -1.4157  3.7214
  123MOL    H1131975   0.704   6.567   6.939  0.0422 -0.5049 -0.1787
  123MOL    H1231976   0.866   6.908   6.602 -0.3475  1.5709  0.4982
  123MOL    H1331977   1.014   6.954   6.696 -0.8452 -0.6886  1.1923
  123MOL    H1431978   0.961   6.690   6.567 -1.3762  1.3786 -0.7404
  123MOL    C1531979   1.033   6.954   6.470  0.0432  0.7210  0.0168
  123MOL    N1631980   1.171   6.911   6.452  0.1740  0.0247  0.1477
  123MOL    C1731981   1.233   6.879   6.335  0.0366 -0.0669 -0.1922
  123MOL    O1831982   1.180   6.905   6.224 -0.1865 -0.6509  0.5381
  123MOL    C1931983   1.375   6.829   6.348  0.2208 -0.9575  0.6344
  123MOL    C2031984   1.008   7.105   6.444  0.8024 -0.2334 -0.3617
  123MOL    H2131985   0.978   6.892   6.399 -1.1046  1.6465  0.0881
  123MOL    H2231986   1.226   6.901   6.536  1.9875 -0.8572 -1.1004
  123MOL    H2331987   1.363   6.722   6.362  0.7409 -0.9209  1.4053
  123MOL    H2431988   1.434   6.838   6.257 -1.2929 -1.0694 -0.3795
  123MOL    H2531989   1.410   6.876   6.440 -0.3057 -0.4618  0.5849
  123MOL    H2631990   1.062   7.165   6.517 -0.5944 -1.7769  2.0070
  123MOL    H2731991   1.045   7.125   6.343  3.3574  1.2566  0.8300
  123MOL    C2831992   0.860   7.159   6.454  0.2594 -0.2865  0.0198
  123MOL    N2931993   0.826   7.204   6.317  0.1075  0.4612  0.4146
  123MOL    C3031994   0.708   7.220   6.257  0.2902 -0.4375 -0.2946
  123MOL    O3131995   0.695   7.273   6.150 -0.4360 -0.4069  0.1941
  123MOL    C3231996   0.590   7.162   6.332  0.0215  0.7680 -0.3525
  123MOL    C3331997   0.827   7.261   6.566 -0.1237  0.0660 -0.1769
  123MOL    H3431998   0.795   7.072   6.462  2.1160 -1.8110 -1.1173
  123MOL    H3531999   0.901   7.241   6.260 -0.5112  0.4180 -0.4478
  123MOL    H3632000   0.607   7.056   6.354 -1.8691  0.4240 -0.4031
  123MOL    H3732001   0.574   7.210   6.429 -0.7819 -0.3602  0.0977
  123MOL    H3832002   0.498   7.169   6.274  0.4899  0.0744 -1.1808
  123MOL    H3932003   0.907   7.334   6.555 -0.4618  0.2717 -1.3190
  123MOL    H4032004   0.738   7.316   6.539  0.7988  0.7234 -1.9509
  123MOL    C4132005   0.815   7.206   6.708 -0.3696 -0.2760 -0.2105
  123MOL    N4232006   0.687   7.140   6.718  0.6576  0.3412 -0.5555
  123MOL    C4332007   0.665   7.026   6.782 -0.2939  0.3269  0.2767
  123MOL    O4432008   0.750   6.950   6.826 -0.4581  0.0793 -0.3526
  123MOL    C4532009   0.520   6.989   6.819  0.6556  0.1521  0.3291
  123MOL    C4632010   0.841   7.310   6.822 -0.0024 -0.4488  0.0675
  123MOL    H4732011   0.893   7.130   6.714 -0.8678 -0.6808  1.2571
  123MOL    H4832012   0.613   7.184   6.666  1.6619  0.9636 -1.4605
  123MOL    H4932013   0.488   6.915   6.745  2.4304 -0.0864 -0.2306
  123MOL    H5032014   0.517   6.940   6.916  0.2390 -0.4946 -0.0066
  123MOL    H5132015   0.464   7.082   6.819  0.2735 -0.0641 -1.2724
  123MOL    H5232016   0.891   7.397   6.779 -0.0948 -0.6379 -0.4256
  123MOL    H5332017   0.739   7.348   6.833 -0.1052 -1.0210  1.1451
  123MOL    C5432018   0.881   7.269   6.968  0.3670  0.0771 -0.9084
  123MOL    N5532019   0.943   7.136   6.976 -0.0330 -0.4017 -0.0734
  123MOL    C5632020   0.996   7.069   7.080  0.1826 -0.0845 -0.6280
  123MOL    O5732021   1.007   7.111   7.191  0.7200 -0.4035 -0.0391
  123MOL    C5832022   1.045   6.931   7.045  0.0630  0.5753  0.0515
  123MOL    C5932023   0.776   7.291   7.079 -0.6384 -0.1748  0.1731
  123MOL    H6032024   0.969   7.332   6.979  0.3323  0.0394 -0.4065
  123MOL    H6132025   0.961   7.094   6.885  2.4443 -0.2887  0.3152
  123MOL    H6232026   1.000   6.910   6.948 -0.2828  0.6195  0.2040
  123MOL    H6332027   1.152   6.923   7.025 -0.1793  0.4522 -1.2353
  123MOL    H6432028   1.013   6.847   7.107  0.8262  0.6229  0.5160
  123MOL    H6532029   0.696   7.218   7.060 -2.4001  1.6301  0.4566
  123MOL    H6632030   0.820   7.263   7.174  0.5719 -1.9158 -0.8818
  123MOL    C6732031   0.710   7.431   7.092  0.7576  0.3252  0.2783
  123MOL    N6832032   0.817   7.530   7.108  0.7279 -0.7049  0.3201
  123MOL    C6932033   0.862   7.617   7.017  0.1854 -0.2599 -0.2182
  123MOL    O7032034   0.820   7.617   6.898 -0.3435  0.2801  0.0558
  123MOL    C7132035   0.956   7.731   7.064 -0.4744 -0.2279 -0.2701
  123MOL    C7232036   0.602   7.448   7.206 -0.5681 -0.2729  0.1491
  123MOL    H7332037   0.654   7.450   7.000 -0.7071  3.0267  1.6864
  123MOL    H7432038   0.847   7.546   7.203 -0.5320  1.4949  0.3784
  123MOL    H7532039   0.896   7.801   7.122 -0.8586 -0.8007  0.0186
  123MOL    H7632040   1.037   7.678   7.113 -0.7112 -1.3135 -1.0302
  123MOL    H7732041   1.008   7.788   6.986  3.0837  0.0258  2.1937
  123MOL    H7832042   0.643   7.432   7.305  1.8246 -0.6644 -0.8647
  123MOL    H7932043   0.576   7.554   7.205 -0.5840 -0.2772  0.0608
  123MOL    C8032044   0.475   7.364   7.193  0.6427 -0.3564  0.7522
  123MOL    N8132045   0.356   7.441   7.229  0.2119  0.0265 -0.4369
  123MOL    C8232046   0.237   7.444   7.171 -0.0493  0.1498 -0.1486
  123MOL    O8332047   0.197   7.368   7.088 -0.4807  0.9218 -0.7558
  123MOL    C8432048   0.155   7.576   7.202 -0.1458  0.1835  1.0913
  123MOL    C8532049   0.498   7.229   7.280 -0.3216 -0.3610  0.2068
  123MOL    H8632050   0.467   7.339   7.087  1.9755  3.2984 -0.2659
  123MOL    H8732051   0.373   7.516   7.294 -2.3051 -0.1960  0.5490
  123MOL    H8832052   0.051   7.545   7.193  0.2627 -0.6809 -0.7671
  123MOL    H8932053   0.173   7.628   7.296 -1.5196  0.8625  0.9993
  123MOL    H9032054   0.160   7.639   7.113 -0.6784 -3.0624 -1.3253
  123MOL    H9132055   0.603   7.202   7.266 -0.0631  0.7343 -0.0005
  123MOL    H9232056   0.515   7.263   7.382  2.4336  0.6076 -0.5476
  123MOL    C9332057   0.387   7.131   7.269  0.2388 -0.1042  0.1103
  123MOL    N9432058   0.376   7.038   7.382 -0.0742  0.0081 -0.6158
  123MOL    C9532059   0.282   7.032   7.480  0.7873  0.2488  0.0981
  123MOL    O9632060   0.197   7.124   7.495 -0.0098 -0.1691 -0.3526
  123MOL    C9732061   0.273   6.902   7.560 -0.3949  0.3836 -0.4073
  123MOL    C9832062   0.395   7.045   7.140 -0.3675 -0.0023 -0.0113
  123MOL    H9932063   0.294   7.188   7.274 -1.0190 -2.1298  0.5227
  123MOL   H10032064   0.446   6.966   7.375  0.0271 -0.1313  1.4562
  123MOL   H10132065   0.201   6.830   7.522 -0.3225  0.9146 -1.5602
  123MOL   H10232066   0.375   6.869   7.576 -1.0237 -0.7529  1.4789
  123MOL   H10332067   0.248   6.934   7.661  0.4080  1.3614 -0.5062
  123MOL   H10432068   0.401   7.116   7.057  2.7294  0.3400  0.4382
  123MOL   H10532069   0.489   6.992   7.129 -1.5408 -1.9822 -0.8350
  123MOL   C10632070   0.268   6.960   7.103  0.1873  0.8032 -0.2726
  123MOL   N10732071   0.145   7.037   7.126 -0.4818  0.3822  0.3274
  123MOL   C10832072   0.031   7.015   7.053 -0.5986 -0.2875  0.0055
  123MOL   O10932073   0.027   6.925   6.970  0.0539  0.4552 -0.4204
  123MOL   C11032074   7.745   7.096   7.091 -0.8369  0.1127  0.3408
  123MOL   C11132075   0.266   6.817   7.159 -0.1444  0.0335  0.2184
  123MOL   H11232076   0.273   6.945   6.995 -1.1190 -0.9793 -0.1106
  123MOL   H11332077   0.145   7.113   7.193 -0.0126  0.1026  0.6442
  123MOL   H11432078   7.791   7.182   7.138 -0.2113 -0.2173  0.3395
  123MOL   H11532079   7.687   7.128   7.005  0.4956  1.4705 -0.0731
  123MOL   H11632080   7.681   7.044   7.163 -0.2116 -1.3307 -0.1210
  123MOL   H11732081   0.302   6.815   7.262 -1.1396 -1.5515  0.5658
  123MOL   H11832082   0.167   6.775   7.174 -0.5553  0.9855  0.1695
  123MOL   C11932083   0.354   6.713   7.076  0.4066  0.9016  0.1967
  123MOL   N12032084   0.278   6.688   6.951  1.1747  0.3314 -0.5620
  123MOL   C12132085   0.312   6.652   6.827 -0.2758  0.2713  0.3107
  123MOL   O12232086   0.246   6.666   6.723 -0.1786 -0.3154  0.6753
  123MOL   C12332087   0.458   6.601   6.815  0.0019 -0.5287  0.3780
  123MOL   C12432088   0.381   6.583   7.144 -0.1084  0.7177 -0.3800
  123MOL   H12532089   0.452   6.755   7.053  1.4674  0.2884  3.4784
  123MOL   H12632090   0.187   6.732   6.956  0.1036 -1.9565  1.3862
  123MOL   H12732091   0.477   6.508   6.868  0.7019 -1.1643 -0.9642
  123MOL   H12832092   0.477   6.583   6.709  2.3123  0.7950  0.5502
  123MOL   H12932093   0.521   6.686   6.841 -1.0908  0.4129 -0.0052
  123MOL   H13032094   0.286   6.534   7.164 -0.1598  1.4169  1.1243
  123MOL   H13132095   0.431   6.517   7.073 -3.1606 -1.1214 -0.9047
  123MOL   C13232096   0.451   6.580   7.279 -0.3174 -0.5712 -0.1035
  123MOL   N13332097   0.589   6.628   7.262  0.4969  0.1458 -0.0764
  123MOL   C13432098   0.635   6.744   7.300 -0.4057 -0.1908 -0.1574
  123MOL   O13532099   0.567   6.820   7.366 -0.4740 -0.4362 -0.2443
  123MOL   C13632100   0.778   6.795   7.277  0.9249  0.1341  0.5447
  123MOL   C13732101   0.442   6.444   7.360 -0.0194 -0.3311 -0.1803
  123MOL   H13832102   0.399   6.659   7.333 -0.4237  0.8974 -2.3124
  123MOL   H13932103   0.643   6.557   7.215  0.8193 -0.5309  1.2874
  123MOL   H14032104   0.831   6.726   7.211  2.1122 -0.0341  1.6650
  123MOL   H14132105   0.771   6.897   7.238  2.1283 -0.2608 -0.7422
  123MOL   H14232106   0.845   6.801   7.362 -0.7389 -0.0536  1.9090
  123MOL   H14332107   0.450   6.461   7.468 -2.6252 -0.3694  0.0503
  123MOL   H14432108   0.341   6.405   7.346  0.0723 -0.4047 -0.6315
  123MOL   C14532109   0.545   6.335   7.330 -0.8642 -0.0379  0.6812
  123MOL   N14632110   0.549   6.319   7.183  0.0382  0.1308  0.6168
  123MOL   C14732111   0.662   6.296   7.114 -1.0038  0.2908 -0.0581
  123MOL   O14832112   0.777   6.307   7.149  0.1467  0.5507 -0.3443
  123MOL   C14932113   0.633   6.249   6.973  0.2602 -0.7040 -0.0381
  123MOL   C15032114   0.517   6.210   7.401  0.6110  0.2490  0.3316
  123MOL   H15132115   0.641   6.377   7.362 -1.3501  2.2283 -0.7490
  123MOL   H15232116   0.460   6.322   7.135  0.2766 -0.4604  0.1332
  123MOL   H15332117   0.623   6.332   6.903  2.6362 -0.0904  0.3162
  123MOL   H15432118   0.711   6.183   6.934 -0.2673 -0.3155 -1.8172
  123MOL   H15532119   0.534   6.206   6.957 -2.5845  4.4465  2.2357
  123MOL   H15632120   0.416   6.179   7.372  0.2552  1.1125  0.6304
  123MOL   H15732121   0.580   6.134   7.355 -0.9518  0.0103 -1.4870
  123MOL   C15832122   0.538   6.195   7.554 -1.0164  0.2320  0.7460
  123MOL   N15932123   0.680   6.170   7.577 -0.7941 -0.1969  0.5837
  123MOL   C16032124   0.748   6.240   7.668  0.1963 -0.0926  0.8324
  123MOL   O16132125   0.696   6.311   7.753  0.0746 -0.3202  0.4298
  123MOL   C16232126   0.902   6.228   7.670  0.1881 -0.7318  0.0708
  123MOL   C16332127   0.444   6.081   7.606  0.2659  0.0990  0.6290
  123MOL   H16432128   0.508   6.293   7.590 -2.7726 -0.3805  1.0127
  123MOL   H16532129   0.725   6.110   7.511 -0.1402  0.5021  0.3912
  123MOL   H16632130   0.958   6.320   7.689 -0.9040 -0.3529  1.5235
  123MOL   H16732131   0.926   6.157   7.749  0.2057  0.2503  0.9550
  123MOL   H16832132   0.932   6.192   7.572  1.9254 -0.9107  0.6425
  123MOL   H16932133   0.342   6.106   7.577 -0.0520  0.0587  1.6907
  123MOL   H17032134   0.477   5.996   7.546  1.0672 -1.4611  3.1837
  123MOL   C17132135   0.436   6.040   7.759 -0.4181 -0.8605 -0.4482
  123MOL   N17232136   0.328   5.951   7.781 -0.4543  0.1523  0.4709
  123MOL   C17332137   0.321   5.822   7.770 -0.6027 -0.3794  0.1950
  123MOL   O17432138   0.215   5.766   7.785 -0.3276  0.2562 -0.0904
  123MOL   C17532139   0.446   5.745   7.727 -0.7853  0.9719  0.2421
  123MOL   C17632140   0.413   6.166   0.015 -0.0986  0.3013 -0.2635
  123MOL   H17732141   0.528   5.994   7.793  0.1139  1.1802  0.9386
  123MOL   H17832142   0.247   5.995   7.823 -1.2535 -0.9165  0.0698
  123MOL   H17932143   0.491   5.713   7.821 -0.7194 -2.0071 -0.7335
  123MOL   H18032144   0.419   5.666   7.656  2.9586  0.6280 -0.8913
  123MOL   H18132145   0.521   5.806   7.677  1.6742 -2.0735  0.0195
  123MOL   H18232146   0.460   6.151   0.112  1.4013  1.0937 -0.8571
  123MOL   H18332147   0.470   6.248   7.812  0.7371 -0.3320 -0.3717
  123MOL   C18432148   0.271   6.213   0.046  0.2999  0.0753  0.4086
  123MOL   N18532149   0.259   6.354   0.073  0.1317 -0.5973  0.0666
  123MOL   C18632150   0.257   6.442   7.806  0.3644  0.4496 -0.1115
  123MOL   O18732151   0.245   6.409   7.687  0.2211  0.1571  0.2613
  123MOL   C18832152   0.262   6.593   0.002 -0.1334  0.0418 -0.0691
  123MOL   C18932153   0.203   6.137   0.161 -0.2397  0.1334  0.1459
  123MOL   H19032154   0.219   6.184   7.794  0.6871 -2.4554  0.9410
  123MOL   H19132155   0.267   6.396   0.165  0.2021 -0.2083 -0.1152
  123MOL   H19232156   0.263   6.647   7.747 -3.0207  0.2033 -0.0500
  123MOL   H19332157   0.166   6.599   0.053 -0.6659  1.4944 -1.1953
  123MOL   H19432158   0.350   6.628   0.056  0.8473  0.4233 -1.8522
  123MOL   H19532159   0.257   6.043   0.168  0.5038  0.6412  1.4789
  123MOL   H19632160   0.222   6.183   0.258  0.5381  0.3941 -0.1284
  123MOL   C19732161   0.054   6.114   0.143 -0.4857 -0.5351  0.3990
  123MOL   N19832162   7.829   6.227   0.212  0.6539  0.0285 -0.2920
  123MOL   C19932163   7.742   6.317   0.167 -0.3158  0.1573 -1.0450
  123MOL   O20032164   7.701   6.309   0.052 -0.9062 -0.2386 -0.9494
  123MOL   C20132165   7.685   6.423   0.264 -0.1197  0.8155  0.2930
  123MOL   C20232166   0.022   5.978   0.194 -0.9105  0.6230 -0.3705
  123MOL   H20332167   0.032   6.134   0.038  0.9813 -1.1514 -0.0455
  123MOL   H20432168   0.017   6.239   0.309  0.4946 -2.8851  0.1494
  123MOL   H20532169   7.577   6.436   0.263 -0.8362 -4.2629 -0.5954
  123MOL   H20632170   7.715   6.395   0.365 -4.0899 -1.2966  0.9892
  123MOL   H20732171   7.719   6.524   0.240  0.3541  0.9787  1.6164
  123MOL   H20832172   0.093   5.905   0.157  0.5326  1.5474  0.5409
  123MOL   H20932173   0.043   5.987   0.300  2.2461 -2.1178 -0.7048
  123MOL   C21032174   7.714   5.936   0.188 -0.5208  0.8543  0.2554
  123MOL   N21132175   7.613   6.016   0.261 -0.2945 -0.1906  0.4417
  123MOL   C21232176   7.571   5.998   0.382 -0.2104 -1.0775 -0.7146
  123MOL   O21332177   7.619   5.919   0.468  0.1042  0.4685  0.0261
  123MOL   C21432178   7.472   6.096   0.433  0.4667 -0.4102 -0.6240
  123MOL   C21532179   7.690   5.786   0.206  0.1100  0.1094 -0.1989
  123MOL   H21632180   7.700   5.958   0.082 -0.8869 -0.4899  0.0169
  123MOL   H21732181   7.572   6.084   0.200 -1.2403 -1.6343 -0.5708
  123MOL   H21832182   7.442   6.166   0.355  0.6258  0.4204  0.0597
  123MOL   H21932183   7.388   6.045   0.481 -1.3878  1.1792 -2.0544
  123MOL   H22032184   7.518   6.151   0.514 -0.3626 -0.3736 -0.1695
  123MOL   H22132185   7.723   5.755   0.305 -1.8510  0.4060  0.5579
  123MOL   H22232186   7.581   5.788   0.211  0.0812 -0.6741 -0.5821
  123MOL   C22332187   7.715   5.692   0.092 -0.1355  0.1961  0.1291
  123MOL   N22432188   0.009   5.639   0.092 -0.3222  0.3273  0.7312
  123MOL   C22532189   0.054   5.525   0.144  0.1542  0.5389 -0.2490
  123MOL   O22632190   7.814   5.438   0.183 -0.6051  0.3840 -0.0830
  123MOL   C22732191   0.193   5.485   0.116  0.1882 -0.5312  0.4373
  123MOL   C22832192   7.670   5.730   7.788  0.8178 -0.1885  0.0158
  123MOL   H22932193   7.657   5.606   0.124 -2.7208  2.9833  3.3010
  123MOL   H23032194   0.089   5.684   0.049  2.0972 -1.6788  2.9899
  123MOL   H23132195   0.234   5.443   0.208  0.3207  0.4343  0.8174
  123MOL   H23232196   0.205   5.407   0.041 -0.3280 -0.7624  0.5975
  123MOL   H23332197   0.265   5.560   0.083  0.2386 -0.0484  1.6075
  123MOL   H23432198   7.566   5.761   7.797  1.0245  1.0285 -1.5829
  123MOL   H23532199   7.725   5.820   7.760 -1.3561  0.7445 -1.3411
  123MOL   C23632200   7.671   5.606   7.684  0.0464 -0.8496 -0.3249
  123MOL   N23732201   7.804   5.593   7.638  0.1374  0.1317  0.0585
  123MOL   C23832202   0.015   5.476   7.601 -0.9671 -0.1167  0.0951
  123MOL   O23932203   7.793   5.366   7.613  0.4236 -0.6203  0.0826
  123MOL   C24032204   0.155   5.476   7.540 -0.4436 -0.1793  0.0803
  123MOL   C24132205   7.579   5.624   7.567  0.1546 -0.0658 -0.6696
  123MOL   H24232206   7.639   5.524   7.749  1.0807 -0.7269  0.3443
  123MOL   H24332207   0.032   5.663   7.665 -1.2091  1.1287  0.9046
  123MOL   H24432208   0.148   5.462   7.432  1.1623  1.7480 -0.3006
  123MOL   H24532209   0.198   5.576   7.552 -0.8661 -0.1208  1.1930
  123MOL   H24632210   0.220   5.398   7.580 -0.1601 -1.5992 -2.9781
  123MOL   H24732211   7.599   5.717   7.515  4.2139  0.5312  1.7439
  123MOL   H24832212   7.611   5.547   7.497  0.4468 -0.1676 -0.4247
  123MOL   C24932213   7.425   5.610   7.590  0.3685 -0.4885 -0.3862
  123MOL   N25032214   7.379   5.504   7.679 -0.2125  0.1947  0.3935
  123MOL   C25132215   7.341   5.521   7.804  0.5789  0.3671 -0.7609
  123MOL   O25232216   7.363   5.631   0.015 -0.0666  0.1550 -0.5608
  123MOL   C25332217   7.305   5.403   0.051  0.3864  0.1796 -0.2807
  123MOL   C25432218   7.344   5.607   7.457 -0.1230 -0.2798  0.1638
  123MOL   H25532219   7.398   5.703   7.641  0.7541 -2.1652  2.9411
  123MOL   H25632220   7.380   5.409   7.643 -0.5889  0.0795  0.6803
  123MOL   H25732221   7.383   5.379   0.123  1.2835 -1.1492 -1.6418
  123MOL   H25832222   7.216   5.427   0.109  0.1412  1.2931 -1.1013
  123MOL   H25932223   7.289   5.307   0.002  2.0858 -0.4134  0.3020
  123MOL   H26032224   7.238   5.617   7.479 -0.2939 -0.2400 -0.6684
  123MOL   H26132225   7.356   5.690   7.387  0.4253 -0.0741  0.4920
  123MOL   H26232226   7.348   5.516   7.397  1.9066 -0.4137  0.4600
  124MOL     C132227   7.107   3.973   5.837 -0.5109 -0.0134  0.7187
  124MOL     N232228   7.193   4.082   5.893  0.2099 -0.6701  0.1106
  124MOL     C332229   7.195   4.210   5.848 -0.3573  0.0251 -0.8970
  124MOL     O432230   7.117   4.251   5.761  0.4291 -0.2789  0.5258
  124MOL     C532231   7.285   4.313   5.914 -0.1714 -0.5672 -0.1288
  124MOL     C632232   7.090   3.843   5.930  0.3013 -0.7446  0.2307
  124MOL     H732233   7.015   4.019   5.803  0.5085 -0.0681 -2.3068
  124MOL     H832234   7.273   4.053   5.947 -0.8973 -2.4375  0.8601
  124MOL     H932235   7.379   4.280   5.959 -0.4200 -1.1524 -0.0288
  124MOL    H1032236   7.306   4.391   5.841 -1.1775  0.1025  0.2855
  124MOL    H1132237   7.232   4.354   6.000  2.4104 -0.0172  1.2575
  124MOL    H1232238   7.185   3.814   5.974  0.2262  0.1655  1.0125
  124MOL    H1332239   7.023   3.852   6.016  1.2127 -3.0442  1.2382
  124MOL    H1432240   7.156   3.944   5.744 -0.2035  1.2480  0.4846
  124MOL    C1532241   7.043   3.721   5.846  0.5044  0.2448 -0.0680
  124MOL    N1632242   6.927   3.764   5.773 -0.4816  0.0038 -0.6740
  124MOL    C1732243   6.918   3.754   5.641  0.1578  0.1373  0.3647
  124MOL    O1832244   6.990   3.682   5.573 -0.3775 -0.4875  0.7407
  124MOL    C1932245   6.821   3.844   5.561 -0.2775 -0.4865 -0.3472
  124MOL    C2032246   7.010   3.595   5.934  0.3524 -0.2130  0.5132
  124MOL    H2132247   7.118   3.684   5.777 -1.0743  2.0353 -2.8408
  124MOL    H2232248   6.869   3.829   5.824  1.5879  2.5751 -1.5027
  124MOL    H2332249   6.859   3.865   5.461 -1.3296  0.1300 -0.6281
  124MOL    H2432250   6.728   3.789   5.542  0.6358 -1.9624 -0.6478
  124MOL    H2532251   6.798   3.935   5.617  0.9803 -0.6662  0.4733
  124MOL    H2632252   7.089   3.577   6.007 -1.4146 -0.3459  2.4353
  124MOL    H2732253   6.933   3.628   6.003 -1.8146 -1.1294 -1.4098
  124MOL    C2832254   6.976   3.455   5.882 -0.2845 -0.6386 -0.2417
  124MOL    N2932255   7.034   3.442   5.745  0.4609  0.1296 -0.0831
  124MOL    C3032256   7.098   3.343   5.688 -0.1707  0.4955 -0.7180
  124MOL    O3132257   7.138   3.240   5.750  0.1171 -0.0261 -0.2524
  124MOL    C3232258   7.129   3.363   5.539  0.2550  0.8454  0.0217
  124MOL    C3332259   6.822   3.439   5.872  0.8214  0.0366 -0.1287
  124MOL    H3432260   7.023   3.372   5.934  2.0883 -0.3221 -1.7936
  124MOL    H3532261   7.018   3.527   5.693 -1.7412  0.4868  1.1134
  124MOL    H3632262   7.175   3.460   5.520  0.2366  1.1418  1.4233
  124MOL    H3732263   7.190   3.283   5.499  0.2126  0.7657  0.1150
  124MOL    H3832264   7.033   3.339   5.493 -0.8001  1.9635  1.5712
  124MOL    H3932265   6.788   3.523   5.810  2.0897 -0.5481 -1.6460
  124MOL    H4032266   6.800   3.349   5.815  0.1692  2.0426 -3.1749
  124MOL    C4132267   6.733   3.443   5.994  0.0648 -0.3757  0.6873
  124MOL    N4232268   6.769   3.341   6.093  0.0620  0.5307 -0.2728
  124MOL    C4332269   6.766   3.360   6.226 -0.1891 -0.2730  0.0833
  124MOL    O4432270   6.708   3.446   6.295  0.1430  0.0301  0.3605
  124MOL    C4532271   6.823   3.246   6.299 -0.4636 -0.5623 -1.0310
  124MOL    C4632272   6.576   3.439   5.975  0.3366  0.6080 -0.2176
  124MOL    H4732273   6.749   3.537   6.047 -4.2554  0.6099  0.4810
  124MOL    H4832274   6.822   3.259   6.065 -0.5604 -0.4134  1.2252
  124MOL    H4932275   6.771   3.151   6.287 -0.2067 -0.8634  0.1390
  124MOL    H5032276   6.923   3.219   6.265  0.4862 -0.4607  1.5200
  124MOL    H5132277   6.833   3.264   6.406  1.0446 -1.3329 -1.0362
  124MOL    H5232278   6.547   3.334   5.964  0.3752  0.6772 -0.9874
  124MOL    H5332279   6.536   3.469   6.072 -0.0521  0.0588 -0.2029
  124MOL    C5432280   6.513   3.539   5.878 -0.9081  0.0121 -0.1551
  124MOL    N5532281   6.537   3.670   5.929  0.3418  0.2815  0.5894
  124MOL    C5632282   6.565   3.777   5.851  0.6290 -0.1550 -0.6219
  124MOL    O5732283   6.543   3.783   5.734  0.0834  0.2572 -0.3583
  124MOL    C5832284   6.640   3.889   5.920 -0.2920 -0.1210  0.6833
  124MOL    C5932285   6.361   3.509   5.873  0.2761 -0.2673  0.0148
  124MOL    H6032286   6.564   3.524   5.783  1.8164 -0.2529  1.3107
  124MOL    H6132287   6.560   3.679   6.027 -3.5414 -0.0067  1.6470
  124MOL    H6232288   6.660   3.974   5.855 -0.1022 -1.4603 -1.0534
  124MOL    H6332289   6.569   3.919   5.997  0.7068 -0.1057  1.6190
  124MOL    H6432290   6.736   3.857   5.961  1.0348  3.0743  0.1482
  124MOL    H6532291   6.319   3.514   5.973  1.1931  2.8570  0.3076
  124MOL    H6632292   6.302   3.592   5.835 -0.6902 -0.2611  1.4802
  124MOL    C6732293   6.321   3.378   5.801  0.9555  0.3578 -0.1953
  124MOL    N6832294   6.357   3.394   5.667  0.3867  0.1242 -0.2029
  124MOL    C6932295   6.459   3.331   5.607  0.7500  0.2400 -0.2088
  124MOL    O7032296   6.518   3.240   5.672  0.0254 -0.7309  0.1823
  124MOL    C7132297   6.488   3.351   5.466  1.2303  0.5367  0.2439
  124MOL    C7232298   6.179   3.341   5.807  1.4218 -0.7916 -0.7160
  124MOL    H7332299   6.370   3.299   5.856  0.7716  1.8533  2.1950
  124MOL    H7432300   6.299   3.456   5.613  2.7108  2.3377 -0.2595
  124MOL    H7532301   6.403   3.316   5.407  1.5053 -0.5323  0.4892
  124MOL    H7632302   6.488   3.457   5.438  1.7639  0.8768  1.5006
  124MOL    H7732303   6.576   3.302   5.425  0.1386 -1.3531  0.1145
  124MOL    H7832304   6.122   3.412   5.746 -1.1870 -2.4772 -0.3518
  124MOL    H7932305   6.175   3.246   5.753 -1.8153  0.3674 -2.7151
  124MOL    C8032306   6.111   3.321   5.948 -0.1116 -0.1913  0.1988
  124MOL    N8132307   6.163   3.204   6.021 -0.1721 -0.5068 -0.3965
  124MOL    C8232308   6.270   3.203   6.103  0.4222  0.4048  0.8265
  124MOL    O8332309   6.343   3.299   6.134  0.1385  0.3856  0.1827
  124MOL    C8432310   6.297   3.063   6.157 -0.3186  0.1798  0.4184
  124MOL    C8532311   5.957   3.335   5.957  0.5574 -0.1884 -0.2866
  124MOL    H8632312   6.147   3.407   6.005  1.3190  0.9515 -2.3669
  124MOL    H8732313   6.107   3.122   6.008 -0.8032 -0.4387  1.7993
  124MOL    H8832314   6.282   2.983   6.085  0.5806 -0.9837  1.5046
  124MOL    H8932315   6.403   3.048   6.180  0.0269  1.9022  0.0157
  124MOL    H9032316   6.235   3.045   6.246 -1.9808  0.5320 -0.6530
  124MOL    H9132317   5.931   3.439   5.936 -0.3337 -0.2083  0.6649
  124MOL    H9232318   5.915   3.293   5.865  1.7446  1.3465 -1.5745
  124MOL    C9332319   5.887   3.283   6.090 -0.8172 -0.1849  0.0242
  124MOL    N9432320   5.744   3.286   6.063  0.0038 -0.2343 -0.4547
  124MOL    C9532321   5.653   3.211   6.126 -1.0264  0.4154  0.3588
  124MOL    O9632322   5.678   3.144   6.225  0.3190  0.3903 -0.3088
  124MOL    C9732323   5.515   3.204   6.063  0.5714  0.5771 -0.0837
  124MOL    C9832324   5.927   3.358   6.222  0.2402 -0.2685  0.3098
  124MOL    H9932325   5.907   3.177   6.103  0.3690 -0.1399 -1.2599
  124MOL   H10032326   5.700   3.349   5.996 -0.7345 -1.9359 -1.6018
  124MOL   H10132327   5.526   3.171   5.960 -1.0362 -0.4356  0.0456
  124MOL   H10232328   5.461   3.137   6.131  0.4187  0.0537 -0.7175
  124MOL   H10332329   5.472   3.304   6.071 -0.8560 -0.0627  0.3181
  124MOL   H10432330   5.986   3.444   6.191  0.5727  0.2007  2.1748
  124MOL   H10532331   5.833   3.396   6.262 -0.4349  0.1406 -1.6008
  124MOL   C10632332   5.994   3.276   6.324 -0.7045  0.2149  0.3709
  124MOL   N10732333   5.895   3.171   6.362  0.3194  0.1490  0.6116
  124MOL   C10832334   5.921   3.059   6.430  1.0319 -0.2315  0.6469
  124MOL   O10932335   6.026   3.041   6.492 -0.0164 -0.3877  0.2639
  124MOL   C11032336   5.805   2.958   6.450  1.0017 -0.3413  0.0979
  124MOL   C11132337   6.038   3.355   6.450 -0.2437  0.3602  0.3453
  124MOL   H11232338   6.071   3.215   6.277 -3.6496 -1.8671 -1.9871
  124MOL   H11332339   5.804   3.164   6.320  0.5929  1.9445 -0.3134
  124MOL   H11432340   5.832   2.878   6.380  0.9545  1.9297 -2.5916
  124MOL   H11532341   5.799   2.916   6.550 -4.2674 -2.8590 -1.0986
  124MOL   H11632342   5.703   2.993   6.436  1.8925  1.8772 -1.1406
  124MOL   H11732343   5.950   3.402   6.495 -1.8668 -0.8173 -1.4650
  124MOL   H11832344   6.082   3.298   6.532 -1.3899  0.6272  1.1574
  124MOL   C11932345   6.133   3.465   6.420 -0.0140  1.0982 -0.3989
  124MOL   N12032346   6.265   3.402   6.403 -0.4268 -0.3231  0.2577
  124MOL   C12132347   6.340   3.331   6.492  0.1595  1.0212  0.9707
  124MOL   O12232348   6.311   3.315   6.606 -0.4532  0.3824 -0.7559
  124MOL   C12332349   6.454   3.261   6.430 -0.1995  0.2432  0.7353
  124MOL   C12432350   6.127   3.568   6.535  0.8226 -0.0774 -0.9511
  124MOL   H12532351   6.115   3.523   6.329 -3.0705  0.5812 -0.1730
  124MOL   H12632352   6.299   3.408   6.308 -1.2760 -2.8078 -0.2393
  124MOL   H12732353   6.500   3.310   6.344  0.9613  0.0639  1.2492
  124MOL   H12832354   6.541   3.248   6.493  0.4337 -0.2919 -0.2426
  124MOL   H12932355   6.426   3.159   6.406 -3.5501  1.4109 -0.6834
  124MOL   H13032356   6.126   3.516   6.631  0.1874 -0.4587 -1.1608
  124MOL   H13132357   6.215   3.632   6.522  1.8875 -1.3737 -0.2782
  124MOL   C13232358   6.006   3.660   6.532 -0.4452  0.3316  0.1943
  124MOL   N13332359   6.009   3.734   6.408  0.2091  0.0460  0.2346
  124MOL   C13432360   5.920   3.737   6.306 -0.2323  0.0891  0.5599
  124MOL   O13532361   5.812   3.690   6.301  0.2062 -0.2219  0.3798
  124MOL   C13632362   5.957   3.825   6.191 -0.3169  0.0110  0.2545
  124MOL   C13732363   5.999   3.751   6.659  0.0137 -0.3234  0.8846
  124MOL   H13832364   5.910   3.607   6.529 -0.7111  0.6469  2.2955
  124MOL   H13932365   6.087   3.796   6.391 -0.2938 -0.0974 -2.9342
  124MOL   H14032366   5.902   3.800   6.101  2.5043 -0.7486 -1.3056
  124MOL   H14132367   5.924   3.924   6.222 -0.1586 -0.1484  0.9594
  124MOL   H14232368   6.063   3.818   6.164 -0.2555 -0.1779  0.5345
  124MOL   H14332369   6.088   3.814   6.658  0.5444 -1.0566  2.0437
  124MOL   H14432370   5.914   3.819   6.648  0.1197 -0.2314  0.6290
  124MOL   C14532371   5.969   3.679   6.794  0.4501 -0.2072  0.0973
  124MOL   N14632372   5.850   3.597   6.778 -0.0962 -0.2941  0.0725
  124MOL   C14732373   5.720   3.626   6.758  0.1673 -0.8564  0.5467
  124MOL   O14832374   5.677   3.739   6.735 -0.3779  0.8107  0.4748
  124MOL   C14932375   5.628   3.517   6.725  0.0738 -0.2036 -0.0976
  124MOL   C15032376   5.967   3.772   6.915 -0.2886 -0.2094  0.6045
  124MOL   H15132377   6.046   3.604   6.814 -0.3256 -0.5526  1.9152
  124MOL   H15232378   5.870   3.499   6.793 -0.1383 -0.4857 -1.1408
  124MOL   H15332379   5.533   3.553   6.684  0.4737  2.6717  1.3559
  124MOL   H15432380   5.679   3.445   6.662 -0.8236 -1.9285  1.1234
  124MOL   H15532381   5.577   3.476   6.812  0.2829 -0.7705 -0.2416
  124MOL   H15632382   6.069   3.803   6.933  0.5325 -1.5257 -1.5631
  124MOL   H15732383   5.905   3.861   6.902  2.5050  1.5870 -0.6829
  124MOL   C15832384   5.921   3.711   7.055 -0.0099 -0.3718 -0.0373
  124MOL   N15932385   5.925   3.811   7.161  0.0027  0.6795  0.6605
  124MOL   C16032386   5.826   3.901   7.174 -0.5202  0.8985  0.4111
  124MOL   O16132387   5.730   3.914   7.101  0.0127  0.3500  0.1600
  124MOL   C16232388   5.826   3.999   7.288 -0.5689  0.0562  0.0767
  124MOL   C16332389   5.995   3.584   7.105  0.4733  0.2837 -0.3302
  124MOL   H16432390   5.816   3.683   7.044  0.0082 -1.2068  1.7073
  124MOL   H16532391   6.003   3.829   7.222  1.1101  0.1364 -0.5583
  124MOL   H16632392   5.751   3.970   7.361 -1.3721  1.5302 -0.1357
  124MOL   H16732393   5.920   3.989   7.340 -1.0249 -1.0042  0.7017
  124MOL   H16832394   5.799   4.101   7.260  0.6188  0.5282  0.6314
  124MOL   H16932395   6.099   3.588   7.073  0.2733  0.6667 -0.9378
  124MOL   H17032396   5.995   3.591   7.214 -1.6463  0.3234 -0.3166
  124MOL   C17132397   5.939   3.440   7.074  0.1829 -0.6351  0.2194
  124MOL   N17232398   5.789   3.438   7.107 -1.0604 -0.2137  0.1114
  124MOL   C17332399   5.700   3.357   7.048 -0.2520  0.8713 -0.1528
  124MOL   O17432400   5.723   3.284   6.954  0.2206  0.6840  0.0226
  124MOL   C17532401   5.563   3.346   7.116  0.1303  0.0016  0.2671
  124MOL   C17632402   6.021   3.329   7.152 -0.8952  0.3539  0.5075
  124MOL   H17732403   5.959   3.424   6.968  0.1117  1.3993 -0.1211
  124MOL   H17832404   5.756   3.496   7.183 -0.7589  0.3318 -0.1679
  124MOL   H17932405   5.570   3.400   7.210 -1.0097  0.2999  0.1775
  124MOL   H18032406   5.486   3.386   7.050  2.1440  0.7353 -1.7471
  124MOL   H18132407   5.546   3.241   7.141 -0.0213 -0.4021 -1.4792
  124MOL   H18232408   6.126   3.352   7.136 -1.3686  1.3877 -1.1727
  124MOL   H18332409   6.016   3.331   7.261  2.1420 -0.5367  0.7082
  124MOL   C18432410   6.003   3.186   7.100  0.3639 -1.0166 -0.3019
  124MOL   N18532411   6.021   3.080   7.204  0.2369  0.4218  0.3854
  124MOL   C18632412   6.132   3.067   7.281 -0.1636  0.3365  0.3698
  124MOL   O18732413   6.228   3.143   7.269 -0.2397 -0.2237  0.3474
  124MOL   C18832414   6.135   2.951   7.376  0.2295  0.2844  0.0146
  124MOL   C18932415   6.065   3.151   6.967 -0.3426  0.6844  0.0128
  124MOL   H19032416   5.895   3.168   7.105  0.6384 -2.7985 -0.3304
  124MOL   H19132417   5.939   3.023   7.222  0.2407 -0.3917 -1.9750
  124MOL   H19232418   6.065   2.876   7.339  0.1695  0.5912 -0.4943
  124MOL   H19332419   6.235   2.911   7.395 -0.2942 -1.2977 -0.4897
  124MOL   H19432420   6.100   2.982   7.474 -1.4622 -1.7088  0.0655
  124MOL   H19532421   6.037   3.226   6.892  0.6635  1.7615  0.6966
  124MOL   H19632422   6.172   3.171   6.975  0.1865 -1.7832 -0.6255
  124MOL   C19732423   6.042   3.010   6.910  0.5763  0.9557 -0.2648
  124MOL   N19832424   6.120   3.005   6.784  0.1804 -0.0922  0.2302
  124MOL   C19932425   6.243   2.950   6.773 -0.5208 -0.1839  0.2878
  124MOL   O20032426   6.301   2.891   6.861  0.0409 -0.3443 -0.2410
  124MOL   C20132427   6.312   2.962   6.634 -0.2443 -0.2510 -0.2329
  124MOL   C20232428   5.896   2.979   6.887  0.1277  0.6208  0.5924
  124MOL   H20332429   6.069   2.939   6.987 -1.1491  1.1413  0.5374
  124MOL   H20432430   6.079   3.051   6.704  1.2045 -0.2781 -0.4227
  124MOL   H20532431   6.286   2.875   6.575 -1.2064 -0.4508  0.4664
  124MOL   H20632432   6.273   3.053   6.589  2.1545  4.1360  5.7946
  124MOL   H20732433   6.419   2.958   6.651 -0.1070  0.3587 -0.9402
  124MOL   H20832434   5.860   3.011   6.984 -1.6115 -2.3437  0.9994
  124MOL   H20932435   5.845   3.054   6.826 -0.5290  0.1104  0.4973
  124MOL   C21032436   5.861   2.829   6.866  0.6855 -0.3650 -0.1228
  124MOL   N21132437   5.909   2.777   6.735 -0.1085  0.0108 -0.1434
  124MOL   C21232438   5.959   2.660   6.698 -0.3378  0.2240 -0.1269
  124MOL   O21332439   5.971   2.567   6.779  0.1751 -0.2467 -0.2381
  124MOL   C21432440   6.027   2.644   6.562  0.6276 -0.5880  0.2987
  124MOL   C21532441   5.709   2.817   6.864  0.1192 -0.2177  0.0008
  124MOL   H21632442   5.908   2.770   6.944 -0.1062 -0.1415  0.5255
  124MOL   H21732443   5.924   2.853   6.671  0.4298  0.9378  1.0722
  124MOL   H21832444   6.095   2.728   6.547  0.6909 -1.0806 -2.5191
  124MOL   H21932445   6.076   2.550   6.535  1.5960  0.0884 -0.3327
  124MOL   H22032446   5.948   2.664   6.490  0.0106 -0.4814  0.9986
  124MOL   H22132447   5.674   2.880   6.782  0.2552  1.5474  1.2679
  124MOL   H22232448   5.687   2.715   6.833 -2.1303 -0.1647  1.3385
  124MOL   C22332449   5.631   2.836   7.002 -0.1275 -0.8670 -1.1268
  124MOL   N22432450   5.665   2.740   7.107 -0.5477 -0.6597  0.7862
  124MOL   C22532451   5.760   2.753   7.197 -0.4108 -0.4550  0.8357
  124MOL   O22632452   5.818   2.861   7.217  0.1995  0.0825  0.1109
  124MOL   C22732453   5.809   2.632   7.278  0.5326  0.2006  0.8270
  124MOL   C22832454   5.475   2.848   7.000  0.0570  0.3193 -0.0896
  124MOL   H22932455   5.659   2.932   7.046 -0.2302  0.1491 -3.2492
  124MOL   H23032456   5.621   2.649   7.099 -1.7499 -0.0251 -0.0580
  124MOL   H23132457   5.792   2.540   7.223 -0.1231  0.9533 -0.2290
  124MOL   H23232458   5.918   2.632   7.287  0.6149  0.2136 -0.2093
  124MOL   H23332459   5.756   2.631   7.374  1.5895  2.8296  1.4755
  124MOL   H23432460   5.447   2.771   6.928 -0.3068  0.4306 -0.0666
  124MOL   H23532461   5.439   2.816   7.097 -1.2436  0.0600 -0.6465
  124MOL   C23632462   5.407   2.985   6.963  0.2697 -0.0242  0.1598
  124MOL   N23732463   5.262   2.981   6.993 -0.1183  0.1225 -0.0461
  124MOL   C23832464   5.204   3.045   7.097 -0.2810  0.0901 -0.3012
  124MOL   O23932465   5.268   3.112   7.184 -0.0184 -0.7331  0.1302
  124MOL   C24032466   5.055   3.033   7.113 -0.6108 -0.3103  0.1672
  124MOL   C24132467   5.443   3.039   6.824 -0.7021  0.3786 -0.2369
  124MOL   H24232468   5.455   3.059   7.027  2.6418 -0.2628 -1.2521
  124MOL   H24332469   5.198   2.937   6.928  0.8396 -3.0009  1.0658
  124MOL   H24432470   5.012   2.968   7.036  1.7864 -0.4031 -1.1312
  124MOL   H24532471   5.031   2.996   7.213 -0.1486  0.6586  0.6384
  124MOL   H24632472   4.996   3.123   7.095  0.2408  0.5528  1.5969
  124MOL   H24732473   5.540   3.089   6.832 -0.4554 -0.0475 -0.5192
  124MOL   H24832474   5.455   2.968   6.742  2.3932  0.2868  0.2258
  124MOL   C24932475   5.342   3.150   6.764 -0.1380 -0.2800  0.2190
  124MOL   N25032476   5.385   3.187   6.627  0.5581  0.8058  0.3639
  124MOL   C25132477   5.309   3.223   6.522  0.1286 -0.3755 -0.2726
  124MOL   O25232478   5.187   3.218   6.524 -0.5270  0.6833  0.4025
  124MOL   C25332479   5.382   3.283   6.412  0.6404 -0.9971 -0.1649
  124MOL   C25432480   5.320   3.284   6.842 -0.0348 -0.6402 -0.5194
  124MOL   H25532481   5.243   3.107   6.748  0.9326 -2.1983 -1.4993
  124MOL   H25632482   5.482   3.211   6.635  1.4543 -2.5401  0.3502
  124MOL   H25732483   5.490   3.279   6.420  0.5290 -0.8379  1.6552
  124MOL   H25832484   5.354   3.228   6.322 -3.7022 -1.2355  1.1958
  124MOL   H25932485   5.357   3.388   6.400 -0.2214 -1.1285  0.4097
  124MOL   H26032486   5.272   3.274   6.939  0.8610  1.8753  0.2322
  124MOL   H26132487   5.418   3.327   6.859  0.4647 -0.9957 -2.3803
  124MOL   H26232488   5.267   3.360   6.784 -1.0645  0.1559  1.4432
  125MOL     C132489   3.319   6.851   6.500 -0.5118  0.6754  0.1093
  125MOL     N232490   3.412   6.842   6.388  0.1809 -0.7735  0.2401
  125MOL     C332491   3.533   6.782   6.394  0.6452 -0.1135 -0.4393
  125MOL     O432492   3.570   6.717   6.487 -0.6175 -0.5578 -0.2008
  125MOL     C532493   3.622   6.795   6.270  0.0596 -0.1085  0.5419
  125MOL     C632494   3.305   7.009   6.528  0.6452 -0.2213  0.2324
  125MOL     H732495   3.232   6.790   6.473  1.0617 -1.2468 -0.7828
  125MOL     H832496   3.378   6.875   6.299  2.5447 -1.5733 -0.9998
  125MOL     H932497   3.721   6.752   6.286  0.1507 -0.7212 -1.5431
  125MOL    H1032498   3.578   6.747   6.183 -1.0915  0.5747  0.7451
  125MOL    H1132499   3.629   6.903   6.262  0.2098 -0.1012  0.7707
  125MOL    H1232500   3.394   7.028   6.587  0.7101  0.0012  0.0633
  125MOL    H1332501   3.303   7.068   6.436  1.2468  0.2527  0.5225
  125MOL    H1432502   3.357   6.807   6.592 -0.5757 -2.4663 -1.2737
  125MOL    C1532503   3.172   7.045   6.603  0.3606 -0.3131  0.0328
  125MOL    N1632504   3.067   7.042   6.506 -0.3742  0.0170  0.2975
  125MOL    C1732505   2.942   6.997   6.513 -0.6584 -0.1268 -0.7164
  125MOL    O1832506   2.882   6.959   6.615 -0.1624  0.2582 -0.0698
  125MOL    C1932507   2.869   6.988   6.380 -0.2602 -0.0296  0.1156
  125MOL    C2032508   3.177   7.178   6.677  0.3714  0.5675 -0.4164
  125MOL    H2132509   3.160   6.957   6.666  1.2560  0.2623  1.0165
  125MOL    H2232510   3.086   7.095   6.422  1.5988 -0.5580  0.3513
  125MOL    H2332511   2.783   7.055   6.378 -1.2479 -1.1624  2.8453
  125MOL    H2432512   2.935   7.009   6.295  0.5475 -1.0536  0.4821
  125MOL    H2532513   2.825   6.890   6.364 -1.0269  0.4752 -0.9907
  125MOL    H2632514   3.262   7.198   6.742  0.9602  0.0212 -1.0189
  125MOL    H2732515   3.187   7.255   6.601 -2.0674  1.1966 -0.1569
  125MOL    C2832516   3.060   7.211   6.770  0.2791  0.0897 -0.3893
  125MOL    N2932517   2.995   7.096   6.831  0.0641  0.3630 -0.1216
  125MOL    C3032518   2.994   7.056   6.961  0.1367  0.0176 -0.2370
  125MOL    O3132519   3.055   7.114   7.057 -0.0566 -0.1129 -0.1963
  125MOL    C3232520   2.911   6.933   6.994  0.4616 -1.0982 -0.6430
  125MOL    C3332521   2.958   7.295   6.690  0.8937  0.4827  0.2516
  125MOL    H3432522   3.082   7.277   6.853 -1.9636 -0.2742  0.5384
  125MOL    H3532523   2.949   7.042   6.759 -0.2091  2.8539 -1.8657
  125MOL    H3632524   2.808   6.935   6.960 -0.1084 -1.6694  0.9939
  125MOL    H3732525   2.951   6.841   6.950 -1.3103 -2.0808 -0.2560
  125MOL    H3832526   2.911   6.907   7.100  2.5605 -2.7415 -0.9998
  125MOL    H3932527   2.924   7.253   6.595  1.7209  0.3135  0.0225
  125MOL    H4032528   2.868   7.305   6.750 -0.2038 -0.8013 -1.1370
  125MOL    C4132529   3.007   7.439   6.667  0.2217  0.2462 -0.6718
  125MOL    N4232530   3.025   7.502   6.800 -0.5606 -0.4758 -0.2521
  125MOL    C4332531   3.141   7.550   6.846 -0.7862  0.9151  0.3489
  125MOL    O4432532   3.251   7.544   6.787  0.1472 -0.5726 -0.5062
  125MOL    C4532533   3.139   7.597   6.990 -0.0455  0.1977  0.2643
  125MOL    C4632534   2.921   7.516   6.561 -0.5074  0.0088  0.4419
  125MOL    H4732535   3.101   7.435   6.612 -0.9558 -0.4934 -2.6415
  125MOL    H4832536   2.950   7.519   6.865  0.2177 -0.0292  0.5497
  125MOL    H4932537   3.218   7.657   7.036 -0.7373  2.1401 -1.0236
  125MOL    H5032538   3.038   7.631   7.012 -0.3717  0.0838 -1.0532
  125MOL    H5132539   3.156   7.510   7.053  0.9762 -0.0505 -0.3342
  125MOL    H5232540   2.936   7.465   6.466 -2.8190 -1.0638  0.6294
  125MOL    H5332541   2.815   7.497   6.577 -0.7783  0.7121 -0.4742
  125MOL    C5432542   2.948   7.665   6.543 -0.0510  0.1385 -0.3268
  125MOL    N5532543   3.095   7.690   6.522 -0.4881 -0.5222  0.3386
  125MOL    C5632544   3.141   7.727   6.402 -0.2187 -0.4558 -0.2480
  125MOL    O5732545   3.067   7.745   6.307  0.0189 -0.3357 -0.8276
  125MOL    C5832546   3.287   7.729   6.386 -0.3426 -0.9483 -0.4695
  125MOL    C5932547   2.902   7.750   6.659  0.6662  0.3330 -0.4955
  125MOL    H6032548   2.890   7.697   6.457 -0.6972  2.2389  0.8519
  125MOL    H6132549   3.170   7.650   6.577  0.1532 -0.1597 -0.2662
  125MOL    H6232550   3.323   7.831   6.402 -3.0178 -0.0774  0.4497
  125MOL    H6332551   3.345   7.663   6.449  2.3377  1.0320 -0.7891
  125MOL    H6432552   3.316   7.710   6.283  2.5265  1.3246 -0.1338
  125MOL    H6532553   2.815   7.699   6.702  2.2170 -2.5031 -0.6013
  125MOL    H6632554   2.977   7.743   6.737  0.3335  0.4293 -0.1644
  125MOL    C6732555   2.868   0.056   6.624 -0.7543 -0.4252  0.1217
  125MOL    N6832556   2.990   0.132   6.620  0.8659 -0.3712 -0.9851
  125MOL    C6932557   3.012   0.242   6.541 -0.4641 -0.0243 -0.1797
  125MOL    O7032558   2.925   0.299   6.477 -0.3368  0.1318  0.4157
  125MOL    C7132559   3.159   0.292   6.537  0.8090  0.2384 -0.4703
  125MOL    C7232560   2.772   0.105   6.732 -0.1489  0.2968 -0.4283
  125MOL    H7332561   2.819   0.063   6.527  0.9596  0.8752 -0.6745
  125MOL    H7432562   3.056   0.093   6.686  0.3781 -0.4669 -0.5498
  125MOL    H7532563   3.233   0.223   6.496  1.0411  0.2455 -0.0699
  125MOL    H7632564   3.167   0.377   6.470  1.7730 -0.0456 -0.7266
  125MOL    H7732565   3.182   0.313   6.642 -0.2985 -1.8074  0.2203
  125MOL    H7832566   2.774   0.040   6.819  1.4966 -0.2432 -0.8615
  125MOL    H7932567   2.793   0.204   6.772 -1.9515 -0.3923  2.3989
  125MOL    C8032568   2.628   0.107   6.678  0.4586 -0.3918  0.3466
  125MOL    N8132569   2.620   0.222   6.576  0.8310  0.9520 -0.1566
  125MOL    C8232570   2.574   0.213   6.451  0.3699 -0.0832  0.2357
  125MOL    O8332571   2.511   0.114   6.421 -0.0317  0.1998 -0.1310
  125MOL    C8432572   2.585   0.330   6.357 -0.6497 -0.4295 -0.0645
  125MOL    C8532573   2.521   0.131   6.787 -0.0763 -0.5070  0.4222
  125MOL    H8632574   2.602   0.015   6.626 -1.4535 -1.2878  2.7834
  125MOL    H8732575   2.660   0.310   6.606  0.5062  0.3647  2.1178
  125MOL    H8832576   2.671   0.396   6.361  0.4365 -1.8123 -0.0759
  125MOL    H8932577   2.569   0.308   6.252 -2.0779  0.3112 -0.0159
  125MOL    H9032578   2.494   0.384   6.385 -0.0598  0.4337  0.2060
  125MOL    H9132579   2.530   0.060   6.869  0.2675  0.0328  0.8526
  125MOL    H9232580   2.552   0.223   6.837  0.2003 -0.4438  0.1329
  125MOL    C9332581   2.376   0.136   6.731  0.1363  0.3292 -0.6832
  125MOL    N9432582   2.291   0.180   6.840 -0.1363 -0.0122 -0.1511
  125MOL    C9532583   2.246   0.302   6.842  0.8759 -0.2196 -0.5559
  125MOL    O9632584   2.247   0.381   6.749  0.6959 -0.3860 -0.4749
  125MOL    C9732585   2.148   0.324   6.949  0.4866  0.0315  0.6355
  125MOL    C9832586   2.328   0.009   6.681 -0.7467  0.4253 -0.1426
  125MOL    H9932587   2.361   0.206   6.649 -1.0640 -0.0469 -0.7981
  125MOL   H10032588   2.285   0.127   6.926 -2.0026 -2.1474 -1.5590
  125MOL   H10132589   2.100   0.422   6.940  0.3325 -0.3074 -3.2667
  125MOL   H10232590   2.065   0.254   6.944  1.3503 -1.0095  0.6589
  125MOL   H10332591   2.192   0.320   7.049 -2.8539  0.7345  2.2042
  125MOL   H10432592   2.406   7.797   6.624  1.2874  0.2039  2.7434
  125MOL   H10532593   2.290   7.779   6.756  0.1212  0.4964  0.3671
  125MOL   C10632594   2.201   0.022   6.590  0.2993  0.4463 -0.0126
  125MOL   N10732595   2.142   7.732   6.567 -0.5912 -0.1882  0.3611
  125MOL   C10832596   2.018   7.693   6.582  0.0606  0.0813  0.1091
  125MOL   O10932597   1.923   7.763   6.616 -0.4620  0.0071 -0.0414
  125MOL   C11032598   1.997   7.542   6.568 -0.3916  0.0067 -0.2295
  125MOL   C11132599   2.220   0.086   6.452  0.4212 -0.0888  0.3001
  125MOL   H11232600   2.129   0.084   6.643  0.3665 -1.0692  1.9290
  125MOL   H11332601   2.196   7.649   6.550 -0.4418 -0.0020 -0.0676
  125MOL   H11432602   2.057   7.497   6.489 -1.3758 -2.5990  0.4382
  125MOL   H11532603   2.017   7.483   6.658  0.4494 -0.5533 -0.7716
  125MOL   H11632604   1.894   7.518   6.542 -0.9993  2.5103 -0.2010
  125MOL   H11732605   2.294   0.165   6.457  0.5797 -0.2492  0.4708
  125MOL   H11832606   2.252   0.016   6.375  0.4809  1.3339 -0.9962
  125MOL   C11932607   2.090   0.161   6.402 -0.6601  1.1895 -0.4105
  125MOL   N12032608   2.108   0.185   6.259  0.1555  0.7047  0.6289
  125MOL   C12132609   2.014   0.180   6.155 -0.6422  0.6118 -0.4513
  125MOL   O12232610   1.908   0.122   6.167  0.3989  0.0006  0.0687
  125MOL   C12332611   2.052   0.250   6.027  0.3138  0.2076  0.1470
  125MOL   C12432612   2.062   0.289   6.480  0.7090 -0.2000 -0.2602
  125MOL   H12532613   2.009   0.089   6.420 -0.7232  1.3981  0.1556
  125MOL   H12632614   2.195   0.230   6.233  0.4186 -0.7232 -1.1010
  125MOL   H12732615   1.984   0.325   5.985  0.5452 -0.3970 -1.3433
  125MOL   H12832616   2.147   0.297   6.053  0.0724  0.3473  0.7961
  125MOL   H12932617   2.062   0.172   5.952 -0.7345  0.4778 -0.2873
  125MOL   H13032618   2.082   0.274   6.586 -1.5207 -2.5762 -0.1344
  125MOL   H13132619   2.134   0.366   6.453 -0.0195  1.2337  1.7347
  125MOL   C13232620   1.924   0.361   6.469 -0.0524  0.4066  1.1034
  125MOL   N13332621   1.916   0.468   6.570  0.4286 -0.1641 -0.1724
  125MOL   C13432622   1.976   0.588   6.562  0.7911  0.0427 -0.3441
  125MOL   O13532623   2.017   0.643   6.460  0.1550  0.3651 -0.1203
  125MOL   C13632624   2.004   0.651   6.695 -0.1370  0.5618 -0.1163
  125MOL   C13732625   1.791   0.283   6.469 -0.1558  0.2709 -0.2692
  125MOL   H13832626   1.920   0.414   6.374 -0.0421 -0.9484  0.3318
  125MOL   H13932627   1.894   0.433   6.662 -0.5968 -3.1741 -1.4685
  125MOL   H14032628   2.097   0.706   6.707  1.1361 -2.0725  3.2038
  125MOL   H14132629   1.926   0.723   6.717 -1.0128 -0.4889  0.3068
  125MOL   H14232630   2.017   0.586   6.782 -1.1704  0.9630  0.3471
  125MOL   H14332631   1.804   0.196   6.405 -1.5498 -0.1870  0.0697
  125MOL   H14432632   1.798   0.234   6.566  1.4926  1.0418  0.0355
  125MOL   C14532633   1.651   0.362   6.464 -0.1881  0.2144 -0.5763
  125MOL   N14632634   1.550   0.304   6.546  0.1089 -0.4116 -0.6471
  125MOL   C14732635   1.506   0.179   6.543  0.5213 -0.6654  0.4554
  125MOL   O14832636   1.541   0.090   6.462  0.4751  0.1538 -0.1196
  125MOL   C14932637   1.400   0.147   6.650 -0.9276 -0.0490 -0.5774
  125MOL   C15032638   1.608   0.397   6.320  0.0552  0.5782 -0.1976
  125MOL   H15132639   1.664   0.455   6.519 -1.7414  0.7500 -1.0906
  125MOL   H15232640   1.517   0.375   6.609 -0.5066 -1.5572  0.3496
  125MOL   H15332641   1.437   0.077   6.724  0.6885 -0.1203 -1.4195
  125MOL   H15432642   1.364   0.233   6.707  3.1655 -0.0147  2.1787
  125MOL   H15532643   1.318   0.102   6.594 -1.9214 -0.8252  1.4453
  125MOL   H15632644   1.698   0.399   6.258 -0.6457  2.5781 -1.1888
  125MOL   H15732645   1.555   0.310   6.280  0.6593 -0.5503  1.4204
  125MOL   C15832646   1.515   0.516   6.308 -0.2327  0.2932 -0.2716
  125MOL   N15932647   1.384   0.459   6.344  0.0622 -0.2720  0.3349
  125MOL   C16032648   1.309   0.511   6.450  0.7990  1.0569 -0.1092
  125MOL   O16132649   1.354   0.589   6.538  0.5285  0.6576  0.4005
  125MOL   C16232650   1.163   0.474   6.457  0.2209 -0.4377 -0.0916
  125MOL   C16332651   1.500   0.586   6.171 -0.5729 -0.0421  0.2230
  125MOL   H16432652   1.543   0.600   6.372 -0.0038  1.1093 -1.4026
  125MOL   H16532653   1.346   0.393   6.279  1.2414 -1.7033  1.0765
  125MOL   H16632654   1.106   0.517   6.539 -0.9895 -1.0800 -0.5728
  125MOL   H16732655   1.110   0.494   6.364 -0.9179 -2.3236  0.1409
  125MOL   H16832656   1.148   0.367   6.466 -1.9209 -0.2287 -0.8271
  125MOL   H16932657   1.511   0.512   6.092 -0.3995  1.7091 -1.4293
  125MOL   H17032658   1.402   0.631   6.156 -0.1178  0.6323 -0.8117
  125MOL   C17132659   1.608   0.695   6.147 -0.1838  0.2195  0.2603
  125MOL   N17232660   1.591   0.751   6.012  0.6747  0.4966 -0.3004
  125MOL   C17332661   1.604   0.885   5.989  0.1922  0.8809  0.1456
  125MOL   O17432662   1.628   0.964   6.075  0.0556  0.3961  0.2516
  125MOL   C17532663   1.585   0.931   5.847  0.3925  0.2037 -0.5166
  125MOL   C17632664   1.752   0.648   6.174 -0.1418  0.0629 -0.4252
  125MOL   H17732665   1.600   0.766   6.230 -1.1598 -2.1872  2.3146
  125MOL   H17832666   1.553   0.687   5.943  2.8814 -0.5935 -0.5443
  125MOL   H17932667   1.495   0.888   5.804 -0.6898  1.7885  0.1475
  125MOL   H18032668   1.582   1.040   5.840  0.2232  0.2785  0.6089
  125MOL   H18132669   1.672   0.904   5.786  1.2236  2.0960 -0.2206
  125MOL   H18232670   1.768   0.614   6.277 -0.8397  1.0110  0.0048
  125MOL   H18332671   1.769   0.564   6.106  1.1445  0.8298 -1.0557
  125MOL   C18432672   1.873   0.747   6.161 -0.7183 -0.7813  0.4363
  125MOL   N18532673   2.000   0.671   6.186  0.2440  0.6550 -0.3715
  125MOL   C18632674   2.081   0.609   6.097  1.0769 -0.2540 -0.5278
  125MOL   O18732675   2.052   0.587   5.975  0.1462  0.0643 -0.3509
  125MOL   C18832676   2.215   0.551   6.142 -0.1913  0.2072  0.4368
  125MOL   C18932677   1.878   0.863   6.274 -0.2644 -0.1511  0.0449
  125MOL   H19032678   1.860   0.793   6.063  4.7027  0.2455  0.0722
  125MOL   H19132679   2.029   0.664   6.283 -1.4618  0.1476  0.1256
  125MOL   H19232680   2.261   0.622   6.211  0.8893  0.7133 -0.7986
  125MOL   H19332681   2.204   0.452   6.187 -1.1391 -0.0001 -0.2240
  125MOL   H19432682   2.288   0.549   6.062 -1.1873 -2.7632 -0.4664
  125MOL   H19532683   1.778   0.906   6.264  0.2880  0.8762 -1.2608
  125MOL   H19632684   1.898   0.815   6.370 -1.8109  0.9616  0.9334
  125MOL   C19732685   1.978   0.978   6.255 -0.2325 -0.2120 -0.7433
  125MOL   N19832686   2.101   0.938   6.330  0.0092 -0.2054  0.0400
  125MOL   C19932687   2.227   0.923   6.291 -0.5759 -0.4631  0.4149
  125MOL   O20032688   2.268   0.952   6.182  0.0284 -0.0473  0.2407
  125MOL   C20132689   2.319   0.850   6.387 -0.8975 -0.3226 -0.6696
  125MOL   C20232690   1.934   1.110   6.322 -0.5427 -0.4349 -0.0240
  125MOL   H20332691   2.007   0.987   6.150 -1.4035 -1.7998 -1.2114
  125MOL   H20432692   2.091   0.891   6.419 -1.2739  1.4018  0.7649
  125MOL   H20532693   2.290   0.869   6.490 -1.4176  1.1154 -1.0640
  125MOL   H20632694   2.306   0.744   6.365  0.5432 -0.4635 -0.8892
  125MOL   H20732695   2.425   0.869   6.371 -1.2531  2.3336 -0.0996
  125MOL   H20832696   1.919   1.096   6.429 -3.6675  1.8878 -0.0743
  125MOL   H20932697   2.027   1.166   6.319 -1.8392  1.8116  0.5818
  125MOL   C21032698   1.815   1.183   6.249  0.6327  0.4791 -0.6269
  125MOL   N21132699   1.829   1.171   6.105  0.3829 -0.2495 -0.4663
  125MOL   C21232700   1.923   1.222   6.023 -0.9512 -0.4958  0.1051
  125MOL   O21332701   1.997   1.317   6.051  0.1758 -0.0388  0.0368
  125MOL   C21432702   1.906   1.174   5.880  0.0056 -0.3145 -0.4681
  125MOL   C21532703   1.808   1.335   6.290 -0.8599  0.2333  0.6000
  125MOL   H21632704   1.723   1.131   6.278  0.5867  1.7053  1.5139
  125MOL   H21732705   1.771   1.098   6.065  1.9692 -2.0945  0.5253
  125MOL   H21832706   1.996   1.116   5.862  0.4089  0.0140  0.4483
  125MOL   H21932707   1.812   1.124   5.855  0.5522 -2.3421  1.3062
  125MOL   H22032708   1.929   1.256   5.813  2.1760 -1.8773 -1.6968
  125MOL   H22132709   1.802   1.353   6.398 -1.5220  0.7752  0.4774
  125MOL   H22232710   1.898   1.390   6.262  0.0247 -0.6863  1.5852
  125MOL   C22332711   1.682   1.406   6.233  0.5065  0.9016 -0.3923
  125MOL   N22432712   1.695   1.549   6.251  0.1760 -0.1857  0.4762
  125MOL   C22532713   1.706   1.622   6.364 -0.3045  0.5723  0.0681
  125MOL   O22632714   1.677   1.581   6.474 -0.0423  0.2840 -0.0334
  125MOL   C22732715   1.737   1.761   6.343  0.1530 -0.3930  0.0706
  125MOL   C22832716   1.548   1.348   6.282 -0.1034  0.5208 -0.6603
  125MOL   H22932717   1.685   1.391   6.125  1.3387  1.5877 -0.4711
  125MOL   H23032718   1.690   1.595   6.161  0.8825 -0.5403  0.2508
  125MOL   H23132719   1.820   1.770   6.273  1.8822 -0.3266  2.1005
  125MOL   H23232720   1.654   1.818   6.300  0.2350 -2.5048 -3.0091
  125MOL   H23332721   1.756   1.808   6.440 -4.1986 -0.8843  1.2933
  125MOL   H23432722   1.546   1.239   6.280  2.6135  0.4235 -1.0677
  125MOL   H23532723   1.543   1.373   6.387  2.0768 -0.1915 -0.3544
  125MOL   C23632724   1.422   1.402   6.194 -0.6423  0.2586  0.1307
  125MOL   N23732725   1.300   1.369   6.268  0.1574  0.0804 -0.2643
  125MOL   C23832726   1.213   1.462   6.314 -0.7641 -0.0264  0.3839
  125MOL   O23932727   1.217   1.579   6.280 -0.1682 -0.2630 -0.0684
  125MOL   C24032728   1.096   1.407   6.402  0.0157 -0.5270 -0.0295
  125MOL   C24132729   1.417   1.333   6.054  0.2685 -0.2037 -0.1001
  125MOL   H24232730   1.433   1.509   6.177 -0.1218 -0.2647 -3.0974
  125MOL   H24332731   1.274   1.273   6.290  1.7938  0.0185  1.5887
  125MOL   H24432732   1.066   1.491   6.465 -1.7402 -0.0785 -1.4214
  125MOL   H24532733   1.019   1.370   6.335 -1.8301 -0.0450  1.7809
  125MOL   H24632734   1.138   1.331   6.468  1.2679  1.4468  1.5158
  125MOL   H24732735   1.519   1.317   6.018 -0.0077 -1.4855 -0.3280
  125MOL   H24832736   1.400   1.228   6.076 -2.4222  0.1821 -0.1855
  125MOL   C24932737   1.323   1.390   5.944 -0.6407 -0.4289 -0.4010
  125MOL   N25032738   1.179   1.359   5.958  0.4418 -0.2636 -0.1832
  125MOL   C25132739   1.128   1.239   5.979  1.0904 -0.7980  0.4941
  125MOL   O25232740   1.192   1.139   5.974 -0.5045  0.3888 -0.6153
  125MOL   C25332741   0.980   1.233   6.002 -0.5979  0.4339 -0.0130
  125MOL   C25432742   1.378   1.347   5.809  0.2853 -0.4967  0.2024
  125MOL   H25532743   1.342   1.497   5.946  0.9433 -0.6607 -1.5957
  125MOL   H25632744   1.115   1.437   5.946  2.1506  0.7024 -3.5702
  125MOL   H25732745   0.926   1.169   5.933  1.0312  1.0006 -1.8453
  125MOL   H25832746   0.966   1.177   6.095 -0.5838 -1.0255 -0.8872
  125MOL   H25932747   0.919   1.324   5.998 -0.1519  0.6834 -1.3277
  125MOL   H26032748   1.477   1.389   5.788 -0.2705  0.1911 -1.0854
  125MOL   H26132749   1.391   1.238   5.805  0.1735 -0.4650 -1.1934
  125MOL   H26232750   1.312   1.383   5.730 -0.8850 -1.6379  0.6519
  126MOL     C132751   6.401   0.619   4.076  0.8641  0.1739  0.2856
  126MOL     N232752   6.408   0.487   4.017 -0.0706 -0.2627 -0.1926
  126MOL     C332753   6.389   0.462   3.886  1.5380  0.3405  0.3261
  126MOL     O432754   6.375   0.553   3.803  0.2083  0.8968 -0.0220
  126MOL     C532755   6.405   0.321   3.834  0.6294 -0.0611 -0.1604
  126MOL     C632756   6.528   0.656   4.156  0.7889  0.1483 -0.8152
  126MOL     H732757   6.378   0.703   4.011 -0.8221 -0.8852 -0.5143
  126MOL     H832758   6.430   0.415   4.084  1.3635 -1.2091 -1.6333
  126MOL     H932759   6.470   0.337   3.748  0.8387 -0.8657 -0.1563
  126MOL    H1032760   6.452   0.252   3.903 -0.8252  2.2327  3.2931
  126MOL    H1132761   6.315   0.280   3.790  2.0988 -1.3298 -2.0387
  126MOL    H1232762   6.567   0.570   4.211 -1.3331 -0.3739 -0.0785
  126MOL    H1332763   6.607   0.687   4.087  1.6549 -1.0264 -0.3683
  126MOL    H1432764   6.315   0.625   4.144  0.3313  1.0469 -0.4497
  126MOL    C1532765   6.500   0.762   4.264  0.3327 -0.1716  0.4423
  126MOL    N1632766   6.630   0.818   4.310  0.5031  0.3611  0.2673
  126MOL    C1732767   6.665   0.946   4.323 -0.7379 -0.1449  0.5913
  126MOL    O1832768   6.600   1.040   4.281 -0.0264  0.1923 -0.2888
  126MOL    C1932769   6.801   0.982   4.387  0.2837  0.1306 -0.3740
  126MOL    C2032770   6.422   0.708   4.385  1.2184  0.2145 -0.5335
  126MOL    H2132771   6.443   0.842   4.217  1.7159  1.4828  1.5013
  126MOL    H2232772   6.686   0.753   4.365  0.9854  1.7236  1.4185
  126MOL    H2332773   6.842   1.081   4.369 -1.7634  0.9262 -0.9155
  126MOL    H2432774   6.786   0.974   4.494  1.5725 -0.7920 -0.2455
  126MOL    H2532775   6.873   0.902   4.367 -1.4815 -1.6174  0.0036
  126MOL    H2632776   6.344   0.641   4.349  1.3680 -0.2238 -0.0516
  126MOL    H2732777   6.482   0.631   4.433  0.3131 -0.7509 -0.9347
  126MOL    C2832778   6.360   0.809   4.481  0.2786  0.7458 -0.3448
  126MOL    N2932779   6.299   0.925   4.411 -0.0985  0.4619 -0.1187
  126MOL    C3032780   6.173   0.947   4.374 -0.7263 -0.9593 -0.4427
  126MOL    O3132781   6.089   0.865   4.369  0.3102  0.7605 -0.3456
  126MOL    C3232782   6.132   1.081   4.325  0.1401  0.4126 -0.4235
  126MOL    C3332783   6.460   0.858   4.588  0.0984  0.7896  0.5340
  126MOL    H3432784   6.274   0.762   4.528 -0.0393  0.5884 -1.0839
  126MOL    H3532785   6.351   1.012   4.413 -1.1427  1.0975 -0.6219
  126MOL    H3632786   6.076   1.081   4.231  2.1479  0.9379 -1.6547
  126MOL    H3732787   6.080   1.133   4.405 -1.1750  1.0142 -1.6496
  126MOL    H3832788   6.222   1.136   4.296  1.4275 -1.0910  0.6137
  126MOL    H3932789   6.520   0.774   4.620 -0.5862 -0.4455 -1.3827
  126MOL    H4032790   6.532   0.929   4.547 -0.8931  0.3506 -2.0940
  126MOL    C4132791   6.389   0.928   4.711 -0.6847  0.0807  0.1453
  126MOL    N4232792   6.485   1.002   4.787 -0.2970  0.0692 -0.1617
  126MOL    C4332793   6.593   0.956   4.854  0.2860 -0.2701  0.2801
  126MOL    O4432794   6.615   0.838   4.875  0.2701 -0.2333 -0.2090
  126MOL    C4532795   6.692   1.069   4.890 -0.1019 -0.0957 -0.3208
  126MOL    C4632796   6.295   0.838   4.797 -0.3787  0.2551 -0.1804
  126MOL    H4732797   6.346   1.008   4.651 -0.9000  0.9951  1.4840
  126MOL    H4832798   6.474   1.099   4.765  0.5212  0.6323  1.7885
  126MOL    H4932799   6.775   1.038   4.953  0.2599 -0.3754 -0.9283
  126MOL    H5032800   6.731   1.107   4.795  0.0424 -1.2615 -0.7379
  126MOL    H5132801   6.638   1.149   4.941 -0.5361  0.1367 -1.1441
  126MOL    H5232802   6.302   0.736   4.761  2.5793  0.3929 -0.1074
  126MOL    H5332803   6.327   0.822   4.900  0.1294  0.4043 -0.3137
  126MOL    C5432804   6.151   0.880   4.792 -0.3871 -0.5971  0.1918
  126MOL    N5532805   6.142   1.014   4.851  0.6058 -0.0502 -0.2879
  126MOL    C5632806   6.107   1.132   4.792  0.2262 -0.6471 -0.1196
  126MOL    O5732807   6.072   1.142   4.671  0.0152 -0.0784  0.2027
  126MOL    C5832808   6.113   1.257   4.872 -0.3361 -0.1879 -0.7972
  126MOL    C5932809   6.043   0.792   4.863 -0.0967 -0.4568  0.4626
  126MOL    H6032810   6.125   0.871   4.687  2.0967  0.1525 -0.5183
  126MOL    H6132811   6.184   1.026   4.942  0.7828  1.0363 -0.5128
  126MOL    H6232812   6.192   1.321   4.834 -1.1292 -0.7960 -3.5943
  126MOL    H6332813   6.015   1.302   4.853  0.2918  2.6146  2.2488
  126MOL    H6432814   6.132   1.240   4.978 -2.3875 -0.8275 -0.5121
  126MOL    H6532815   6.070   0.805   4.968  0.4332 -0.6325  0.3501
  126MOL    H6632816   5.939   0.819   4.848 -1.0254 -3.4658  1.0844
  126MOL    C6732817   6.055   0.644   4.826  0.3835 -0.6618 -0.2971
  126MOL    N6832818   6.042   0.620   4.682 -0.1111  0.0734  0.2321
  126MOL    C6932819   6.117   0.523   4.622 -0.2767  0.1069 -0.2390
  126MOL    O7032820   6.195   0.448   4.677  0.3444 -0.5191  0.3048
  126MOL    C7132821   6.107   0.521   4.467  0.0146  0.5097 -0.9130
  126MOL    C7232822   5.943   0.563   4.901 -0.3144 -0.7233  0.1538
  126MOL    H7332823   6.151   0.602   4.856  0.8031  0.4435 -0.0794
  126MOL    H7432824   5.978   0.673   4.624  0.6214 -0.4868 -1.1230
  126MOL    H7532825   6.189   0.458   4.433 -0.1909 -0.7551  0.9090
  126MOL    H7632826   6.023   0.464   4.429 -0.3567  0.6220 -0.2527
  126MOL    H7732827   6.115   0.616   4.414  0.4168  1.8131  1.4277
  126MOL    H7832828   5.848   0.612   4.878 -0.2087  0.1467  1.5567
  126MOL    H7932829   5.929   0.466   4.853  0.4806 -1.5256  1.5189
  126MOL    C8032830   5.976   0.549   5.048  0.9835  0.5092  0.1545
  126MOL    N8132831   6.085   0.454   5.052  0.3960 -0.5136  0.3450
  126MOL    C8232832   6.186   0.457   5.137  1.2520  0.1195  0.0036
  126MOL    O8332833   6.194   0.541   5.222 -0.1932 -0.5912 -0.0389
  126MOL    C8432834   6.282   0.341   5.130  0.3810  0.0525 -0.2723
  126MOL    C8532835   5.861   0.493   5.134 -0.9476  0.0757 -0.0474
  126MOL    H8632836   5.998   0.652   5.075  2.2780  1.0896 -2.8769
  126MOL    H8732837   6.089   0.379   4.984  0.2214  1.1722 -1.5733
  126MOL    H8832838   6.249   0.286   5.218 -0.9506  1.3861  0.1038
  126MOL    H8932839   6.251   0.283   5.043 -0.9437  0.7559 -0.3002
  126MOL    H9032840   6.389   0.357   5.144 -0.0722  1.9607  1.3053
  126MOL    H9132841   5.798   0.426   5.075 -2.6860 -0.1014  1.9660
  126MOL    H9232842   5.893   0.435   5.220  0.4614 -0.3469 -0.8287
  126MOL    C9332843   5.767   0.603   5.194 -0.6021  0.7588 -0.1388
  126MOL    N9432844   5.673   0.558   5.300  0.2976 -0.3348  0.9258
  126MOL    C9532845   5.596   0.450   5.298 -0.7391  0.4742 -1.1527
  126MOL    O9632846   5.612   0.353   5.225  0.0847 -0.2069 -0.6892
  126MOL    C9732847   5.487   0.449   5.401  0.3510  0.9243 -0.1476
  126MOL    C9832848   5.689   0.700   5.105 -0.1534  0.7986  0.4866
  126MOL    H9932849   5.843   0.669   5.236 -1.1768  1.1698  0.2710
  126MOL   H10032850   5.643   0.626   5.369  0.2386  0.0913  0.4855
  126MOL   H10132851   5.523   0.403   5.493 -0.9884 -1.7211 -0.9082
  126MOL   H10232852   5.443   0.546   5.423  1.7226  1.0012  2.4027
  126MOL   H10332853   5.414   0.382   5.356  0.1633  0.2219  1.1882
  126MOL   H10432854   5.764   0.743   5.038  0.4614  0.6121  1.0536
  126MOL   H10532855   5.620   0.650   5.036  1.1291  0.9208 -0.9078
  126MOL   C10632856   5.613   0.824   5.168 -0.3072 -0.3676  0.5715
  126MOL   N10732857   5.509   0.788   5.258 -0.5333 -0.0221 -0.1951
  126MOL   C10832858   5.476   0.861   5.368 -0.4114  0.9668  0.4770
  126MOL   O10932859   5.378   0.824   5.440 -0.4367 -0.2931 -0.5998
  126MOL   C11032860   5.577   0.970   5.412  0.2460 -0.9659  0.1439
  126MOL   C11132861   5.547   0.900   5.051 -0.0588 -0.1735 -0.0827
  126MOL   H11232862   5.695   0.887   5.203 -0.9819  1.4467 -1.0025
  126MOL   H11332863   5.460   0.707   5.223 -2.0270  0.6658  0.2324
  126MOL   H11432864   5.554   1.068   5.370  1.3129 -0.4002  0.8798
  126MOL   H11532865   5.560   0.993   5.517  1.3073  0.4578  0.0271
  126MOL   H11632866   5.683   0.944   5.415  0.1328 -1.2701  2.7841
  126MOL   H11732867   5.480   0.830   5.001  0.1524 -0.0874 -0.4991
  126MOL   H11832868   5.481   0.974   5.096 -0.1310 -1.4655  1.9664
  126MOL   C11932869   5.638   0.988   4.971 -0.3121 -0.4099 -0.2541
  126MOL   N12032870   5.676   1.098   5.050  0.2562  0.7457  0.3384
  126MOL   C12132871   5.798   1.116   5.101  0.1404 -0.5073  0.6442
  126MOL   O12232872   5.895   1.041   5.102  0.4894 -0.0541 -0.2741
  126MOL   C12332873   5.815   1.254   5.169 -0.2884 -0.0530  0.0988
  126MOL   C12432874   5.572   1.042   4.841  0.7358 -0.0717  0.1648
  126MOL   H12532875   5.733   0.939   4.949 -1.3167 -2.1916 -0.6972
  126MOL   H12632876   5.607   1.170   5.062 -0.5323 -0.2588  1.9334
  126MOL   H12732877   5.754   1.334   5.127 -0.7889  0.5953  2.0172
  126MOL   H12832878   5.798   1.246   5.277  0.1007 -1.0450  0.0897
  126MOL   H12932879   5.919   1.283   5.159 -0.0523 -1.5333 -2.1683
  126MOL   H13032880   5.499   1.115   4.876 -0.7972 -2.2448  1.6349
  126MOL   H13132881   5.643   1.096   4.777 -1.0141  3.1067  0.7680
  126MOL   C13232882   5.499   0.944   4.744 -0.0366  0.1241 -0.2474
  126MOL   N13332883   5.589   0.914   4.631 -0.2503  0.4149  0.2636
  126MOL   C13432884   5.688   0.815   4.628 -0.4637  0.3117 -0.5707
  126MOL   O13532885   5.717   0.747   4.726  0.1889 -0.0451 -1.0213
  126MOL   C13632886   5.765   0.791   4.499 -0.4507  0.2731 -0.1421
  126MOL   C13732887   5.351   0.989   4.704  0.5861 -0.0390 -0.1903
  126MOL   H13832888   5.480   0.854   4.802  0.0780  1.0617  1.2698
  126MOL   H13932889   5.581   0.964   4.543  0.4331 -0.2681 -0.2020
  126MOL   H14032890   5.829   0.703   4.504 -2.0858 -1.0152 -1.3344
  126MOL   H14132891   5.695   0.757   4.423 -0.9517  0.5104  0.2093
  126MOL   H14232892   5.823   0.873   4.455  0.9663 -0.0866  1.0059
  126MOL   H14332893   5.294   1.042   4.780 -0.2006  0.3770 -1.0656
  126MOL   H14432894   5.369   1.061   4.625  3.3856  0.9572  1.2734
  126MOL   C14532895   5.248   0.874   4.657 -0.0007  0.0401 -0.2106
  126MOL   N14632896   5.306   0.770   4.574 -0.0703 -0.6636  0.4546
  126MOL   C14732897   5.325   0.642   4.610 -0.7059  0.4777  0.6710
  126MOL   O14832898   5.282   0.590   4.715 -0.1829 -0.0829 -0.2999
  126MOL   C14932899   5.416   0.561   4.516 -0.0866  0.6892 -0.0732
  126MOL   C15032900   5.121   0.938   4.609 -0.9347  0.2011  0.4461
  126MOL   H15132901   5.239   0.823   4.753  3.1613 -2.4244 -1.1455
  126MOL   H15232902   5.333   0.792   4.479 -0.2808 -0.2634  0.4873
  126MOL   H15332903   5.419   0.460   4.558  2.4572  1.3279  1.4278
  126MOL   H15432904   5.364   0.565   4.421 -0.1327 -1.0249 -0.1444
  126MOL   H15532905   5.519   0.592   4.498 -0.4094  0.5551 -2.2262
  126MOL   H15632906   5.090   0.986   4.701 -1.2325  0.1960  0.3463
  126MOL   H15732907   5.152   1.013   4.536 -0.4186  0.0713  0.5255
  126MOL   C15832908   5.009   0.840   4.554  0.3813  0.5633 -0.0423
  126MOL   N15932909   4.953   0.912   4.438 -0.4028 -0.2931  0.7444
  126MOL   C16032910   5.014   0.915   4.312  0.7969 -0.1851 -0.2379
  126MOL   O16132911   5.104   0.842   4.290 -0.3326 -0.1080  0.0340
  126MOL   C16232912   4.969   1.019   4.214 -0.2424  0.5913  0.3364
  126MOL   C16332913   4.910   0.798   4.660 -0.0647 -0.0859 -0.2905
  126MOL   H16432914   5.048   0.749   4.507 -0.2120 -0.2015  0.9162
  126MOL   H16532915   4.865   0.960   4.442  0.1845  0.8839 -0.2417
  126MOL   H16632916   5.011   1.117   4.234 -0.7531  0.9437 -0.3113
  126MOL   H16732917   5.006   1.000   4.114 -1.1770 -1.1779  0.3057
  126MOL   H16832918   4.861   1.029   4.204 -0.5120 -0.3758  2.1199
  126MOL   H16932919   4.868   0.888   4.706  1.6043  0.9579 -0.7756
  126MOL   H17032920   4.815   0.754   4.630  1.0151 -2.7996  0.1251
  126MOL   C17132921   4.956   0.707   4.779  0.5604  0.5418  0.1757
  126MOL   N17232922   5.004   0.580   4.728 -0.1693  0.4778 -0.3571
  126MOL   C17332923   4.933   0.479   4.680  0.0511  0.1967  0.5728
  126MOL   O17432924   4.814   0.466   4.690 -0.4511  0.5978  0.5414
  126MOL   C17532925   5.009   0.367   4.603 -0.8315  0.2270 -0.0606
  126MOL   C17632926   4.856   0.677   4.896 -0.2374 -0.0471 -0.0106
  126MOL   H17732927   5.033   0.769   4.826  1.4841 -0.5440  0.1237
  126MOL   H17832928   5.104   0.562   4.726 -0.1687  0.5833 -1.2266
  126MOL   H17932929   4.942   0.314   4.536 -0.0685  0.3356 -0.9276
  126MOL   H18032930   5.083   0.408   4.534 -1.9938  2.4789 -0.0116
  126MOL   H18132931   5.057   0.302   4.677  0.0609  0.4368 -0.4501
  126MOL   H18232932   4.758   0.643   4.861 -0.3572 -0.3055  0.5547
  126MOL   H18332933   4.897   0.585   4.938 -1.1831 -1.0162 -1.1716
  126MOL   C18432934   4.832   0.776   5.008  0.3735 -0.6540 -0.4266
  126MOL   N18532935   4.956   0.791   5.081  0.4413  0.3519  0.2598
  126MOL   C18632936   5.031   0.902   5.092 -0.0705  0.4249 -0.1312
  126MOL   O18732937   5.005   1.019   5.074 -0.4567  0.6615 -0.5725
  126MOL   C18832938   5.169   0.861   5.134 -0.0181  0.0089  0.1290
  126MOL   C18932939   4.710   0.734   5.091  0.3220  0.3797 -0.5131
  126MOL   H19032940   4.808   0.873   4.963  3.6153  0.2875 -0.2654
  126MOL   H19132941   4.992   0.703   5.115  2.0783  0.1973 -1.8085
  126MOL   H19232942   5.177   0.781   5.207 -0.1742  1.3731  1.6870
  126MOL   H19332943   5.208   0.819   5.042  1.8360 -1.7994  1.7053
  126MOL   H19432944   5.212   0.958   5.160  0.7613  0.2674 -2.1015
  126MOL   H19532945   4.620   0.780   5.050 -0.7221 -1.6073 -0.5131
  126MOL   H19632946   4.693   0.627   5.073  1.8516 -0.2659  1.6468
  126MOL   C19732947   4.722   0.752   5.245 -0.7398  0.0454  0.1011
  126MOL   N19832948   4.618   0.665   5.310 -0.2468 -0.6301  0.3873
  126MOL   C19932949   4.630   0.553   5.375  0.0903  0.1215  0.3096
  126MOL   O20032950   4.739   0.494   5.393  0.4152 -0.4502  0.1353
  126MOL   C20132951   4.497   0.493   5.426  0.6852 -0.1483 -0.6991
  126MOL   C20232952   4.729   0.893   5.302 -0.5929 -0.4700 -0.3091
  126MOL   H20332953   4.815   0.704   5.274 -1.1167 -0.0667  1.1562
  126MOL   H20432954   4.522   0.692   5.292 -1.2116 -3.9751  0.2897
  126MOL   H20532955   4.441   0.563   5.488  2.5679  0.4272  0.3890
  126MOL   H20632956   4.436   0.468   5.339 -4.4242  1.2727  2.2489
  126MOL   H20732957   4.519   0.405   5.486 -1.3050 -1.0371 -1.2357
  126MOL   H20832958   4.778   0.955   5.227 -2.0716  1.5170  0.3047
  126MOL   H20932959   4.631   0.940   5.310 -0.3963 -0.3501  1.7836
  126MOL   C21032960   4.797   0.910   5.443 -0.7334 -0.3662  0.2048
  126MOL   N21132961   4.764   1.049   5.493  0.2577  0.1841 -0.6642
  126MOL   C21232962   4.743   1.090   5.620  0.8015 -0.1134  0.0381
  126MOL   O21332963   4.772   1.030   5.728 -0.8177 -0.4625  0.3562
  126MOL   C21432964   4.690   1.237   5.631 -0.7070  0.2569  0.0405
  126MOL   C21532965   4.948   0.888   5.442 -0.0430 -0.0528 -0.5072
  126MOL   H21632966   4.762   0.843   5.522 -1.6446 -0.6344 -0.4237
  126MOL   H21732967   4.730   1.116   5.426  0.4826 -0.3161 -1.2901
  126MOL   H21832968   4.637   1.260   5.723  0.0941 -1.5208  0.9802
  126MOL   H21932969   4.770   1.310   5.614  0.0227 -0.8189 -1.2801
  126MOL   H22032970   4.641   1.256   5.536  2.3300  1.1337 -1.4394
  126MOL   H22132971   4.975   0.826   5.357  0.0772  0.8829 -1.1588
  126MOL   H22232972   5.001   0.982   5.423 -0.1231  0.1361  0.1982
  126MOL   C22332973   5.010   0.829   5.570  0.0367 -0.3966 -0.2738
  126MOL   N22432974   5.151   0.873   5.594  0.1841  0.2959  0.2126
  126MOL   C22532975   5.188   0.947   5.693  0.3236 -0.5325  0.3812
  126MOL   O22632976   5.119   0.964   5.796 -0.2883  0.0507  0.1859
  126MOL   C22732977   5.325   1.013   5.692 -0.8332 -0.2401  0.0146
  126MOL   C22832978   4.991   0.679   5.596 -0.3381 -0.8009  0.0665
  126MOL   H22932979   4.951   0.872   5.651  0.6805  0.1914 -0.1098
  126MOL   H23032980   5.222   0.854   5.525  0.4277 -0.6438  0.7149
  126MOL   H23132981   5.396   0.945   5.741 -2.4883 -2.0652 -0.0469
  126MOL   H23232982   5.363   1.032   5.592 -3.7136  1.6584 -0.7671
  126MOL   H23332983   5.330   1.104   5.751  0.3475  1.8777 -3.2769
  126MOL   H23432984   4.932   0.644   5.511  0.2518  1.1887 -1.1992
  126MOL   H23532985   5.087   0.629   5.587  0.8655  1.3309  0.8073
  126MOL   C23632986   4.917   0.632   5.727  0.3935  0.2330  0.4247
  126MOL   N23732987   4.787   0.703   5.754  0.1968  0.1365  0.2421
  126MOL   C23832988   4.699   0.681   5.854 -0.1549  0.2538  0.7113
  126MOL   O23932989   4.722   0.589   5.931  0.7731 -0.1541 -0.3881
  126MOL   C24032990   4.581   0.774   5.870 -0.0772 -0.0628  0.1026
  126MOL   C24132991   5.009   0.640   5.849 -0.0832  0.2357  0.3148
  126MOL   H24232992   4.892   0.533   5.689  0.6349  0.6362 -0.7788
  126MOL   H24332993   4.764   0.788   5.704 -1.8292  0.3531  1.4826
  126MOL   H24432994   4.527   0.731   5.955  0.5030 -0.2518  0.3802
  126MOL   H24532995   4.622   0.873   5.891  1.1612 -0.6519  0.4815
  126MOL   H24632996   4.526   0.782   5.776  1.6490  2.5854 -0.7513
  126MOL   H24732997   5.017   0.747   5.866 -0.5390  0.5115 -1.0978
  126MOL   H24832998   4.964   0.591   5.935 -0.1154 -0.9363 -0.3492
  126MOL   C24932999   5.151   0.577   5.849  0.2468 -0.1390 -0.3087
  126MOL   N25033000   5.152   0.440   5.814 -0.3006  0.0362 -0.1313
  126MOL   C25133001   5.259   0.384   5.751  0.0292 -0.0187  0.6946
  126MOL   O25233002   5.367   0.437   5.731 -0.3282  0.0880 -0.3348
  126MOL   C25333003   5.251   0.236   5.719 -0.2705  0.5748  0.1427
  126MOL   C25433004   5.229   0.606   5.983  0.1955  0.2005  0.0817
  126MOL   H25533005   5.205   0.635   5.774 -1.3343 -0.3422 -1.6363
  126MOL   H25633006   5.065   0.390   5.823 -0.7701  1.0971  1.4445
  126MOL   H25733007   5.313   0.207   5.634 -1.5519 -0.2741 -0.5094
  126MOL   H25833008   5.289   0.181   5.805 -0.3325  2.3680  1.3330
  126MOL   H25933009   5.149   0.199   5.709  0.5605 -2.2313  1.5017
  126MOL   H26033010   5.228   0.711   6.010 -2.4146  0.5775 -1.3531
  126MOL   H26133011   5.184   0.542   6.059  0.8126 -0.5559 -0.1814
  126MOL   H26233012   5.334   0.579   5.974  0.8001  2.5929 -0.3204
  127MOL     C133013   4.679   1.439   3.138  0.0418 -0.6360  0.1191
  127MOL     N233014   4.629   1.522   3.029  0.0304  0.3721  0.0641
  127MOL     C333015   4.505   1.511   2.992  0.3622 -0.3832  0.1773
  127MOL     O433016   4.429   1.449   3.063 -0.9728 -0.8813 -0.1144
  127MOL     C533017   4.458   1.576   2.863 -0.0615 -0.1357 -0.8040
  127MOL     C633018   4.831   1.450   3.175 -0.1232  0.3631  0.3550
  127MOL     H733019   4.623   1.454   3.230  1.8385  0.4237  1.0852
  127MOL     H833020   4.691   1.577   2.971 -0.6675  2.1583  0.9680
  127MOL     H933021   4.454   1.685   2.871 -0.7512 -0.3524  2.2159
  127MOL    H1033022   4.523   1.546   2.781 -3.2256 -1.9231 -2.7343
  127MOL    H1133023   4.356   1.541   2.846 -0.9276  0.5607  2.6229
  127MOL    H1233024   4.895   1.450   3.087 -2.1758 -0.7718 -1.1890
  127MOL    H1333025   4.834   1.553   3.210  0.4079  0.7384 -0.7709
  127MOL    H1433026   4.656   1.338   3.106 -0.3380  0.1748 -2.3283
  127MOL    C1533027   4.888   1.363   3.286 -0.1455  0.3262 -0.3232
  127MOL    N1633028   5.025   1.395   3.312 -0.4265  0.1185  0.3908
  127MOL    C1733029   5.078   1.414   3.434 -0.1233  0.3148  0.4589
  127MOL    O1833030   5.000   1.426   3.527 -0.0678  0.3698  0.2139
  127MOL    C1933031   5.227   1.415   3.453 -0.2668  0.0491 -0.2311
  127MOL    C2033032   4.862   1.216   3.256  0.8781 -0.2367  0.6201
  127MOL    H2133033   4.825   1.381   3.373  0.2507 -0.5458  0.1575
  127MOL    H2233034   5.095   1.384   3.240  0.9225  1.6460  1.4334
  127MOL    H2333035   5.274   1.491   3.389  2.4732 -0.0698  1.5571
  127MOL    H2433036   5.249   1.441   3.556 -0.3495  0.2021 -0.2514
  127MOL    H2533037   5.259   1.315   3.424 -0.4428  0.5138 -2.1211
  127MOL    H2633038   4.870   1.172   3.355  0.1186 -0.5467  0.5451
  127MOL    H2733039   4.755   1.195   3.258  0.7358  0.5099  1.2312
  127MOL    C2833040   4.956   1.151   3.152 -0.5128 -0.4538 -0.5738
  127MOL    N2933041   4.948   1.199   3.011  0.8890 -0.3285 -0.1307
  127MOL    C3033042   4.840   1.190   2.932  0.0566  0.4505  0.2695
  127MOL    O3133043   4.735   1.148   2.968 -0.1722 -0.4612  0.5693
  127MOL    C3233044   4.848   1.257   2.791 -0.3308 -0.1892  0.3175
  127MOL    C3333045   4.930   0.996   3.150 -0.1479  0.7732  0.3910
  127MOL    H3433046   5.060   1.178   3.170 -0.7478  0.7651 -0.9735
  127MOL    H3533047   5.036   1.242   2.988  0.0595  1.6057  0.1931
  127MOL    H3633048   4.755   1.273   2.736 -0.4059 -1.5549  0.0246
  127MOL    H3733049   4.878   1.358   2.818  0.2644 -0.2452 -0.1198
  127MOL    H3833050   4.928   1.213   2.732 -0.2690  0.2668  0.0571
  127MOL    H3933051   4.824   0.978   3.164 -0.1113  0.5864  0.4306
  127MOL    H4033052   4.958   0.967   3.049 -2.1485  0.1383  0.0052
  127MOL    C4133053   5.000   0.909   3.258  0.2939  0.3653  0.2194
  127MOL    N4233054   5.145   0.940   3.267 -0.2899  0.1749 -0.1180
  127MOL    C4333055   5.213   0.981   3.376 -0.0518  0.5989 -0.3594
  127MOL    O4433056   5.151   1.018   3.475  0.1168  0.3842 -0.0453
  127MOL    C4533057   5.365   1.017   3.377  0.5670  0.4389  0.2527
  127MOL    C4633058   4.987   0.759   3.220  0.0246  0.2607 -0.3594
  127MOL    H4733059   4.951   0.922   3.355 -0.3884  2.4146 -0.3593
  127MOL    H4833060   5.204   0.932   3.185  0.9576  1.3663  0.6437
  127MOL    H4933061   5.378   1.125   3.372 -0.6490  0.6434  1.2263
  127MOL    H5033062   5.422   0.985   3.464  3.4166  1.9905 -0.9757
  127MOL    H5133063   5.415   0.979   3.287  1.0446  2.1557 -0.2178
  127MOL    H5233064   5.010   0.754   3.113 -0.2092  1.5618 -0.4780
  127MOL    H5333065   5.065   0.707   3.277 -0.5415  0.6745  0.8041
  127MOL    C5433066   4.852   0.682   3.246  0.6284  0.0193  0.1271
  127MOL    N5533067   4.746   0.718   3.157 -0.3885  0.1903  0.7389
  127MOL    C5633068   4.753   0.720   3.022  0.2834 -0.8022 -0.2843
  127MOL    O5733069   4.859   0.698   2.957  0.3755 -0.3513  0.6584
  127MOL    C5833070   4.638   0.766   2.939 -0.1826 -0.3389 -0.1658
  127MOL    C5933071   4.803   0.675   3.400  0.2767  0.5149 -0.4244
  127MOL    H6033072   4.876   0.581   3.214 -0.9782 -0.9601  1.8974
  127MOL    H6133073   4.654   0.735   3.197  0.0827  2.4724  0.9667
  127MOL    H6233074   4.645   0.721   2.840  2.0668 -1.9774  0.7130
  127MOL    H6333075   4.545   0.754   2.995  1.7099  0.1327  3.1568
  127MOL    H6433076   4.652   0.870   2.909  1.2748 -0.5380 -0.2132
  127MOL    H6533077   4.753   0.766   3.431 -0.7374  0.0376 -0.6605
  127MOL    H6633078   4.724   0.600   3.403 -0.3237  1.2164  1.6457
  127MOL    C6733079   4.907   0.643   3.510  0.5144 -0.1737  1.1281
  127MOL    N6833080   4.988   0.533   3.462 -0.0902  0.3593 -1.0845
  127MOL    C6933081   5.118   0.530   3.472  0.4360 -0.0710 -0.6000
  127MOL    O7033082   5.188   0.620   3.516  0.2571  0.4018 -0.0727
  127MOL    C7133083   5.177   0.401   3.426 -0.2207 -0.0093  0.1004
  127MOL    C7233084   4.835   0.626   3.648  0.0972  0.6929 -0.5550
  127MOL    H7333085   4.970   0.732   3.517 -0.4042  0.5667  0.1010
  127MOL    H7433086   4.943   0.448   3.430 -0.2925  0.7765 -1.9370
  127MOL    H7533087   5.096   0.330   3.444 -0.7994  0.2294 -1.4654
  127MOL    H7633088   5.209   0.398   3.321  0.2015 -0.8337  0.2446
  127MOL    H7733089   5.266   0.373   3.482  0.5535  1.5030 -0.3555
  127MOL    H7833090   4.774   0.713   3.673  0.6457  0.8967  0.0962
  127MOL    H7933091   4.762   0.547   3.631  1.3653 -1.3699  3.0423
  127MOL    C8033092   4.931   0.586   3.772  0.5084  0.3193 -0.2288
  127MOL    N8133093   4.857   0.518   3.883  0.1817 -0.3203  0.8015
  127MOL    C8233094   4.728   0.502   3.916 -0.8794 -0.1270  0.3337
  127MOL    O8333095   4.636   0.560   3.862  0.0850 -0.6437 -0.2075
  127MOL    C8433096   4.702   0.410   4.038  0.4421  0.3265  0.6951
  127MOL    C8533097   5.001   0.711   3.824 -0.3544  0.3492 -0.2437
  127MOL    H8633098   5.002   0.514   3.733 -0.9927 -1.0745 -0.4217
  127MOL    H8733099   4.920   0.493   3.958  2.9684  4.1073  0.1220
  127MOL    H8833100   4.715   0.464   4.132 -0.8487 -1.8753  2.1893
  127MOL    H8933101   4.597   0.379   4.040  1.0274 -1.7329  0.1774
  127MOL    H9033102   4.778   0.333   4.034  3.1355  2.9522 -1.0688
  127MOL    H9133103   5.021   0.770   3.734  2.1115  1.7507  1.1804
  127MOL    H9233104   4.943   0.774   3.890 -0.6473 -1.2031  1.0078
  127MOL    C9333105   5.135   0.680   3.905 -0.0056  0.2799  0.4497
  127MOL    N9433106   5.110   0.637   4.042  0.1032  0.0275 -0.4123
  127MOL    C9533107   5.088   0.517   4.087 -0.8104 -0.2008 -0.0929
  127MOL    O9633108   5.082   0.414   4.015 -0.2142 -0.0283  0.3180
  127MOL    C9733109   5.072   0.506   4.234  0.0619  0.0237 -1.1154
  127MOL    C9833110   5.219   0.812   3.905 -0.0702  0.8047 -0.1577
  127MOL    H9933111   5.187   0.602   3.850  0.8911 -1.3439  3.4475
  127MOL   H10033112   5.117   0.710   4.111  1.1510  1.6289 -2.1625
  127MOL   H10133113   4.991   0.437   4.255 -0.3657  0.7197 -0.4510
  127MOL   H10233114   5.170   0.494   4.281 -1.4282 -1.2645  1.7310
  127MOL   H10333115   5.039   0.598   4.282  1.3790 -0.0737  0.0235
  127MOL   H10433116   5.163   0.885   3.964 -1.1363  0.6706 -0.9949
  127MOL   H10533117   5.306   0.793   3.968 -0.5626 -1.5235 -0.1333
  127MOL   C10633118   5.263   0.878   3.773 -0.1302  0.9470  0.3516
  127MOL   N10733119   5.329   0.785   3.687 -0.2334  0.1269  0.3935
  127MOL   C10833120   5.448   0.726   3.701 -0.1252 -0.2880 -0.3741
  127MOL   O10933121   5.516   0.733   3.808 -0.0096 -0.0971  0.1252
  127MOL   C11033122   5.489   0.626   3.595  0.9891  0.3512  0.8876
  127MOL   C11133123   5.335   1.008   3.789 -1.0773 -0.0766 -0.2124
  127MOL   H11233124   5.168   0.889   3.720 -0.8497 -2.5895  0.7624
  127MOL   H11333125   5.288   0.762   3.597  3.4017 -0.0137 -1.3183
  127MOL   H11433126   5.440   0.626   3.497  1.2318  0.7442  0.7651
  127MOL   H11533127   5.596   0.620   3.577  0.8388 -1.1716  0.3553
  127MOL   H11633128   5.462   0.525   3.626  0.4724  0.2225  0.0316
  127MOL   H11733129   5.427   0.999   3.846  0.5503 -2.7743 -3.1359
  127MOL   H11833130   5.377   1.053   3.698 -2.9295  0.4480 -0.8333
  127MOL   C11933131   5.243   1.118   3.851 -0.6402 -0.4789 -0.2351
  127MOL   N12033132   5.129   1.139   3.760 -0.1443 -0.0456 -0.3497
  127MOL   C12133133   5.002   1.112   3.796  0.2723  0.1699 -0.2777
  127MOL   O12233134   4.963   1.087   3.909 -0.3298 -0.5307  0.6221
  127MOL   C12333135   4.895   1.089   3.685  0.1050 -0.0189 -1.2307
  127MOL   C12433136   5.311   1.256   3.874 -0.3307  0.5788 -0.3221
  127MOL   H12533137   5.203   1.088   3.948 -1.1927 -3.8191 -1.4325
  127MOL   H12633138   5.152   1.167   3.665 -1.0524 -1.1416 -0.9157
  127MOL   H12733139   4.797   1.105   3.729  0.6917 -2.3002  1.0159
  127MOL   H12833140   4.910   1.155   3.599  1.7312  1.7417  0.3902
  127MOL   H12933141   4.896   0.981   3.668  1.7696  0.0404 -1.5931
  127MOL   H13033142   5.353   1.284   3.777  3.5684 -1.2127  0.7987
  127MOL   H13133143   5.223   1.310   3.908 -1.3509 -1.8420  1.0235
  127MOL   C13233144   5.419   1.268   3.984 -0.7538  0.1997  0.2350
  127MOL   N13333145   5.363   1.229   4.119 -0.0437 -0.0079  0.2732
  127MOL   C13433146   5.410   1.128   4.190 -1.2103  0.1174 -1.0631
  127MOL   O13533147   5.501   1.048   4.148  0.0431  0.1601 -0.0187
  127MOL   C13633148   5.359   1.121   4.334 -0.3018  0.1734 -0.5507
  127MOL   C13733149   5.474   1.413   3.997  0.0962 -0.2511  0.2853
  127MOL   H13833150   5.498   1.198   3.959  0.2293  0.7897  1.6547
  127MOL   H13933151   5.282   1.278   4.154  0.1707  0.5345  0.0227
  127MOL   H14033152   5.252   1.141   4.338 -0.4319 -0.6454 -0.0137
  127MOL   H14133153   5.366   1.019   4.370  0.5140  0.2444 -0.5104
  127MOL   H14233154   5.429   1.179   4.395 -0.2474  1.0795 -1.4538
  127MOL   H14333155   5.483   1.462   3.899 -0.7857  1.2502  0.9374
  127MOL   H14433156   5.393   1.469   4.043 -2.0834 -1.4643 -1.8852
  127MOL   C14533157   5.605   1.428   4.089 -0.2673  0.2687  0.0641
  127MOL   N14633158   5.605   1.565   4.137 -0.2547  0.4392  0.1923
  127MOL   C14733159   5.635   1.595   4.266 -0.0244 -0.2614 -0.3029
  127MOL   O14833160   5.668   1.516   4.353  0.1256 -0.4986 -0.3053
  127MOL   C14933161   5.614   1.744   4.311  0.1534  0.2152  0.0990
  127MOL   C15033162   5.740   1.401   4.016  0.5163 -0.7102  0.2685
  127MOL   H15133163   5.594   1.358   4.172 -0.4343  0.0498 -0.1447
  127MOL   H15233164   5.584   1.637   4.069  3.3064  1.5120  0.1267
  127MOL   H15333165   5.510   1.775   4.301  0.3294  0.5569 -0.6389
  127MOL   H15433166   5.650   1.747   4.414  3.1138  2.7548 -0.9436
  127MOL   H15533167   5.672   1.807   4.244  2.1656 -0.2119  1.3934
  127MOL   H15633168   5.756   1.454   3.921 -2.9587 -1.6188 -0.8961
  127MOL   H15733169   5.818   1.445   4.079 -0.0112  0.7633 -0.0866
  127MOL   C15833170   5.774   1.242   4.001 -0.3642 -0.1431  0.1807
  127MOL   N15933171   5.750   1.166   4.121 -0.3823 -0.1221  1.6834
  127MOL   C16033172   5.802   1.195   4.243  0.9343  0.1916  0.0594
  127MOL   O16133173   5.906   1.264   4.256 -0.2283  0.4720 -0.5098
  127MOL   C16233174   5.730   1.145   4.368 -0.2132  0.2594  0.2768
  127MOL   C16333175   5.913   1.224   3.938 -0.0639  0.7926  0.5346
  127MOL   H16433176   5.705   1.185   3.938  1.0063 -1.7463  0.0873
  127MOL   H16533177   5.661   1.119   4.115  0.6954 -1.8192 -3.6680
  127MOL   H16633178   5.791   1.132   4.457  0.7591  1.4167 -0.1864
  127MOL   H16733179   5.654   1.219   4.392  1.1589  1.4554  1.0533
  127MOL   H16833180   5.667   1.057   4.357  1.6006 -1.1277  0.8772
  127MOL   H16933181   5.944   1.301   3.867  0.5755 -0.5931 -0.6949
  127MOL   H17033182   5.984   1.235   4.020 -0.9487  1.9727  1.1521
  127MOL   C17133183   5.946   1.089   3.883  0.1679  0.8934 -0.7462
  127MOL   N17233184   6.089   1.067   3.872 -0.1992 -0.5235 -0.2522
  127MOL   C17333185   6.164   0.973   3.930 -0.0716  0.4337 -0.4446
  127MOL   O17433186   6.107   0.883   3.991 -0.6944 -0.2181 -0.3233
  127MOL   C17533187   6.315   0.989   3.931 -0.4795  0.8881 -0.2173
  127MOL   C17633188   5.887   1.075   3.739  0.0560  0.1098  0.4062
  127MOL   H17733189   5.897   1.016   3.947  0.4146  1.4733  0.1209
  127MOL   H17833190   6.138   1.134   3.816 -2.1913 -0.1426 -1.6030
  127MOL   H17933191   6.323   1.078   3.994 -1.6515 -1.2384  3.0623
  127MOL   H18033192   6.368   0.910   3.984  0.9285  3.0789  1.7277
  127MOL   H18133193   6.344   1.005   3.827 -0.6814 -0.3144 -0.4578
  127MOL   H18233194   5.783   1.107   3.742  0.0668  0.0281  2.7827
  127MOL   H18333195   5.943   1.145   3.677 -1.6685  1.0383 -0.1265
  127MOL   C18433196   5.907   0.935   3.684  0.1616 -0.0648 -1.2861
  127MOL   N18533197   5.887   0.939   3.537 -0.3905 -0.1154  0.5465
  127MOL   C18633198   5.805   1.005   3.459  0.3128  0.5195  0.5886
  127MOL   O18733199   5.727   1.089   3.505 -0.7950 -0.0254  0.0396
  127MOL   C18833200   5.807   0.962   3.314  0.0422 -0.1331 -0.3226
  127MOL   C18933201   5.807   0.832   3.742 -0.1227  0.8879  0.2772
  127MOL   H19033202   6.003   0.891   3.709  0.0105  0.5430  0.4329
  127MOL   H19133203   5.946   0.871   3.489 -1.4115 -0.3954 -0.3230
  127MOL   H19233204   5.715   0.908   3.293 -0.6578  0.4520  1.1434
  127MOL   H19333205   5.818   1.054   3.258  1.3555 -1.0457 -1.5899
  127MOL   H19433206   5.893   0.904   3.279  0.8190  2.8568 -3.6077
  127MOL   H19533207   5.759   0.872   3.831 -2.0538 -1.6960  0.4447
  127MOL   H19633208   5.719   0.830   3.678  1.5040  0.1089 -2.0017
  127MOL   C19733209   5.849   0.685   3.769  0.1089  0.3867 -0.0748
  127MOL   N19833210   5.932   0.679   3.886  0.4919 -0.3381 -0.5703
  127MOL   C19933211   5.912   0.587   3.983 -0.5266 -0.0833 -0.6400
  127MOL   O20033212   5.851   0.483   3.961 -0.2383 -0.6141 -0.1440
  127MOL   C20133213   5.973   0.602   4.124 -0.3319 -0.1395 -0.1061
  127MOL   C20233214   5.915   0.621   3.643  0.1185 -0.7718  0.2341
  127MOL   H20333215   5.753   0.636   3.786  0.1197  1.2425  2.6617
  127MOL   H20433216   5.983   0.761   3.917  1.0923 -0.6883 -0.6318
  127MOL   H20533217   5.931   0.690   4.174 -0.3089 -0.1933  0.0091
  127MOL   H20633218   5.960   0.515   4.188  1.8989 -0.6754 -0.3145
  127MOL   H20733219   6.081   0.610   4.109 -0.2610  1.5125  1.1106
  127MOL   H20833220   5.853   0.652   3.559 -2.6783 -1.7019  1.8958
  127MOL   H20933221   6.009   0.675   3.624 -0.8817 -0.2668 -3.5988
  127MOL   C21033222   5.923   0.467   3.642 -0.6696 -0.3963  0.4091
  127MOL   N21133223   5.995   0.422   3.520  1.2615 -0.3528 -0.4960
  127MOL   C21233224   6.100   0.347   3.505  0.4179 -0.0758  0.3008
  127MOL   O21333225   6.150   0.280   3.591 -0.2810 -0.3885 -0.6113
  127MOL   C21433226   6.149   0.331   3.364 -0.2339 -0.4872  0.0009
  127MOL   C21533227   5.782   0.391   3.655  0.1507 -0.1613  0.3687
  127MOL   H21633228   5.991   0.440   3.722  1.5043  0.0988 -1.2236
  127MOL   H21733229   5.961   0.463   3.434  0.4146  1.6412  0.7687
  127MOL   H21833230   6.075   0.362   3.290 -1.1967  0.1943  1.2404
  127MOL   H21933231   6.243   0.386   3.352  0.1800 -0.7896  1.7486
  127MOL   H22033232   6.174   0.227   3.341  2.7977  0.0661  0.5834
  127MOL   H22133233   5.723   0.414   3.743  2.5999  2.6582  1.3856
  127MOL   H22233234   5.718   0.437   3.580  1.5872 -1.5146 -1.7596
  127MOL   C22333235   5.787   0.239   3.636  0.0337 -0.1291  0.2313
  127MOL   N22433236   5.665   0.191   3.576 -0.3150  0.0077  0.1379
  127MOL   C22533237   5.654   0.137   3.457  0.4169 -0.1350  0.5254
  127MOL   O22633238   5.750   0.124   3.384  0.6012  0.2532 -0.5854
  127MOL   C22733239   5.510   0.089   3.417 -0.6822 -0.0446  0.1011
  127MOL   C22833240   5.817   0.176   3.772 -0.2932  0.6895 -0.5109
  127MOL   H22933241   5.868   0.212   3.569 -0.1130 -0.0231  0.0078
  127MOL   H23033242   5.583   0.211   3.630  0.8908  1.1430  1.6044
  127MOL   H23133243   5.448   0.097   3.506 -0.1813 -0.7732  0.5271
  127MOL   H23233244   5.464   0.151   3.340  0.3010  0.0193 -0.4355
  127MOL   H23333245   5.510   7.823   3.394  1.4279  0.1025 -0.7299
  127MOL   H23433246   5.896   0.221   3.831  0.5955 -2.5218  0.8704
  127MOL   H23533247   5.730   0.195   3.836 -1.3022 -1.1038 -1.3010
  127MOL   C23633248   5.854   0.018   3.768 -0.7971  0.6487 -0.4157
  127MOL   N23733249   5.732   7.782   3.788 -0.7624 -0.3066 -0.2534
  127MOL   C23833250   5.691   7.670   3.719 -0.1315 -0.4435  0.3340
  127MOL   O23933251   5.756   7.630   3.623 -0.7515  0.0208  0.2439
  127MOL   C24033252   5.560   7.599   3.758 -0.3877 -0.4112  0.5671
  127MOL   C24133253   5.957   7.811   3.881 -0.4859 -0.3122  0.1190
  127MOL   H24233254   5.897   7.832   3.671  0.7556 -0.0783  0.4478
  127MOL   H24333255   5.674   7.793   3.870 -0.5776 -0.8567 -0.0479
  127MOL   H24433256   5.479   7.666   3.731 -0.6762 -1.0084 -0.0760
  127MOL   H24533257   5.549   7.499   3.715  0.5282 -0.3158  0.0877
  127MOL   H24633258   5.558   7.569   3.863  1.4205 -3.4765 -0.1918
  127MOL   H24733259   5.911   7.836   3.977 -1.2726  0.4015 -0.4328
  127MOL   H24833260   5.967   7.702   3.884  0.0295 -0.2410  1.1715
  127MOL   C24933261   6.099   0.035   3.881 -0.2548 -0.2782  0.6548
  127MOL   N25033262   6.161   0.048   3.751  0.6966 -0.0972 -0.2569
  127MOL   C25133263   6.213   7.788   3.680 -0.1526  0.9166 -0.3598
  127MOL   O25233264   6.201   7.674   3.719 -0.8474  0.4997  0.0182
  127MOL   C25333265   6.292   7.817   3.554  0.0368 -0.6598  0.4765
  127MOL   C25433266   6.200   7.825   3.988 -0.1422 -0.1095 -0.1714
  127MOL   H25533267   6.090   0.142   3.900 -0.6748  0.3721 -2.8264
  127MOL   H25633268   6.171   0.141   3.712 -0.4381  0.5283  0.9236
  127MOL   H25733269   6.355   7.740   3.508  1.8786 -0.5657  2.6990
  127MOL   H25833270   6.224   0.011   3.476 -3.3276 -2.3424  2.5592
  127MOL   H25933271   6.357   0.061   3.579  0.2840 -0.3713 -1.0874
  127MOL   H26033272   6.217   7.718   3.974  0.1559  0.0629 -1.2027
  127MOL   H26133273   6.288   0.049   3.989 -0.1248 -0.1410  1.6892
  127MOL   H26233274   6.147   0.002   4.081  0.1905  1.2382 -0.2143
  128MOL     C133275   2.169   3.170   4.382 -0.1163 -0.4662 -0.1918
  128MOL     N233276   2.098   3.245   4.278 -0.2785 -0.7956  0.2779
  128MOL     C333277   2.082   3.204   4.152  0.8139 -0.2277 -0.6854
  128MOL     O433278   2.126   3.096   4.120 -0.5989  0.4529 -0.8167
  128MOL     C533279   2.015   3.296   4.048 -0.6914  0.2419 -0.5249
  128MOL     C633280   2.289   3.236   4.446 -0.6824  0.5445 -0.1896
  128MOL     H733281   2.093   3.154   4.459 -1.8375  1.4194 -1.4337
  128MOL     H833282   2.065   3.339   4.295  2.3390  0.2028  0.0534
  128MOL     H933283   1.916   3.326   4.081 -0.4484  0.4793  0.0078
  128MOL    H1033284   2.072   3.388   4.033 -1.1445  0.4087 -1.2516
  128MOL    H1133285   2.003   3.248   3.951 -1.5212  1.1857 -0.8916
  128MOL    H1233286   2.359   3.264   4.367  0.5843  0.2004  0.8065
  128MOL    H1333287   2.262   3.334   4.485 -1.1055  0.8455 -1.2027
  128MOL    H1433288   2.190   3.073   4.337  0.2364 -1.0383  1.1839
  128MOL    C1533289   2.356   3.139   4.551 -0.2985 -0.5205 -0.1621
  128MOL    N1633290   2.453   3.212   4.626 -0.1226 -0.1673 -0.2512
  128MOL    C1733291   2.435   3.313   4.706 -0.2976 -0.1791  0.3345
  128MOL    O1833292   2.326   3.363   4.723 -0.6260 -0.3660  0.4776
  128MOL    C1933293   2.553   3.370   4.781 -0.0071 -0.4169  0.2723
  128MOL    C2033294   2.423   3.012   4.482  0.4319 -0.1171 -1.0245
  128MOL    H2133295   2.277   3.102   4.616 -1.4420 -0.1456 -1.3187
  128MOL    H2233296   2.549   3.181   4.619 -0.9137 -2.0998 -3.6487
  128MOL    H2333297   2.627   3.293   4.805  0.8953 -0.8099 -3.4387
  128MOL    H2433298   2.608   3.437   4.714 -0.7538 -0.4750 -0.4025
  128MOL    H2533299   2.542   3.425   4.874 -0.4670 -1.7044  0.9860
  128MOL    H2633300   2.361   2.971   4.403  0.8554 -1.6645 -0.5571
  128MOL    H2733301   2.509   3.066   4.442  0.3153  1.1692  0.3878
  128MOL    C2833302   2.456   2.890   4.575 -0.0716 -0.3522  0.6873
  128MOL    N2933303   2.477   2.926   4.715  0.4104  0.2101 -0.0010
  128MOL    C3033304   2.394   2.931   4.817 -0.0999  0.0818 -0.1327
  128MOL    O3133305   2.269   2.917   4.813 -0.1296 -0.1648  0.2249
  128MOL    C3233306   2.464   2.957   4.954  0.4622 -0.2391  0.4009
  128MOL    C3333307   2.574   2.811   4.518  0.4855 -0.4012 -0.2047
  128MOL    H3433308   2.372   2.820   4.574  0.6495 -1.2252  0.8515
  128MOL    H3533309   2.572   2.935   4.751 -0.3904 -1.4232  2.6544
  128MOL    H3633310   2.430   2.888   5.032  1.3074 -1.8052 -0.5831
  128MOL    H3733311   2.573   2.954   4.953  0.4655  0.1755 -0.5726
  128MOL    H3833312   2.437   3.061   4.975 -1.5595 -0.7477  0.4728
  128MOL    H3933313   2.573   2.825   4.410 -0.3957  1.3078  0.0086
  128MOL    H4033314   2.658   2.870   4.556  0.2911 -0.1748 -0.1278
  128MOL    C4133315   2.589   2.664   4.576 -0.2044  0.0918 -0.4441
  128MOL    N4233316   2.729   2.629   4.566 -0.2178  0.0860  0.5666
  128MOL    C4333317   2.823   2.679   4.644  0.1323 -0.4348  0.1594
  128MOL    O4433318   2.800   2.749   4.742 -0.2426  0.3340  0.3784
  128MOL    C4533319   2.974   2.656   4.611 -0.1122  0.9852 -0.1046
  128MOL    C4633320   2.491   2.573   4.495 -0.1551 -0.0851 -0.0747
  128MOL    H4733321   2.569   2.659   4.683 -0.9236 -0.5696 -0.6047
  128MOL    H4833322   2.755   2.566   4.492 -2.5579  1.7282 -1.7415
  128MOL    H4933323   2.988   2.653   4.503  0.9709  0.6949  0.0321
  128MOL    H5033324   3.046   2.721   4.661  1.8513 -0.1890 -1.3284
  128MOL    H5133325   2.992   2.553   4.642  3.5594  1.6333  0.1673
  128MOL    H5233326   2.396   2.626   4.486 -1.1890 -1.5379  1.8446
  128MOL    H5333327   2.528   2.560   4.393  0.1336  0.4059 -0.0312
  128MOL    C5433328   2.470   2.427   4.552  0.3400 -0.0291  1.0580
  128MOL    N5533329   2.602   2.358   4.568  0.6805 -0.3029  0.1719
  128MOL    C5633330   2.655   2.307   4.674 -0.1428 -0.6160 -0.1479
  128MOL    O5733331   2.610   2.332   4.785 -0.6035  0.1351 -0.0133
  128MOL    C5833332   2.778   2.234   4.652  0.8336 -0.5065  0.0807
  128MOL    C5933333   2.383   2.353   4.449  0.3296  0.8329  0.2399
  128MOL    H6033334   2.424   2.415   4.650 -1.3113  0.6694  0.3666
  128MOL    H6133335   2.644   2.340   4.478 -0.5830  1.2941 -0.7727
  128MOL    H6233336   2.869   2.288   4.679  0.5927 -0.6093  1.1302
  128MOL    H6333337   2.776   2.138   4.703 -0.6143 -0.8380 -0.5968
  128MOL    H6433338   2.788   2.205   4.547 -2.1536 -1.5876  0.0578
  128MOL    H6533339   2.296   2.415   4.428  0.2234 -0.2208 -2.6214
  128MOL    H6633340   2.434   2.346   4.353 -0.6201 -0.8962 -0.1719
  128MOL    C6733341   2.352   2.209   4.495 -0.2763  0.3036 -0.7776
  128MOL    N6833342   2.315   2.129   4.378 -0.0616 -0.6708  0.7935
  128MOL    C6933343   2.396   2.090   4.281 -0.7004 -0.4917 -0.6277
  128MOL    O7033344   2.518   2.104   4.286 -1.4287  0.1664  0.4549
  128MOL    C7133345   2.334   2.039   4.155 -0.4519 -0.0230  0.1756
  128MOL    C7233346   2.238   2.205   4.602 -0.3727  0.0485 -0.1854
  128MOL    H7333347   2.439   2.161   4.540  1.0225  0.9195 -2.5505
  128MOL    H7433348   2.217   2.136   4.353 -0.1430  1.0769  1.4836
  128MOL    H7533349   2.269   1.954   4.177 -0.3660  0.0006  0.5246
  128MOL    H7633350   2.281   2.120   4.105  1.9669  1.8468  0.5588
  128MOL    H7733351   2.415   2.003   4.092  1.0021 -0.6829  2.3658
  128MOL    H7833352   2.263   2.272   4.684 -0.8863  0.5657 -0.4536
  128MOL    H7933353   2.145   2.249   4.567 -0.0273  2.1610  1.4440
  128MOL    C8033354   2.196   2.070   4.664  0.3025 -0.4398  0.6404
  128MOL    N8133355   2.066   2.086   4.733  0.1094  0.4560 -0.5539
  128MOL    C8233356   1.949   2.030   4.701  0.7396 -0.3051 -1.0056
  128MOL    O8333357   1.941   1.951   4.601  0.2781 -0.6698 -0.2292
  128MOL    C8433358   1.828   2.045   4.800 -0.4682  0.2172 -0.0878
  128MOL    C8533359   2.300   2.020   4.764 -0.0813  0.5553  0.7976
  128MOL    H8633360   2.176   1.998   4.584 -0.8425  0.9195 -0.3298
  128MOL    H8733361   2.062   2.147   4.813 -1.9998 -1.0041  0.4965
  128MOL    H8833362   1.825   1.956   4.864 -1.0844  0.6038  0.4225
  128MOL    H8933363   1.842   2.121   4.877  1.7514 -0.7090  0.4680
  128MOL    H9033364   1.747   2.066   4.730 -0.2668 -1.8658 -0.9890
  128MOL    H9133365   2.394   2.020   4.708 -1.3695  0.0009 -1.3977
  128MOL    H9233366   2.307   2.100   4.839 -1.6113  1.1957  0.2793
  128MOL    C9333367   2.274   1.885   4.834 -0.0229 -0.3656  0.2102
  128MOL    N9433368   2.396   1.861   4.910  0.1523  0.6214  0.0090
  128MOL    C9533369   2.404   1.842   5.036 -0.5373 -0.6972  0.0830
  128MOL    O9633370   2.308   1.810   5.105  0.1437  0.1437  0.2708
  128MOL    C9733371   2.540   1.848   5.100  0.4512  0.2030  0.1324
  128MOL    C9833372   2.231   1.771   4.736 -0.6100  0.2020 -0.4419
  128MOL    H9933373   2.184   1.901   4.895 -0.4709  0.8572 -0.7459
  128MOL   H10033374   2.478   1.869   4.851  1.0033  0.5623  1.1711
  128MOL   H10133375   2.609   1.788   5.040 -0.2534 -0.2082 -0.2877
  128MOL   H10233376   2.560   1.955   5.100  0.6082  0.1928  2.5781
  128MOL   H10333377   2.541   1.815   5.204 -0.3948 -0.4756 -0.0587
  128MOL   H10433378   2.136   1.809   4.697 -1.3947  0.2523  1.4532
  128MOL   H10533379   2.289   1.780   4.644 -0.6507  0.0660 -0.4828
  128MOL   C10633380   2.224   1.621   4.779  0.6704 -0.3555 -0.0161
  128MOL   N10733381   2.163   1.623   4.910  0.2870 -0.3242  0.3996
  128MOL   C10833382   2.073   1.547   4.973 -0.0297  0.4238  0.3191
  128MOL   O10933383   2.024   1.444   4.922  0.0839  0.2950  0.0979
  128MOL   C11033384   2.025   1.607   5.106 -0.4960  0.1308  0.7944
  128MOL   C11133385   2.360   1.543   4.796  0.1807 -0.8187  0.6183
  128MOL   H11233386   2.158   1.560   4.717  1.1515 -2.6731  1.6783
  128MOL   H11333387   2.199   1.698   4.968 -2.2695  3.3836 -2.5474
  128MOL   H11433388   1.938   1.554   5.143 -1.4912  0.6813 -0.7061
  128MOL   H11533389   2.099   1.594   5.185  1.8350  0.5910 -1.2364
  128MOL   H11633390   2.008   1.714   5.091  1.2953  0.4271  0.6680
  128MOL   H11733391   2.432   1.612   4.839 -1.3889  0.4751  1.2282
  128MOL   H11833392   2.360   1.465   4.872  0.4782 -0.6113  0.8337
  128MOL   C11933393   2.405   1.476   4.656 -0.7572 -0.2820  0.1673
  128MOL   N12033394   2.322   1.354   4.629 -0.2584 -0.3680 -0.1221
  128MOL   C12133395   2.306   1.284   4.518 -0.2030 -0.3097  0.1550
  128MOL   O12233396   2.360   1.300   4.409  0.2823  0.2516  0.1733
  128MOL   C12333397   2.222   1.167   4.534 -0.5723  0.2716  0.2507
  128MOL   C12433398   2.555   1.446   4.646 -0.1308  0.3313 -0.5883
  128MOL   H12533399   2.379   1.540   4.571 -0.5408 -0.1901  0.1690
  128MOL   H12633400   2.270   1.330   4.713  0.3396  1.9823  0.9412
  128MOL   H12733401   2.239   1.107   4.624  0.8844  2.2487  1.3296
  128MOL   H12833402   2.115   1.187   4.532 -0.4732  0.8960  0.9241
  128MOL   H12933403   2.236   1.102   4.448  1.0691  0.7237  0.1673
  128MOL   H13033404   2.573   1.372   4.724 -0.8728 -0.1022 -0.8189
  128MOL   H13133405   2.580   1.416   4.544 -1.2663  3.2774 -1.7738
  128MOL   C13233406   2.653   1.558   4.674 -0.0965 -0.2414  0.5810
  128MOL   N13333407   2.621   1.665   4.573  0.0628 -0.1400 -0.7099
  128MOL   C13433408   2.612   1.793   4.616 -0.7684  0.5826 -0.4408
  128MOL   O13533409   2.623   1.823   4.735  0.1976 -0.4597  0.4010
  128MOL   C13633410   2.605   1.897   4.510  0.2147 -0.2698 -0.5752
  128MOL   C13733411   2.806   1.517   4.675 -0.2468 -0.2134  1.0386
  128MOL   H13833412   2.642   1.593   4.777 -1.5558 -3.6344  1.6605
  128MOL   H13933413   2.618   1.660   4.472  2.0687 -3.6855 -0.7090
  128MOL   H14033414   2.509   1.948   4.523  0.8051  0.7373 -0.1462
  128MOL   H14133415   2.687   1.966   4.524  1.3214 -1.5815 -0.5193
  128MOL   H14233416   2.623   1.856   4.411  2.9386  1.1240 -0.6995
  128MOL   H14333417   2.835   1.439   4.746 -0.1647  0.3651  1.6360
  128MOL   H14433418   2.820   1.465   4.580 -0.1218  2.1309 -0.2686
  128MOL   C14533419   2.905   1.631   4.698  0.3139 -0.0082 -0.5143
  128MOL   N14633420   3.038   1.579   4.662 -0.3924 -0.0592 -0.6383
  128MOL   C14733421   3.109   1.611   4.551  0.4820 -0.0668 -0.6409
  128MOL   O14833422   3.088   1.703   4.471 -0.3983 -0.0485  1.2350
  128MOL   C14933423   3.228   1.516   4.527  0.1659  0.1617  0.2911
  128MOL   C15033424   2.917   1.686   4.840  0.4387  0.2129 -0.1297
  128MOL   H15133425   2.879   1.713   4.631  2.4520 -0.4181 -1.8968
  128MOL   H15233426   3.054   1.490   4.708  0.6482 -0.2394 -1.3275
  128MOL   H15333427   3.217   1.478   4.425  1.4103  1.6912 -0.4218
  128MOL   H15433428   3.324   1.561   4.551  0.7416 -0.1154 -1.4398
  128MOL   H15533429   3.214   1.426   4.588  2.1672  0.4547  1.2171
  128MOL   H15633430   2.828   1.745   4.864  0.7975  0.3869  0.7963
  128MOL   H15733431   2.939   1.604   4.908 -0.0265 -1.6139 -2.1089
  128MOL   C15833432   3.042   1.782   4.865  0.4558  0.2283 -0.3833
  128MOL   N15933433   3.033   1.825   5.005 -0.5243  0.8310  0.0071
  128MOL   C16033434   3.100   1.778   5.115  0.0541  0.0400 -0.5829
  128MOL   O16133435   3.177   1.685   5.120 -0.4392 -0.0359 -0.4884
  128MOL   C16233436   3.052   1.846   5.247  0.5745  0.1635  0.9224
  128MOL   C16333437   3.049   1.902   4.770 -0.7389 -0.6511 -0.2579
  128MOL   H16433438   3.128   1.718   4.848 -0.3222 -1.3196  1.3445
  128MOL   H16533439   2.996   1.919   5.004 -0.1653  0.9744 -0.3813
  128MOL   H16633440   3.135   1.835   5.317  0.8494 -1.2942  0.3956
  128MOL   H16733441   3.028   1.950   5.224 -1.4912 -0.3967  0.4771
  128MOL   H16833442   2.973   1.789   5.297  0.2269 -0.4573 -0.3226
  128MOL   H16933443   3.028   1.868   4.669  0.7392 -1.5533 -0.2845
  128MOL   H17033444   2.971   1.974   4.792 -1.7977 -1.9746  0.3869
  128MOL   C17133445   3.181   1.986   4.782 -0.0436  0.0471 -0.1227
  128MOL   N17233446   3.208   2.055   4.908 -0.1355 -0.0944  0.1556
  128MOL   C17333447   3.313   2.026   4.982  0.6282 -0.5535 -0.1633
  128MOL   O17433448   3.408   1.961   4.942 -0.1634  0.0632  0.3074
  128MOL   C17533449   3.306   2.085   5.130  0.7146  0.3980  0.2154
  128MOL   C17633450   3.181   2.106   4.677 -0.6028 -0.2008  0.0974
  128MOL   H17733451   3.265   1.924   4.751 -1.2352 -0.6610 -2.0062
  128MOL   H17833452   3.127   2.091   4.956  1.7200 -1.5030  4.5597
  128MOL   H17933453   3.215   2.138   5.159  0.6556  0.9946 -1.0468
  128MOL   H18033454   3.322   2.001   5.197 -0.9453 -0.2808 -0.2263
  128MOL   H18133455   3.392   2.152   5.131  1.6139 -0.6460 -2.4489
  128MOL   H18233456   3.095   2.171   4.697  0.5461  1.1708  0.6592
  128MOL   H18333457   3.271   2.163   4.699  0.1667 -0.8717 -1.2645
  128MOL   C18433458   3.167   2.061   4.525 -0.0957  0.6763  0.2746
  128MOL   N18533459   3.250   1.939   4.498  0.3415 -0.2567  0.0469
  128MOL   C18633460   3.382   1.922   4.480 -0.3119  1.3887 -0.3184
  128MOL   O18733461   3.464   2.013   4.481 -0.6816 -0.2959 -0.0540
  128MOL   C18833462   3.436   1.783   4.454  0.6635  0.2090 -0.0918
  128MOL   C18933463   3.212   2.182   4.443 -0.3982 -0.3921 -0.3601
  128MOL   H19033464   3.061   2.052   4.505 -0.3335 -0.3819  1.9066
  128MOL   H19133465   3.199   1.852   4.490  0.4447 -0.3901  0.7354
  128MOL   H19233466   3.536   1.776   4.412  1.2028 -2.0827  1.4382
  128MOL   H19333467   3.450   1.741   4.554 -2.7791 -0.7293  0.0375
  128MOL   H19433468   3.365   1.725   4.396  0.6031  0.7023 -0.5153
  128MOL   H19533469   3.304   2.227   4.480 -0.8365  1.0553 -0.9985
  128MOL   H19633470   3.248   2.152   4.344 -1.8626  0.8660 -1.2930
  128MOL   C19733471   3.118   2.314   4.417 -0.9271  1.2317 -0.8194
  128MOL   N19833472   3.008   2.270   4.344  0.4286  0.1161 -0.0137
  128MOL   C19933473   2.894   2.338   4.323  0.1021 -0.1429  0.0304
  128MOL   O20033474   2.854   2.423   4.409 -0.2883 -0.2283  0.2369
  128MOL   C20133475   2.813   2.305   4.199 -0.1572  0.3561  0.2100
  128MOL   C20233476   3.193   2.423   4.345 -0.1223 -0.2714  0.8855
  128MOL   H20333477   3.078   2.351   4.511 -0.4830 -0.5595  0.0893
  128MOL   H20433478   3.027   2.191   4.284 -2.0291 -0.5896  0.0982
  128MOL   H20533479   2.711   2.295   4.235 -0.6061  1.6644 -0.6404
  128MOL   H20633480   2.811   2.388   4.128 -1.3406  1.5569  1.6095
  128MOL   H20733481   2.849   2.217   4.146 -3.5609 -1.1410  0.2775
  128MOL   H20833482   3.131   2.509   4.366 -3.2074 -2.0421 -0.6115
  128MOL   H20933483   3.289   2.437   4.396 -0.0430 -0.6301  0.8407
  128MOL   C21033484   3.225   2.424   4.191 -0.4513 -0.7233 -0.4903
  128MOL   N21133485   3.281   2.297   4.141 -0.2198 -0.4345  0.2466
  128MOL   C21233486   3.207   2.193   4.092 -0.1413 -0.4907 -0.1543
  128MOL   O21333487   3.088   2.208   4.074  0.1972 -0.3867 -0.0784
  128MOL   C21433488   3.281   2.069   4.052  0.5468  0.0395  0.2094
  128MOL   C21533489   3.306   2.549   4.147 -0.2128  0.5003 -0.4161
  128MOL   H21633490   3.125   2.439   4.150 -0.1605  0.6403 -0.7252
  128MOL   H21733491   3.376   2.274   4.168 -0.2382 -1.0834 -0.2230
  128MOL   H21833492   3.217   2.004   3.992  0.4798 -0.6241  0.9881
  128MOL   H21933493   3.365   2.102   3.993 -0.5476  0.8120 -0.9334
  128MOL   H22033494   3.311   2.001   4.133  0.6699 -0.5752 -0.3506
  128MOL   H22133495   3.344   2.603   4.234  1.7175  1.2322 -1.6673
  128MOL   H22233496   3.388   2.503   4.091  0.1021  0.2976  0.2040
  128MOL   C22333497   3.220   2.649   4.068 -0.3092 -0.3405  0.6258
  128MOL   N22433498   3.095   2.685   4.132 -0.7425 -0.3993 -0.0487
  128MOL   C22533499   3.073   2.779   4.223 -0.2557 -0.0999 -0.6393
  128MOL   O22633500   3.168   2.845   4.277 -0.0083  0.1208  0.2291
  128MOL   C22733501   2.928   2.803   4.271  0.2119  0.0349  0.1669
  128MOL   C22833502   3.199   2.576   3.934 -0.2068 -0.4962 -0.0491
  128MOL   H22933503   3.281   2.738   4.053 -0.7848  0.0882  1.2275
  128MOL   H23033504   3.016   2.629   4.105 -1.0102  0.5343 -1.2728
  128MOL   H23133505   2.874   2.709   4.264  0.4439 -0.0133 -0.9807
  128MOL   H23233506   2.921   2.836   4.375 -1.9040  1.0264 -0.2704
  128MOL   H23333507   2.881   2.881   4.212  1.9184  1.0961  0.1633
  128MOL   H23433508   3.298   2.551   3.896  0.0665 -0.7567  0.8362
  128MOL   H23533509   3.131   2.492   3.943  0.0855 -0.8719 -1.2639
  128MOL   C23633510   3.134   2.663   3.818 -0.3200 -0.2452  0.4355
  128MOL   N23733511   3.022   2.588   3.763 -0.8390 -0.0445  0.1208
  128MOL   C23833512   2.909   2.554   3.822  0.2885 -0.2607 -0.6780
  128MOL   O23933513   2.880   2.586   3.937 -0.0966 -0.2545 -0.0218
  128MOL   C24033514   2.827   2.465   3.733  0.2017 -0.0033  0.0169
  128MOL   C24133515   3.229   2.702   3.707 -0.0477  0.6679  0.2798
  128MOL   H24233516   3.093   2.753   3.864  2.1215  1.1955 -0.1128
  128MOL   H24333517   3.028   2.561   3.665  0.6154  1.5116 -0.2486
  128MOL   H24433518   2.723   2.480   3.762  0.1140 -1.6398  0.6180
  128MOL   H24533519   2.845   2.493   3.630  2.4226 -0.5707  0.2414
  128MOL   H24633520   2.855   2.360   3.745  0.6890  0.0419 -0.7185
  128MOL   H24733521   3.299   2.772   3.753  0.5251  0.7517 -0.7014
  128MOL   H24833522   3.284   2.613   3.675  1.9023  1.7714  0.4647
  128MOL   C24933523   3.173   2.756   3.575 -0.2119  0.0974  0.2162
  128MOL   N25033524   3.276   2.793   3.480  0.1696  0.2129 -0.0001
  128MOL   C25133525   3.329   2.709   3.385 -0.6003  0.2674 -0.4613
  128MOL   O25233526   3.305   2.589   3.374 -0.2644  0.3102 -0.3432
  128MOL   C25333527   3.429   2.768   3.285  0.0291 -0.2168  0.4066
  128MOL   C25433528   3.081   2.872   3.590 -0.3420 -0.2503  0.0885
  128MOL   H25533529   3.112   2.680   3.528  0.6965 -0.4122 -0.1454
  128MOL   H25633530   3.311   2.888   3.477 -0.7316  0.6512  2.3291
  128MOL   H25733531   3.492   2.849   3.320  1.8466 -1.0272 -0.9309
  128MOL   H25833532   3.503   2.697   3.249  0.4357  0.0335  0.7533
  128MOL   H25933533   3.369   2.800   3.200 -0.7264 -0.5509  0.8036
  128MOL   H26033534   3.031   2.903   3.499  0.1290  0.2924  0.0151
  128MOL   H26133535   3.010   2.840   3.667 -0.9475  0.6888 -0.0683
  128MOL   H26233536   3.119   2.960   3.642 -1.0435  0.2063 -0.1601
  129MOL     C133537   1.363   5.522   3.501 -0.7626  0.1905  0.4222
  129MOL     N233538   1.360   5.483   3.648 -0.0557  0.1183  0.3460
  129MOL     C333539   1.323   5.559   3.749  0.2269  0.2626 -0.0666
  129MOL     O433540   1.272   5.673   3.729  0.4010 -0.2947 -0.1677
  129MOL     C533541   1.327   5.496   3.890  0.1728  0.0781  0.0681
  129MOL     C633542   1.484   5.471   3.429  0.1642 -0.2270  0.2055
  129MOL     H733543   1.266   5.500   3.456 -1.5443  0.5231  1.9125
  129MOL     H833544   1.388   5.388   3.669 -0.5983 -1.0089 -3.6007
  129MOL     H933545   1.234   5.443   3.908 -0.4703  0.9082 -0.7466
  129MOL    H1033546   1.405   5.421   3.899 -0.3557 -0.4080  0.5945
  129MOL    H1133547   1.335   5.574   3.966 -1.9375  2.0678 -1.6567
  129MOL    H1233548   1.579   5.496   3.476  0.2847  2.5752 -1.3955
  129MOL    H1333549   1.474   5.363   3.431  0.0335 -0.2516 -1.1157
  129MOL    H1433550   1.372   5.631   3.497  2.4792 -0.0600 -0.7477
  129MOL    C1533551   1.501   5.502   3.283 -0.2038 -1.2004  0.5609
  129MOL    N1633552   1.477   5.639   3.248 -0.4728  0.4640 -0.0071
  129MOL    C1733553   1.567   5.737   3.269  0.5675 -0.3603  0.2505
  129MOL    O1833554   1.682   5.719   3.325 -0.0705 -0.1250  0.3727
  129MOL    C1933555   1.523   5.874   3.229 -0.5096  0.1024 -0.1408
  129MOL    C2033556   1.427   5.411   3.182 -0.6518  0.7489  0.5148
  129MOL    H2133557   1.608   5.494   3.260 -0.4983  0.8331 -1.6820
  129MOL    H2233558   1.385   5.671   3.222 -0.1020  0.5088 -1.3107
  129MOL    H2333559   1.615   5.919   3.190 -0.7967 -0.4671 -1.5090
  129MOL    H2433560   1.447   5.884   3.151 -0.3382  1.1490 -0.1728
  129MOL    H2533561   1.486   5.931   3.314  1.4418  0.5747  0.4135
  129MOL    H2633562   1.458   5.308   3.200 -1.8726  0.1209 -0.8994
  129MOL    H2733563   1.322   5.409   3.210 -0.6099  2.8096  0.9343
  129MOL    C2833564   1.435   5.454   3.033  0.4431 -0.3478  0.1327
  129MOL    N2933565   1.345   5.380   2.946  0.4807 -0.5277  0.3378
  129MOL    C3033566   1.345   5.249   2.926 -0.4483  0.0162  0.3330
  129MOL    O3133567   1.421   5.172   2.990 -0.0393 -0.2720 -0.1505
  129MOL    C3233568   1.260   5.201   2.809  0.0237 -0.1718 -0.1842
  129MOL    C3333569   1.570   5.467   2.964  0.4161 -0.2031 -0.1321
  129MOL    H3433570   1.390   5.553   3.041  1.0016 -0.1963  1.5555
  129MOL    H3533571   1.276   5.437   2.898  1.0897 -0.0664  0.0093
  129MOL    H3633572   1.154   5.207   2.835  0.0603 -0.8487  0.1373
  129MOL    H3733573   1.283   5.279   2.737 -1.9278 -1.0078 -1.7388
  129MOL    H3833574   1.291   5.099   2.785  0.8570  0.7243 -3.0714
  129MOL    H3933575   1.638   5.505   3.040 -0.9956 -0.3143  1.1881
  129MOL    H4033576   1.607   5.366   2.951 -1.0741 -0.6091 -1.3546
  129MOL    C4133577   1.573   5.561   2.838  0.1452 -0.4347 -0.3196
  129MOL    N4233578   1.687   5.534   2.749 -0.1886  0.2066  0.3402
  129MOL    C4333579   1.700   5.443   2.647  0.3554  0.6235  0.4535
  129MOL    O4433580   1.607   5.364   2.612  0.4436 -0.2851  0.0172
  129MOL    C4533581   1.841   5.438   2.579  0.7982 -0.5961 -0.3141
  129MOL    C4633582   1.556   5.714   2.870 -0.1194  0.2095 -0.4230
  129MOL    H4733583   1.482   5.537   2.782 -1.2300  0.8692  1.3159
  129MOL    H4833584   1.775   5.581   2.763  0.0560 -0.7266  2.0798
  129MOL    H4933585   1.929   5.459   2.640 -0.0253 -0.8597  0.9976
  129MOL    H5033586   1.852   5.335   2.545 -0.5164 -1.5671  2.0795
  129MOL    H5133587   1.847   5.508   2.496 -1.4168  0.5298  0.4499
  129MOL    H5233588   1.491   5.715   2.958  0.3690  0.0975 -0.0546
  129MOL    H5333589   1.654   5.752   2.899  0.7290 -1.8246 -0.5201
  129MOL    C5433590   1.481   5.806   2.767 -0.3060 -0.1068  0.7336
  129MOL    N5533591   1.361   5.748   2.705 -0.1402  0.0207  0.0177
  129MOL    C5633592   1.243   5.710   2.761  0.3825  0.7468  0.2354
  129MOL    O5733593   1.237   5.692   2.882  0.2532 -0.1406  0.1681
  129MOL    C5833594   1.125   5.700   2.669 -0.2193  0.7943  0.2033
  129MOL    C5933595   1.575   5.862   2.658  0.3216  0.2609  0.1621
  129MOL    H6033596   1.445   5.889   2.828 -0.4006  0.9511 -0.7132
  129MOL    H6133597   1.355   5.762   2.605 -0.4527 -0.1372  0.0134
  129MOL    H6233598   1.042   5.659   2.726 -0.6316 -0.3971 -1.2221
  129MOL    H6333599   1.103   5.797   2.624 -2.0738  0.3507  0.1128
  129MOL    H6433600   1.148   5.626   2.593  2.3876  2.1635 -0.3986
  129MOL    H6533601   1.618   5.777   2.606 -0.4681 -0.9067  1.3651
  129MOL    H6633602   1.512   5.915   2.586 -1.7095 -0.9635  0.9735
  129MOL    C6733603   1.687   5.957   2.711  0.4988  0.0070  0.2898
  129MOL    N6833604   1.624   6.066   2.788 -0.0407 -0.3671 -0.1720
  129MOL    C6933605   1.637   6.082   2.921  0.4570 -0.3708  0.4810
  129MOL    O7033606   1.710   6.007   2.986 -0.4250  0.4315  0.0310
  129MOL    C7133607   1.579   6.192   2.992 -0.5899  0.0326 -0.4327
  129MOL    C7233608   1.773   6.002   2.590  0.3428  0.4297 -0.0321
  129MOL    H7333609   1.755   5.907   2.779 -0.5020 -0.5629  0.8777
  129MOL    H7433610   1.562   6.123   2.732 -1.6876 -1.6785  0.2738
  129MOL    H7533611   1.567   6.277   2.925  2.7602  0.5168 -0.5152
  129MOL    H7633612   1.486   6.155   3.036 -0.3444 -0.3281 -0.2123
  129MOL    H7733613   1.651   6.226   3.067  1.2031 -3.5573 -0.4125
  129MOL    H7833614   1.817   5.907   2.561 -0.4890  0.2772 -0.8256
  129MOL    H7933615   1.706   6.026   2.507  0.4694  0.1374 -0.2159
  129MOL    C8033616   1.885   6.105   2.612 -0.6212 -0.4008  0.5208
  129MOL    N8133617   1.957   6.133   2.486  0.3368 -0.0780 -0.1499
  129MOL    C8233618   2.027   6.237   2.439 -0.4744  0.6053  0.1022
  129MOL    O8333619   2.038   6.340   2.501 -0.3773 -0.3065 -0.4720
  129MOL    C8433620   2.081   6.231   2.296  0.5500  0.4937  0.0493
  129MOL    C8533621   1.977   6.076   2.726  0.3057  0.1035 -0.6680
  129MOL    H8633622   1.840   6.202   2.635 -1.4971 -1.2936  2.7262
  129MOL    H8733623   1.946   6.049   2.431  1.7353 -2.8844  3.6213
  129MOL    H8833624   2.078   6.328   2.248 -1.0295  0.5529  0.2336
  129MOL    H8933625   2.175   6.177   2.284  0.7242  0.7555  0.2438
  129MOL    H9033626   2.022   6.163   2.234  1.7866 -0.7729  0.2277
  129MOL    H9133627   2.015   6.169   2.769  2.3791 -0.3556 -1.4318
  129MOL    H9233628   1.924   6.028   2.808 -0.6704  0.6537 -0.9756
  129MOL    C9333629   2.103   5.992   2.697 -0.7442 -0.5052  0.1280
  129MOL    N9433630   2.066   5.871   2.626  0.4825 -0.7742  0.1415
  129MOL    C9533631   2.100   5.837   2.502  0.3604 -0.0418 -0.1072
  129MOL    O9633632   2.022   5.758   2.446 -0.3237 -0.6428  0.3916
  129MOL    C9733633   2.212   5.907   2.430 -0.2902  0.8474 -0.8297
  129MOL    C9833634   2.186   5.963   2.828 -0.7001 -0.1763 -1.2088
  129MOL    H9933635   2.170   6.048   2.631 -1.7980  3.4448  2.2269
  129MOL   H10033636   1.994   5.822   2.676 -0.4561  0.7281  0.2937
  129MOL   H10133637   2.254   5.841   2.354  0.7784 -2.1018  2.1385
  129MOL   H10233638   2.175   5.991   2.372 -3.1750 -0.4552 -0.9849
  129MOL   H10333639   2.286   5.944   2.501  1.0605 -0.6163 -1.4207
  129MOL   H10433640   2.214   6.062   2.864  1.8755 -1.6393  0.9888
  129MOL   H10533641   2.121   5.926   2.907 -0.2255 -0.6114 -1.0190
  129MOL   C10633642   2.319   5.882   2.822 -0.3375  0.1859  0.3693
  129MOL   N10733643   2.415   5.938   2.720 -0.2558  0.4711  0.1817
  129MOL   C10833644   2.551   5.913   2.712 -0.1193 -0.3417 -0.7120
  129MOL   O10933645   2.616   5.866   2.805  0.1280  0.8821  0.2012
  129MOL   C11033646   2.624   5.943   2.588 -0.6195  0.1830  0.8645
  129MOL   C11133647   2.288   5.732   2.806  0.1760  0.3573  0.5073
  129MOL   H11233648   2.370   5.900   2.916  0.8225  2.3507 -0.6302
  129MOL   H11333649   2.372   5.978   2.638 -0.4273  1.4779  0.7442
  129MOL   H11433650   2.573   6.009   2.517 -0.9317  0.3537  1.2475
  129MOL   H11533651   2.716   5.992   2.620 -0.0331  0.0075 -0.5178
  129MOL   H11633652   2.654   5.848   2.544  2.6715  1.4499  0.2418
  129MOL   H11733653   2.218   5.706   2.727 -0.4981 -1.3725  1.6383
  129MOL   H11833654   2.388   5.690   2.787 -0.1628 -1.4476  2.4942
  129MOL   C11933655   2.253   5.640   2.927  0.2353 -1.2771 -0.1383
  129MOL   N12033656   2.134   5.683   2.993 -0.2144 -0.1802  0.2981
  129MOL   C12133657   2.006   5.668   2.948  0.0745 -1.0277 -0.3263
  129MOL   O12233658   1.971   5.634   2.834  0.0649 -0.7407  0.0512
  129MOL   C12333659   1.893   5.695   3.045  0.5726  0.3630 -0.9781
  129MOL   C12433660   2.365   5.634   3.029  0.2484  0.3527 -0.4706
  129MOL   H12533661   2.244   5.540   2.884 -2.3865 -0.1164 -2.4589
  129MOL   H12633662   2.151   5.715   3.087 -2.1391 -1.5103  1.1204
  129MOL   H12733663   1.811   5.632   3.009 -0.5238  1.5619 -0.6249
  129MOL   H12833664   1.911   5.650   3.142 -2.9600 -0.2912 -0.5485
  129MOL   H12933665   1.857   5.796   3.064  1.2062  0.2917  0.6465
  129MOL   H13033666   2.459   5.612   2.979  1.1129  1.0176  0.8423
  129MOL   H13133667   2.370   5.735   3.071  0.4561 -0.0935  0.5822
  129MOL   C13233668   2.341   5.534   3.150 -0.2235  0.2075 -0.5291
  129MOL   N13333669   2.415   5.585   3.267  1.0502  0.4521  0.3823
  129MOL   C13433670   2.543   5.565   3.296 -0.7989  0.0061  0.2058
  129MOL   O13533671   2.626   5.502   3.227  0.0017  0.1291  0.3349
  129MOL   C13633672   2.595   5.609   3.432  0.1825 -0.1204  0.1419
  129MOL   C13733673   2.366   5.383   3.117  0.1742  0.9935 -0.7292
  129MOL   H13833674   2.239   5.545   3.185 -0.3250  1.8450 -1.2722
  129MOL   H13933675   2.361   5.642   3.331  1.6204  0.0924  1.1822
  129MOL   H14033676   2.704   5.620   3.432  0.6028 -3.7407  0.2072
  129MOL   H14133677   2.551   5.704   3.462  2.6900  1.0552  0.3085
  129MOL   H14233678   2.572   5.526   3.498  0.7914 -0.2485  0.1997
  129MOL   H14333679   2.306   5.354   3.031 -1.0152 -2.8729  1.2768
  129MOL   H14433680   2.469   5.374   3.084 -0.5027 -0.7407 -2.4215
  129MOL   C14533681   2.333   5.284   3.238 -0.6244  0.1153 -0.3030
  129MOL   N14633682   2.375   5.147   3.213  0.0133 -0.1554  0.0032
  129MOL   C14733683   2.321   5.057   3.129 -0.5991  0.9016  0.3614
  129MOL   O14833684   2.220   5.075   3.061  0.3642  0.2450 -0.0764
  129MOL   C14933685   2.407   4.929   3.106  0.7872  0.1174 -0.4603
  129MOL   C15033686   2.179   5.294   3.284  0.2383  0.0645 -0.3436
  129MOL   H15133687   2.390   5.317   3.326  1.5065 -1.7520 -0.9374
  129MOL   H15233688   2.471   5.123   3.233  0.4352  2.5028  1.3775
  129MOL   H15333689   2.513   4.944   3.124  0.0886  2.4717  1.9340
  129MOL   H15433690   2.369   4.853   3.174  0.3484  2.1004  1.5549
  129MOL   H15533691   2.395   4.887   3.006  1.2162 -0.7721 -0.1426
  129MOL   H15633692   2.121   5.373   3.235  0.4729 -0.1217 -0.9192
  129MOL   H15733693   2.128   5.205   3.247 -0.4789  0.9155 -1.4589
  129MOL   C15833694   2.167   5.306   3.436 -1.0258  0.3408  0.0572
  129MOL   N15933695   2.203   5.173   3.490 -0.1704  0.0137  0.0325
  129MOL   C16033696   2.284   5.143   3.598  0.6624 -0.2713 -0.4250
  129MOL   O16133697   2.323   5.219   3.689 -0.0282 -0.1754 -0.4067
  129MOL   C16233698   2.338   5.003   3.591  0.9484 -0.3283  0.2792
  129MOL   C16333699   2.023   5.340   3.479  0.2687  0.0045 -0.2999
  129MOL   H16433700   2.241   5.377   3.471 -0.4373  0.8495 -2.1783
  129MOL   H16533701   2.181   5.090   3.437  1.8835  0.8707 -2.2777
  129MOL   H16633702   2.409   4.984   3.671 -0.1250  0.3306  1.4214
  129MOL   H16733703   2.248   4.944   3.611  0.5704 -0.3141 -1.3300
  129MOL   H16833704   2.390   4.993   3.496  1.0002  2.4435 -0.0257
  129MOL   H16933705   1.965   5.319   3.389  0.6378 -1.6217 -0.1676
  129MOL   H17033706   1.992   5.263   3.550 -0.6070  0.5187 -0.1081
  129MOL   C17133707   1.996   5.486   3.533 -0.4494  0.2066 -0.0644
  129MOL   N17233708   1.860   5.495   3.584  0.1391  0.4765 -0.1634
  129MOL   C17333709   1.836   5.498   3.717 -0.0775  0.6106 -0.2809
  129MOL   O17433710   1.913   5.513   3.805  0.1599 -0.0489 -0.3829
  129MOL   C17533711   1.691   5.460   3.748  0.3359 -0.1657  0.1152
  129MOL   C17633712   2.018   5.594   3.426  0.0971  0.3819 -0.1780
  129MOL   H17733713   2.071   5.502   3.610 -0.1333  0.6604 -0.4588
  129MOL   H17833714   1.786   5.488   3.516  0.0428 -0.0927  0.0002
  129MOL   H17933715   1.682   5.355   3.721 -2.4803  0.1152 -0.2292
  129MOL   H18033716   1.657   5.485   3.848  1.3599  1.3718  0.0970
  129MOL   H18133717   1.632   5.522   3.681  0.7224 -2.6190 -2.6053
  129MOL   H18233718   2.122   5.605   3.396 -0.6075  0.4349 -2.7232
  129MOL   H18333719   1.966   5.569   3.333  1.3769 -0.3933 -0.7046
  129MOL   C18433720   1.973   5.736   3.474 -0.4468  0.2698  0.0439
  129MOL   N18533721   1.983   5.828   3.352 -0.7230 -0.2384 -0.5551
  129MOL   C18633722   2.098   5.868   3.287  0.6343 -0.3367  0.5056
  129MOL   O18733723   2.202   5.800   3.291 -0.2962 -0.1219 -0.4816
  129MOL   C18833724   2.102   6.003   3.210 -0.1494 -0.1553 -0.4718
  129MOL   C18933725   2.039   5.792   3.594 -0.1449 -0.0887 -0.2206
  129MOL   H19033726   1.866   5.733   3.496 -0.9003  1.8939 -1.7291
  129MOL   H19133727   1.910   5.895   3.336  0.1976  0.5512 -1.4934
  129MOL   H19233728   2.192   6.034   3.156 -0.2396 -0.5020 -0.8167
  129MOL   H19333729   2.035   5.992   3.125  0.3227 -1.6655 -0.6483
  129MOL   H19433730   2.059   6.091   3.258 -0.3948  0.4989 -1.8799
  129MOL   H19533731   2.045   5.725   3.679 -3.1250  1.0054  0.9403
  129MOL   H19633732   2.144   5.817   3.580 -0.4550  1.5015  0.1369
  129MOL   C19733733   1.991   5.932   3.635  0.5508  0.4138 -0.2565
  129MOL   N19833734   2.086   5.985   3.734  0.3684  0.1433 -0.3054
  129MOL   C19933735   2.148   6.102   3.736 -0.5991 -0.3341  0.2134
  129MOL   O20033736   2.113   6.202   3.678  0.5138  0.1453 -0.8525
  129MOL   C20133737   2.269   6.119   3.823  0.4118 -0.1310  0.0718
  129MOL   C20233738   1.852   5.930   3.698  0.4343  0.2543 -0.2375
  129MOL   H20333739   1.988   6.012   3.560  0.4623 -0.4450 -1.1778
  129MOL   H20433740   2.116   5.916   3.802  2.1268  0.9956 -0.1840
  129MOL   H20533741   2.326   6.211   3.809 -0.8353  0.3127 -2.1776
  129MOL   H20633742   2.256   6.111   3.931 -0.3579  0.0656 -0.0089
  129MOL   H20733743   2.343   6.042   3.799  1.0107  0.1945  0.8308
  129MOL   H20833744   1.842   5.834   3.748 -2.0174  1.5237  1.8418
  129MOL   H20933745   1.853   6.002   3.780 -0.8993 -0.0994  0.1024
  129MOL   C21033746   1.727   5.950   3.607 -0.3525 -0.2336  0.2839
  129MOL   N21133747   1.710   6.084   3.549  0.3546 -0.4721 -0.0911
  129MOL   C21233748   1.730   6.115   3.424  0.5861  0.6158 -0.1959
  129MOL   O21333749   1.796   6.046   3.340  0.3632 -0.1553 -0.1093
  129MOL   C21433750   1.674   6.243   3.377  1.3929  0.2314 -0.3425
  129MOL   C21533751   1.597   5.896   3.665  0.3484 -0.1190 -0.3558
  129MOL   H21633752   1.734   5.888   3.518 -2.0579 -0.5101  0.3172
  129MOL   H21733753   1.658   6.146   3.609  0.9400 -0.5947  0.5615
  129MOL   H21833754   1.645   6.236   3.272  0.0443 -2.2425  0.1573
  129MOL   H21933755   1.582   6.264   3.432  0.6729 -1.2085 -0.9561
  129MOL   H22033756   1.733   6.332   3.401  0.6148  1.3725 -2.4995
  129MOL   H22133757   1.544   5.841   3.587 -1.0364 -0.7606  1.0215
  129MOL   H22233758   1.628   5.817   3.732 -1.0553  0.0249  0.4773
  129MOL   C22333759   1.493   5.993   3.719 -0.7687  0.3362  0.7512
  129MOL   N22433760   1.412   5.916   3.822 -0.4097  0.4489  0.0532
  129MOL   C22533761   1.371   5.956   3.941  0.2596  0.5743 -0.5443
  129MOL   O22633762   1.409   6.065   3.984 -0.0589  0.6004 -0.8718
  129MOL   C22733763   1.267   5.877   4.015  0.0618 -0.5482  0.1600
  129MOL   C22833764   1.394   6.047   3.610 -0.0594 -0.0999 -0.5207
  129MOL   H22933765   1.546   6.076   3.767 -0.7960 -0.3486  1.9896
  129MOL   H23033766   1.342   5.854   3.783 -0.0309  0.7318 -1.1201
  129MOL   H23133767   1.302   5.813   4.096 -0.7243  0.7063  1.5231
  129MOL   H23233768   1.214   5.950   4.077  1.0880  0.7846 -0.5025
  129MOL   H23333769   1.195   5.833   3.946  0.8418  1.0142 -1.7076
  129MOL   H23433770   1.452   6.068   3.521  0.7237  0.3687  0.0935
  129MOL   H23533771   1.333   5.962   3.580 -2.4935  1.2603  0.3703
  129MOL   C23633772   1.296   6.160   3.664 -0.7250  0.7368 -0.9799
  129MOL   N23733773   1.178   6.170   3.582 -0.5731  0.2604  0.2018
  129MOL   C23833774   1.166   6.171   3.451 -0.2432 -0.7090 -0.0444
  129MOL   O23933775   1.255   6.158   3.371 -0.0072 -0.4269 -0.2092
  129MOL   C24033776   1.023   6.179   3.401 -0.2321  0.3305  0.3803
  129MOL   C24133777   1.366   6.300   3.680 -0.1686 -0.0175 -1.0729
  129MOL   H24233778   1.260   6.121   3.760  0.5767  0.0110 -0.7704
  129MOL   H24333779   1.096   6.200   3.633 -0.0018 -1.0193  1.9561
  129MOL   H24433780   1.017   6.156   3.294 -1.7303  0.9968  0.2999
  129MOL   H24533781   0.957   6.110   3.454 -2.9269  4.1187  2.1743
  129MOL   H24633782   0.980   6.276   3.427  0.6439  1.0802 -0.9340
  129MOL   H24733783   1.456   6.262   3.727 -1.4507 -1.0397  0.6354
  129MOL   H24833784   1.400   6.342   3.586  1.6809 -0.6519 -0.6971
  129MOL   C24933785   1.286   6.406   3.763 -0.0001 -0.8257 -0.1987
  129MOL   N25033786   1.350   6.538   3.744 -0.3009 -0.1037  0.2431
  129MOL   C25133787   1.305   6.661   3.774  0.6840 -1.1639  0.0294
  129MOL   O25233788   1.191   6.684   3.818 -0.4353 -0.5738 -0.6836
  129MOL   C25333789   1.389   6.787   3.754 -0.0223 -0.1912 -0.1633
  129MOL   C25433790   1.277   6.362   3.908 -0.5915  0.2470 -0.4350
  129MOL   H25533791   1.190   6.421   3.713  1.0859  0.5923 -1.8995
  129MOL   H25633792   1.448   6.533   3.720 -0.4324 -2.6158  0.0991
  129MOL   H25733793   1.330   6.873   3.788 -1.4927 -1.5768  0.8663
  129MOL   H25833794   1.483   6.781   3.809  0.4482  0.3983 -0.8994
  129MOL   H25933795   1.414   6.815   3.652  1.9671 -1.2862  0.0140
  129MOL   H26033796   1.226   6.266   3.919  1.2697 -0.7926 -0.7411
  129MOL   H26133797   1.373   6.351   3.959 -1.1954  0.3360  0.7249
  129MOL   H26233798   1.223   6.427   3.977 -1.0875 -0.8677  0.2279
  130MOL     C133799   6.062   7.561   0.663  0.3281  0.1219  0.5740
  130MOL     N233800   6.133   7.640   0.559  0.1164 -0.1284 -0.7746
  130MOL     C333801   6.143   7.603   0.429  0.7615  0.1582  0.2624
  130MOL     O433802   6.074   7.514   0.382 -0.8453 -0.3881 -0.3572
  130MOL     C533803   6.252   7.665   0.342  0.0693  0.3170 -0.1332
  130MOL     C633804   5.929   7.632   0.709 -0.4150 -0.1366  0.6378
  130MOL     H733805   6.053   7.455   0.638  1.9474 -0.3328  1.8431
  130MOL     H833806   6.209   7.695   0.598  0.1221 -2.2122  2.3611
  130MOL     H933807   6.237   7.640   0.237 -2.1305 -1.2472  0.5139
  130MOL    H1033808   6.248   7.774   0.345 -0.4959  0.2677  1.7768
  130MOL    H1133809   6.352   7.635   0.371 -0.6034 -2.1789 -0.3068
  130MOL    H1233810   5.857   7.610   0.630 -0.9039  1.1135  0.7173
  130MOL    H1333811   5.889   7.585   0.799  0.4462  0.3125  1.2593
  130MOL    H1433812   6.139   7.546   0.739  0.0380 -0.9146  0.6661
  130MOL    C1533813   5.927   7.781   0.742 -0.3150  0.3986  0.1094
  130MOL    N1633814   5.939   0.023   0.625 -0.4391  0.2072 -0.5362
  130MOL    C1733815   5.924   0.154   0.598 -0.5866  0.7760  0.6732
  130MOL    O1833816   5.903   0.244   0.685  0.0906  0.6055  0.2148
  130MOL    C1933817   5.938   0.190   0.455  0.0704 -0.0245 -0.1822
  130MOL    C2033818   6.027   7.821   0.844 -0.5467 -0.0346  0.3622
  130MOL    H2133819   5.830   7.809   0.781 -1.1383 -0.3464 -1.3417
  130MOL    H2233820   5.979   7.817   0.544 -2.0168  1.1582 -1.8996
  130MOL    H2333821   5.836   0.190   0.415  0.5412  2.7778 -1.4692
  130MOL    H2433822   5.978   0.289   0.439  1.2775 -0.4320  0.2783
  130MOL    H2533823   5.990   0.113   0.397  2.6107  0.2321  1.6861
  130MOL    H2633824   6.119   7.786   0.798 -0.5440 -2.0122  1.7636
  130MOL    H2733825   6.040   0.087   0.868 -1.1252 -0.1980  1.4553
  130MOL    C2833826   6.019   7.754   0.978 -0.1815 -0.2374  0.3773
  130MOL    N2933827   5.885   7.783   1.030 -0.0275  0.3949 -0.7463
  130MOL    C3033828   5.825   7.725   1.141  0.5935 -0.3703 -0.1146
  130MOL    O3133829   5.876   7.627   1.200  0.2573 -0.5293 -0.8304
  130MOL    C3233830   5.682   7.773   1.174 -0.6526 -0.8177  0.3103
  130MOL    C3333831   6.139   7.787   1.077 -0.1795 -0.0086 -0.0815
  130MOL    H3433832   6.020   7.648   0.955 -1.0122 -0.0266 -0.6867
  130MOL    H3533833   5.836   0.018   0.984  3.3228  2.2181 -1.5120
  130MOL    H3633834   5.655   7.828   1.084  2.3037  0.3003  0.0273
  130MOL    H3733835   5.621   7.688   1.204  0.6928 -1.1996  2.0771
  130MOL    H3833836   5.691   0.004   1.257 -1.2903  0.0805 -0.3810
  130MOL    H3933837   6.130   7.706   1.150  0.2386  0.0550  0.0424
  130MOL    H4033838   6.237   7.783   1.028 -0.5233  0.0186 -0.7697
  130MOL    C4133839   6.126   0.094   1.139 -0.5161  0.4898 -0.4535
  130MOL    N4233840   6.204   0.192   1.062 -0.5125  0.0360  0.4455
  130MOL    C4333841   6.162   0.314   1.021  0.1853 -0.1585 -0.9489
  130MOL    O4433842   6.051   0.358   1.049 -0.2251 -0.1288 -0.0614
  130MOL    C4533843   6.253   0.395   0.929 -0.0826  0.1509  0.0502
  130MOL    C4633844   6.145   0.104   1.293  0.6253  0.5094  0.4836
  130MOL    H4733845   6.022   0.125   1.149 -0.5224  0.6362 -1.0048
  130MOL    H4833846   6.290   0.153   1.028  0.4386  1.5257  1.0867
  130MOL    H4933847   6.354   0.355   0.915 -0.4717 -0.4171 -1.2103
  130MOL    H5033848   6.216   0.396   0.827  0.6861 -1.5017 -0.2654
  130MOL    H5133849   6.250   0.496   0.971 -2.3660 -0.9562  2.6887
  130MOL    H5233850   6.096   0.016   1.336  1.0430 -1.1835 -2.3336
  130MOL    H5333851   6.252   0.091   1.309  0.7119  0.6174 -0.0036
  130MOL    C5433852   6.112   0.233   1.366  0.3686 -0.5441 -0.6345
  130MOL    N5533853   6.183   0.235   1.500 -0.1733  0.2157  0.0385
  130MOL    C5633854   6.313   0.275   1.507  0.4864  0.2268 -0.5210
  130MOL    O5733855   6.370   0.316   1.416  0.1296 -0.5201  0.6882
  130MOL    C5833856   6.391   0.254   1.639 -0.0104 -0.2427  0.0307
  130MOL    C5933857   5.956   0.261   1.390 -0.7534 -0.2761 -0.2455
  130MOL    H6033858   6.144   0.317   1.304 -0.1649 -1.0962 -1.6866
  130MOL    H6133859   6.125   0.226   1.582  0.7087 -1.5545  0.4883
  130MOL    H6233860   6.466   0.329   1.664  0.7702 -1.1453  0.4332
  130MOL    H6333861   6.322   0.253   1.724 -0.5374 -2.4168 -0.3790
  130MOL    H6433862   6.453   0.164   1.632  0.3112  0.0822 -1.3754
  130MOL    H6533863   5.901   0.265   1.296  2.0794  0.2490 -1.9299
  130MOL    H6633864   5.913   0.188   1.459 -0.3084  0.0706  0.4039
  130MOL    C6733865   5.916   0.401   1.448 -0.2697 -0.7620  0.3509
  130MOL    N6833866   5.772   0.404   1.481  0.3965 -0.2668 -0.2385
  130MOL    C6933867   5.704   0.386   1.596 -0.0244 -0.0770 -0.0568
  130MOL    O7033868   5.761   0.370   1.702  0.0088 -0.1059 -0.2243
  130MOL    C7133869   5.553   0.382   1.590 -0.1056  0.4499 -0.4656
  130MOL    C7233870   5.964   0.534   1.374  0.0332 -0.8107 -0.0058
  130MOL    H7333871   5.971   0.396   1.542  1.1577 -0.1040 -0.4397
  130MOL    H7433872   5.716   0.412   1.397 -2.3435 -1.0491  1.4290
  130MOL    H7533873   5.518   0.453   1.665  0.9640 -1.1405  1.5962
  130MOL    H7633874   5.518   0.417   1.493  1.5415  0.0691 -1.2122
  130MOL    H7733875   5.494   0.292   1.606  1.7491 -0.8531 -0.7473
  130MOL    H7833876   5.965   0.603   1.458  0.5575  0.7451 -1.2639
  130MOL    H7933877   6.065   0.527   1.332 -0.5784 -1.7050 -1.3626
  130MOL    C8033878   5.871   0.596   1.273 -0.3581  0.1694 -0.6262
  130MOL    N8133879   5.846   0.501   1.163  0.2276  0.5209 -0.5040
  130MOL    C8233880   5.743   0.426   1.139  0.3668  0.1363 -0.2777
  130MOL    O8333881   5.640   0.435   1.209 -0.2841 -0.1284  0.2567
  130MOL    C8433882   5.748   0.319   1.034  0.0659 -0.5162  0.3013
  130MOL    C8533883   5.919   0.728   1.212 -0.4340 -0.4774  0.1090
  130MOL    H8633884   5.774   0.607   1.322 -1.1700 -0.3889 -2.0448
  130MOL    H8733885   5.923   0.484   1.100  1.4222 -0.7792  1.2682
  130MOL    H8833886   5.824   0.328   0.957  1.9192 -1.5136  1.9893
  130MOL    H8933887   5.776   0.226   1.082 -0.8528 -2.1013 -2.1113
  130MOL    H9033888   5.653   0.302   0.983  0.7707 -0.3270 -1.0942
  130MOL    H9133889   6.017   0.717   1.166 -0.0945  0.7966  0.4930
  130MOL    H9233890   5.843   0.742   1.135 -0.8591  1.3000  0.8134
  130MOL    C9333891   5.927   0.845   1.318  0.1984  0.3120 -0.7736
  130MOL    N9433892   5.792   0.859   1.370 -0.2064  0.4176  0.1243
  130MOL    C9533893   5.755   0.825   1.496  0.1418  0.4964  0.4190
  130MOL    O9633894   5.840   0.798   1.582  0.3622  0.2874  0.1160
  130MOL    C9733895   5.606   0.822   1.524  0.1979 -0.3832  0.2639
  130MOL    C9833896   5.979   0.978   1.258 -0.1254  0.0695  0.0920
  130MOL    H9933897   5.995   0.813   1.396 -1.2467 -1.0476 -0.0667
  130MOL   H10033898   5.716   0.880   1.307 -2.3932 -1.7826  1.9090
  130MOL   H10133899   5.573   0.773   1.616 -0.1129 -2.2041 -0.7873
  130MOL   H10233900   5.564   0.922   1.532 -0.9069 -0.7654 -0.5809
  130MOL   H10333901   5.564   0.775   1.434 -2.3367  0.7813  0.7928
  130MOL   H10433902   6.075   0.934   1.229 -0.5174 -0.6440 -0.1526
  130MOL   H10533903   5.924   1.002   1.167 -0.5087 -0.4582  0.1825
  130MOL   C10633904   5.990   1.093   1.362 -0.4140 -0.2088  0.2470
  130MOL   N10733905   5.913   1.211   1.319 -0.1956  0.4197  0.4248
  130MOL   C10833906   5.844   1.290   1.398 -0.5691  0.6124  1.0725
  130MOL   O10933907   5.838   1.287   1.519 -0.3135  0.6217 -0.7031
  130MOL   C11033908   5.789   1.416   1.322 -0.1862 -0.2173  0.2712
  130MOL   C11133909   6.138   1.143   1.392 -0.1482  0.0514  0.1326
  130MOL   H11233910   5.962   1.053   1.459 -0.7820  0.8625  0.5950
  130MOL   H11333911   5.909   1.236   1.221 -0.6652 -0.0358  0.3246
  130MOL   H11433912   5.680   1.404   1.322  0.1226 -3.8651  1.1374
  130MOL   H11533913   5.816   1.502   1.382 -1.8235  0.1305  0.5446
  130MOL   H11633914   5.832   1.433   1.224 -1.4035  1.0982 -0.0395
  130MOL   H11733915   6.169   1.224   1.328 -2.8960 -0.2868 -1.7251
  130MOL   H11833916   6.131   1.193   1.489 -1.1345 -0.5057  0.3649
  130MOL   C11933917   6.260   1.047   1.403 -0.4567  0.1713 -0.1588
  130MOL   N12033918   6.223   0.945   1.499  0.3920 -0.2523  0.4054
  130MOL   C12133919   6.264   0.822   1.481  0.0905  0.1020 -0.4870
  130MOL   O12233920   6.329   0.785   1.388 -0.2591  0.0265 -0.2973
  130MOL   C12333921   6.220   0.718   1.584 -0.4085  0.1084 -0.9273
  130MOL   C12433922   6.377   1.121   1.460  0.6408 -0.7200 -0.0351
  130MOL   H12533923   6.276   1.012   1.301  0.6113  0.3598 -0.0594
  130MOL   H12633924   6.166   0.976   1.577  2.3632 -0.7742  2.0814
  130MOL   H12733925   6.118   0.733   1.618 -0.2491  0.3885 -0.5671
  130MOL   H12833926   6.222   0.614   1.549 -0.9466 -0.1537 -0.1970
  130MOL   H12933927   6.284   0.723   1.673  0.4903 -0.8844 -1.4968
  130MOL   H13033928   6.397   1.209   1.399  0.1327  0.1524  1.0397
  130MOL   H13133929   6.353   1.162   1.558  1.0975 -2.6213  0.8870
  130MOL   C13233930   6.512   1.057   1.487  0.6007  0.3732 -0.1067
  130MOL   N13333931   6.548   0.964   1.380 -0.0620 -0.3922 -0.4706
  130MOL   C13433932   6.666   0.941   1.322  0.5446  0.1576 -0.3233
  130MOL   O13533933   6.767   1.012   1.342  0.0358 -0.2970 -0.0841
  130MOL   C13633934   6.674   0.821   1.231 -0.4096  0.1675  0.1150
  130MOL   C13733935   6.522   0.994   1.629 -0.2399  0.2724 -0.4836
  130MOL   H13833936   6.586   1.137   1.490  1.4749 -0.3731 -1.0830
  130MOL   H13933937   6.478   0.894   1.357  1.6926 -1.8705 -1.4136
  130MOL   H14033938   6.762   0.840   1.168 -0.8155 -0.0226 -0.5109
  130MOL   H14133939   6.688   0.725   1.280  4.4724 -0.1005 -1.5313
  130MOL   H14233940   6.583   0.829   1.172  0.4199  2.2467 -0.9535
  130MOL   H14333941   6.453   1.041   1.699  1.5737 -2.0277  3.0207
  130MOL   H14433942   6.496   0.889   1.641 -0.1561  0.2584 -0.4244
  130MOL   C14533943   6.663   1.022   1.696  0.1075  0.1027 -0.0382
  130MOL   N14633944   6.691   0.924   1.802 -0.1304 -0.9308 -0.0699
  130MOL   C14733945   6.633   0.909   1.921  0.0671 -0.0799  0.2244
  130MOL   O14833946   6.520   0.960   1.952  0.2864  0.1780 -0.1156
  130MOL   C14933947   6.713   0.833   2.027 -0.1558 -0.5561  0.0062
  130MOL   C15033948   6.687   1.166   1.753  0.3344  0.1735  0.2928
  130MOL   H15133949   6.730   1.011   1.610 -0.8098 -0.6615 -0.6672
  130MOL   H15233950   6.781   0.878   1.802  0.0795 -0.5375 -1.6912
  130MOL   H15333951   6.740   0.900   2.109 -3.5762 -0.4970  1.2076
  130MOL   H15433952   6.653   0.750   2.066 -0.5733 -0.4905 -0.4950
  130MOL   H15533953   6.803   0.790   1.985  0.2670 -0.5707  0.9214
  130MOL   H15633954   6.634   1.233   1.684 -0.6167  0.5800  1.4077
  130MOL   H15733955   6.640   1.181   1.850  1.0931 -3.3636  1.2555
  130MOL   C15833956   6.836   1.206   1.763  0.0210 -0.1997 -0.6108
  130MOL   N15933957   6.916   1.139   1.875  0.0203 -0.3977  0.1599
  130MOL   C16033958   6.976   1.023   1.890 -0.5198  0.2461 -0.4301
  130MOL   O16133959   6.964   0.931   1.806 -0.0113 -0.4375 -0.3735
  130MOL   C16233960   7.051   1.006   2.016 -0.1177  0.0371  0.3749
  130MOL   C16333961   6.854   1.362   1.781  0.2915  0.3787 -0.6943
  130MOL   H16433962   6.877   1.180   1.666 -1.5899  1.0699 -1.6593
  130MOL   H16533963   6.950   1.200   1.948  0.8589 -0.3351 -0.2763
  130MOL   H16633964   7.060   1.101   2.067 -0.5551  0.7266 -0.8117
  130MOL   H16733965   7.001   0.931   2.077  2.0896 -0.3370  1.7889
  130MOL   H16833966   7.156   0.982   1.996 -1.0224 -2.3542 -1.7260
  130MOL   H16933967   6.852   1.375   1.889 -2.7788  0.3163 -0.7027
  130MOL   H17033968   6.957   1.391   1.759  1.0108  0.0669  2.0438
  130MOL   C17133969   6.762   1.475   1.717  0.0858  0.8810 -0.0708
  130MOL   N17233970   6.759   1.445   1.574  0.2898  0.8787  0.0646
  130MOL   C17333971   6.654   1.448   1.496 -0.2298  0.2863  1.1847
  130MOL   O17433972   6.548   1.481   1.541  0.1401  0.5402  0.1670
  130MOL   C17533973   6.673   1.399   1.351 -0.3911  0.7802 -0.2852
  130MOL   C17633974   6.790   1.628   1.739  0.5037 -1.0398 -0.1252
  130MOL   H17733975   6.663   1.469   1.763 -1.3490 -0.5169 -3.2054
  130MOL   H17833976   6.845   1.409   1.536 -1.1241 -1.4946 -1.0073
  130MOL   H17933977   6.767   1.420   1.299 -0.0605  1.7757  0.6930
  130MOL   H18033978   6.657   1.292   1.339  0.6729  0.3347  2.0793
  130MOL   H18133979   6.593   1.445   1.294 -0.1710 -1.2154 -2.3017
  130MOL   H18233980   6.895   1.652   1.721  0.6422 -1.8018 -0.3154
  130MOL   H18333981   6.734   1.679   1.661  1.4168 -0.9318 -0.7199
  130MOL   C18433982   6.751   1.689   1.877 -0.3633 -0.4213  0.4883
  130MOL   N18533983   6.613   1.729   1.877 -0.5707  0.9298  0.3135
  130MOL   C18633984   6.509   1.676   1.946  0.6240  0.3409  0.5815
  130MOL   O18733985   6.526   1.584   2.025 -0.8027 -0.2601  0.8614
  130MOL   C18833986   6.376   1.744   1.949 -0.3807  1.2450 -0.1823
  130MOL   C18933987   6.836   1.821   1.915  1.2930 -0.1093  0.9181
  130MOL   H19033988   6.775   1.614   1.952 -0.8326  0.6876  1.7838
  130MOL   H19133989   6.596   1.807   1.815  0.4887  2.1126  1.4803
  130MOL   H19233990   6.303   1.679   1.901 -0.1964  0.3137  0.7897
  130MOL   H19333991   6.368   1.773   2.054  2.3861 -0.7646  0.6105
  130MOL   H19433992   6.383   1.839   1.895 -3.0960  0.5873 -1.8256
  130MOL   H19533993   6.818   1.911   1.856 -1.1731 -0.7083  0.7065
  130MOL   H19633994   6.796   1.856   2.009  1.1784  0.6796  0.5765
  130MOL   C19733995   6.992   1.802   1.919  0.3176 -0.4828 -0.5482
  130MOL   N19833996   7.029   1.691   1.999 -0.5420  0.8145  0.0782
  130MOL   C19933997   7.101   1.589   1.959 -0.1190 -0.4318 -0.4808
  130MOL   O20033998   7.152   1.585   1.850 -0.3528 -0.7296  0.0546
  130MOL   C20133999   7.105   1.467   2.049  0.0642  0.1102  0.4643
  130MOL   C20234000   7.071   1.923   1.981 -0.1784 -0.3913  0.0162
  130MOL   H20334001   7.028   1.794   1.816  0.4418 -1.6679 -0.4186
  130MOL   H20434002   6.986   1.686   2.090 -1.0280  1.4382 -0.1075
  130MOL   H20534003   7.010   1.417   2.072  0.2095 -0.1326  0.5439
  130MOL   H20634004   7.148   1.388   1.987  1.9594  0.4919  1.2773
  130MOL   H20734005   7.169   1.475   2.136 -0.9169  0.6784  1.1459
  130MOL   H20834006   7.009   1.968   2.058  1.5148  2.2765 -0.1008
  130MOL   H20934007   7.158   1.880   2.031 -1.0857 -0.7638  1.3010
  130MOL   C21034008   7.136   2.033   1.891 -0.3652  0.3174  0.8739
  130MOL   N21134009   7.198   2.132   1.983 -0.4240 -0.1583  0.5126
  130MOL   C21234010   7.296   2.211   1.951  0.4486  0.7660 -0.5605
  130MOL   O21334011   7.344   2.207   1.836  0.2730  0.3836  0.2308
  130MOL   C21434012   7.364   2.295   2.065 -0.1832  0.3165  0.1874
  130MOL   C21534013   7.038   2.102   1.800 -0.4620 -0.0074 -0.3380
  130MOL   H21634014   7.213   1.990   1.826 -1.2536 -0.0591  0.0616
  130MOL   H21734015   7.171   2.133   2.080 -1.4761  1.3913  0.2275
  130MOL   H21834016   7.414   2.234   2.141 -0.8356  0.5890  0.8432
  130MOL   H21934017   7.433   2.368   2.025  0.4869  0.7985  2.1783
  130MOL   H22034018   7.290   2.356   2.117  0.8255  0.9363  0.9075
  130MOL   H22134019   6.950   2.113   1.863  2.0365  1.2157  3.0226
  130MOL   H22234020   7.068   2.205   1.784  0.6436 -0.2969 -0.1810
  130MOL   C22334021   7.009   2.037   1.663  0.9298  0.1348 -0.4044
  130MOL   N22434022   7.130   2.047   1.582 -0.1582  0.2404 -0.5887
  130MOL   C22534023   7.183   1.960   1.502  0.8019 -0.1387  0.0987
  130MOL   O22634024   7.131   1.861   1.464 -0.0262 -0.1099  0.1643
  130MOL   C22734025   7.336   1.985   1.475  0.2259 -0.4802 -0.1601
  130MOL   C22834026   6.888   2.116   1.599  0.2895 -0.4524  0.1179
  130MOL   H22934027   6.977   1.935   1.683 -1.7483  0.9988 -0.0530
  130MOL   H23034028   7.196   2.120   1.606  1.0219 -0.5772 -1.3473
  130MOL   H23134029   7.364   2.089   1.488  1.3692 -1.0319  2.0314
  130MOL   H23234030   7.385   1.923   1.550  4.0634  1.5451 -0.8848
  130MOL   H23334031   7.372   1.950   1.378  2.7023 -0.3494  0.6863
  130MOL   H23434032   6.804   2.125   1.669  0.6397 -1.9810  0.7550
  130MOL   H23534033   6.920   2.217   1.577 -1.1099 -0.7993 -3.9308
  130MOL   C23634034   6.825   2.061   1.467 -0.2722  0.1290 -0.2466
  130MOL   N23734035   6.727   2.155   1.418  0.5237 -0.3975  0.7182
  130MOL   C23834036   6.751   2.270   1.358 -0.1609  0.0001 -0.2050
  130MOL   O23934037   6.859   2.300   1.319 -0.6024  0.1791 -0.2166
  130MOL   C24034038   6.637   2.370   1.344  0.4089 -0.2814 -0.4388
  130MOL   C24134039   6.748   1.933   1.508 -0.0245 -1.0128 -0.0971
  130MOL   H24234040   6.907   2.041   1.398 -2.3052  0.2261 -2.7790
  130MOL   H24334041   6.629   2.137   1.433  0.1007 -0.4734 -1.9160
  130MOL   H24434042   6.541   2.319   1.353  0.3606 -0.0574  0.3598
  130MOL   H24534043   6.640   2.450   1.418  1.7351  0.0592 -0.8559
  130MOL   H24634044   6.636   2.417   1.246 -1.8599  0.9058  0.1206
  130MOL   H24734045   6.815   1.861   1.555  0.5483 -0.2748  0.2355
  130MOL   H24834046   6.694   1.956   1.600 -2.0023 -1.0893 -1.2142
  130MOL   C24934047   6.652   1.870   1.409  0.5522  1.0140  0.1412
  130MOL   N25034048   6.544   1.799   1.475 -0.0440  0.7044 -0.2346
  130MOL   C25134049   6.419   1.841   1.485  0.1141  0.5057 -1.3581
  130MOL   O25234050   6.374   1.945   1.441 -0.2603  0.0647  0.1403
  130MOL   C25334051   6.323   1.753   1.577 -0.5665 -0.0337  0.9050
  130MOL   C25434052   6.720   1.775   1.312 -0.3120 -0.0928 -0.2648
  130MOL   H25534053   6.607   1.954   1.355 -0.4083 -0.1336 -0.8690
  130MOL   H25634054   6.561   1.702   1.500 -1.8237  0.2293 -0.8326
  130MOL   H25734055   6.300   1.811   1.666  0.8562  1.6858  0.1699
  130MOL   H25834056   6.235   1.737   1.514  0.5930 -1.2214 -0.4643
  130MOL   H25934057   6.359   1.652   1.596 -0.6880 -0.6587 -1.9420
  130MOL   H26034058   6.798   1.825   1.254 -1.8821  0.1592 -2.1918
  130MOL   H26134059   6.771   1.697   1.369 -0.9532 -0.5576 -0.3351
  130MOL   H26234060   6.652   1.717   1.251 -1.3629 -0.5128  1.2739
  131MOL     C134061   4.318   6.109   6.929  0.3916 -0.7547  0.4975
  131MOL     N234062   4.270   6.207   7.020  0.0461  0.5839  0.0537
  131MOL     C334063   4.269   6.212   7.151  0.1383  0.0210 -0.2703
  131MOL     O434064   4.240   6.316   7.213  0.0613 -0.1022 -0.5909
  131MOL     C534065   4.338   6.098   7.235  0.1230  0.2435  0.2762
  131MOL     C634066   4.219   6.109   6.807 -0.6895  0.1710 -0.0820
  131MOL     H734067   4.413   6.155   6.900 -0.4383  0.0096 -1.0799
  131MOL     H834068   4.230   6.279   6.961  0.5644 -0.2152 -1.2814
  131MOL     H934069   4.440   6.076   7.207 -0.5531 -1.7254 -0.7130
  131MOL    H1034070   4.323   6.120   7.341  0.1716  2.1791 -0.0837
  131MOL    H1134071   4.281   6.010   7.206 -0.6191  0.8805 -0.2099
  131MOL    H1234072   4.126   6.071   6.850 -0.9358 -1.0606 -1.6973
  131MOL    H1334073   4.198   6.212   6.779  0.3257  0.9632  1.9253
  131MOL    H1434074   4.342   6.011   6.969 -0.8678 -0.4907  1.9279
  131MOL    C1534075   4.264   6.034   6.682 -0.5064  0.2097  0.0533
  131MOL    N1634076   4.207   6.097   6.569 -0.1044 -0.0704  0.8317
  131MOL    C1734077   4.075   6.107   6.529  0.0734 -0.1264 -0.1450
  131MOL    O1834078   3.982   6.099   6.608 -0.5128 -0.4341 -0.3970
  131MOL    C1934079   4.052   6.134   6.376 -0.3984 -0.7266 -0.8720
  131MOL    C2034080   4.236   5.882   6.683  0.1672 -0.0057  0.0582
  131MOL    H2134081   4.372   6.046   6.679 -0.2366 -1.2762  2.7709
  131MOL    H2234082   4.268   6.163   6.523  0.7278  0.2224  2.3070
  131MOL    H2334083   4.012   6.235   6.368 -1.2684 -0.8765  1.2579
  131MOL    H2434084   4.146   6.123   6.321 -0.4623 -4.4189 -0.3839
  131MOL    H2534085   3.973   6.075   6.329 -1.3708 -0.1718  0.0451
  131MOL    H2634086   4.241   5.845   6.785 -1.0480  1.2456  0.5934
  131MOL    H2734087   4.129   5.868   6.663  0.0990  0.5473  0.0379
  131MOL    C2834088   4.342   5.796   6.595  0.4815  0.1084 -0.0018
  131MOL    N2934089   4.272   5.728   6.485  0.3254 -0.1651 -0.2013
  131MOL    C3034090   4.179   5.631   6.496 -0.3978  0.2081 -0.0288
  131MOL    O3134091   4.145   5.585   6.602 -0.6866 -0.1801 -0.7956
  131MOL    C3234092   4.129   5.564   6.362  0.1906  0.8759 -0.0822
  131MOL    C3334093   4.423   5.688   6.670  0.1071 -0.3789  0.3376
  131MOL    H3434094   4.414   5.863   6.550  1.2727 -0.2884  0.6579
  131MOL    H3534095   4.300   5.762   6.394  0.3468 -1.0464 -0.5286
  131MOL    H3634096   4.031   5.602   6.335 -0.5734 -0.2194  1.0977
  131MOL    H3734097   4.212   5.557   6.292 -0.2720 -1.7015 -0.4330
  131MOL    H3834098   4.107   5.461   6.391 -1.3403  1.2891  0.2639
  131MOL    H3934099   4.356   5.616   6.717 -3.3404  2.2028 -0.4169
  131MOL    H4034100   4.485   5.631   6.600  2.2148  0.8377  1.1438
  131MOL    C4134101   4.514   5.732   6.783 -0.3096  0.1824  0.1519
  131MOL    N4234102   4.635   5.789   6.734  0.2409 -0.4273  0.0574
  131MOL    C4334103   4.702   5.897   6.784  0.1983  0.3204 -0.3702
  131MOL    O4434104   4.662   5.963   6.878  0.0757  0.3262  0.2700
  131MOL    C4534105   4.832   5.945   6.722  0.1451 -0.6031  0.6067
  131MOL    C4634106   4.558   5.605   6.862 -0.3952 -0.0478  0.6433
  131MOL    H4734107   4.439   5.785   6.842 -0.2946 -0.4888  0.7889
  131MOL    H4834108   4.660   5.757   6.642  2.3423  1.3301 -0.0087
  131MOL    H4934109   4.893   5.985   6.803  1.0230  2.8734 -1.6626
  131MOL    H5034110   4.882   5.865   6.668  0.3981 -0.1318  0.1329
  131MOL    H5134111   4.809   6.019   6.645 -0.1816 -2.5588 -1.2091
  131MOL    H5234112   4.471   5.544   6.889  0.3050 -0.8947  1.0182
  131MOL    H5334113   4.604   5.545   6.784  0.7524  1.2148  0.3178
  131MOL    C5434114   4.633   5.630   6.993 -0.6186  0.0914 -0.1074
  131MOL    N5534115   4.642   5.499   7.056  0.1617 -0.4766  0.0681
  131MOL    C5634116   4.755   5.455   7.122  0.8799 -0.0743 -0.2969
  131MOL    O5734117   4.862   5.513   7.131  0.2850 -0.5925  0.2307
  131MOL    C5834118   4.734   5.328   7.196  0.1199  0.4323  0.0285
  131MOL    C5934119   4.562   5.724   7.085  0.2368  0.0971 -0.0679
  131MOL    H6034120   4.736   5.653   6.969 -0.6722  0.5599  0.1068
  131MOL    H6134121   4.560   5.443   7.041 -0.2824  0.3784 -0.7644
  131MOL    H6234122   4.653   5.336   7.268 -1.9182  3.1369 -2.4424
  131MOL    H6334123   4.703   5.251   7.126 -0.7956  0.7348  0.0956
  131MOL    H6434124   4.828   5.284   7.230 -1.6449 -2.5490  1.1799
  131MOL    H6534125   4.523   5.813   7.035 -0.7818 -0.7499 -0.7963
  131MOL    H6634126   4.467   5.674   7.102  0.9517 -1.1415  0.3415
  131MOL    C6734127   4.637   5.776   7.213  0.0238  0.0021 -0.4551
  131MOL    N6834128   4.541   5.840   7.310 -0.1758 -0.4894 -0.1595
  131MOL    C6934129   4.450   5.776   7.378 -0.2076 -0.2290 -0.3952
  131MOL    O7034130   4.417   5.661   7.360 -0.7330 -0.5827  0.2067
  131MOL    C7134131   4.390   5.862   7.486  0.1268  0.3874  0.0345
  131MOL    C7234132   4.755   5.872   7.189  0.3259 -0.0796  0.8644
  131MOL    H7334133   4.678   5.685   7.256  3.3723  0.6491 -2.0769
  131MOL    H7434134   4.561   5.938   7.324  1.2883 -0.6544 -0.9360
  131MOL    H7534135   4.304   5.917   7.447 -0.3117  0.4629  1.0990
  131MOL    H7634136   4.355   5.802   7.569  1.0881  0.1019  0.2316
  131MOL    H7734137   4.458   5.930   7.537  0.2188 -0.8302  1.5688
  131MOL    H7834138   4.815   5.822   7.113 -0.9852 -0.6092  0.1658
  131MOL    H7934139   4.714   5.965   7.149  0.6718 -0.5291 -0.5623
  131MOL    C8034140   4.831   5.897   7.325 -0.6344  0.4303 -0.2918
  131MOL    N8134141   4.866   6.034   7.350 -0.5179 -0.3602  0.0615
  131MOL    C8234142   4.786   6.136   7.372 -0.8275 -0.0378  0.4317
  131MOL    O8334143   4.665   6.131   7.344 -0.6183 -1.3480  0.0507
  131MOL    C8434144   4.850   6.262   7.416  0.9014 -0.2175 -0.8326
  131MOL    C8534145   4.954   5.803   7.346  0.2695 -0.0095  0.0870
  131MOL    H8634146   4.768   5.864   7.408  0.9126  0.2455  0.8268
  131MOL    H8734147   4.961   6.055   7.375 -0.3560 -0.1180 -0.7276
  131MOL    H8834148   4.789   6.350   7.391 -0.9327 -1.3973 -0.6023
  131MOL    H8934149   4.865   6.257   7.524  0.8940  3.4777 -0.5977
  131MOL    H9034150   4.949   6.282   7.373  1.0922  1.9477  0.5160
  131MOL    H9134151   4.979   5.807   7.452  1.2646 -1.9414 -0.0538
  131MOL    H9234152   4.917   5.700   7.345  0.8549 -0.2298  0.7358
  131MOL    C9334153   5.079   5.811   7.249  0.5638  0.0885  0.5062
  131MOL    N9434154   5.065   5.737   7.119  0.1464 -0.0906  0.1505
  131MOL    C9534155   5.091   5.768   6.989  0.2120 -0.6366  0.0623
  131MOL    O9634156   5.123   5.883   6.953 -0.4872  0.2167 -0.0422
  131MOL    C9734157   5.067   5.665   6.879  0.1238  0.1749 -0.4362
  131MOL    C9834158   5.205   5.763   7.322 -0.0128 -0.1403  0.2577
  131MOL    H9934159   5.091   5.917   7.227 -1.3551  0.3786  0.7450
  131MOL   H10034160   5.016   5.649   7.127 -0.9832  0.7112  2.5887
  131MOL   H10134161   4.975   5.609   6.894  0.3501 -0.2358 -0.5676
  131MOL   H10234162   5.060   5.722   6.787  1.6223 -0.6736 -1.0948
  131MOL   H10334163   5.147   5.592   6.883  1.3670  1.5860  1.9986
  131MOL   H10434164   5.184   5.666   7.367  2.9683  0.6819  3.6135
  131MOL   H10534165   5.287   5.744   7.253 -0.3520 -0.0932 -0.1616
  131MOL   C10634166   5.273   5.854   7.428  0.4087 -0.3188 -0.2958
  131MOL   N10734167   5.299   5.982   7.364  0.1946 -0.6947  0.2937
  131MOL   C10834168   5.232   6.095   7.396 -0.5314 -0.4767  0.0565
  131MOL   O10934169   5.136   6.101   7.478  0.2599  0.4048 -0.2939
  131MOL   C11034170   5.272   6.233   7.335 -0.1095 -0.1192  0.0937
  131MOL   C11134171   5.405   5.796   7.476 -0.1791  0.0592  0.3421
  131MOL   H11234172   5.203   5.864   7.511  1.2392  0.2571  0.3460
  131MOL   H11334173   5.373   5.986   7.294 -0.0642 -0.5662  0.0270
  131MOL   H11434174   5.234   6.233   7.233 -1.5700 -1.4609  0.6063
  131MOL   H11534175   5.227   6.316   7.389  1.4394  0.2259  0.8749
  131MOL   H11634176   5.380   6.248   7.334 -0.0310 -0.6827 -0.0251
  131MOL   H11734177   5.462   5.754   7.393 -1.8666 -2.0745  0.2166
  131MOL   H11834178   5.458   5.883   7.514 -0.2500 -0.5083  1.7777
  131MOL   C11934179   5.402   5.692   7.588 -0.2455 -0.1613 -0.2752
  131MOL   N12034180   5.349   5.752   7.706  0.4337 -0.3201  0.1628
  131MOL   C12134181   5.241   5.714   7.768 -0.3714  0.9561 -0.0479
  131MOL   O12234182   5.176   5.615   7.743  0.2509 -0.0843  0.1377
  131MOL   C12334183   5.201   5.787   0.056  0.0362 -0.0713 -0.0575
  131MOL   C12434184   5.545   5.648   7.624 -0.0800  0.4057 -0.0684
  131MOL   H12534185   5.350   5.609   7.541 -0.8925  1.1716 -1.9580
  131MOL   H12634186   5.392   5.835   7.745 -3.1548  1.2443  1.0249
  131MOL   H12734187   5.105   5.752   0.094  0.5692  0.8111  2.1564
  131MOL   H12834188   5.285   5.771   0.123  2.6178  2.3730 -2.5551
  131MOL   H12934189   5.199   5.896   0.061  0.4856 -0.1549  2.6758
  131MOL   H13034190   5.608   5.737   7.625 -0.2870  0.5505  0.3501
  131MOL   H13134191   5.548   5.597   7.721  0.5266  1.7057  0.6137
  131MOL   C13234192   5.624   5.557   7.533  0.5665  1.0812 -0.1155
  131MOL   N13334193   5.543   5.438   7.508 -0.2198 -0.0978 -0.7697
  131MOL   C13434194   5.484   5.404   7.395 -0.1741  0.8429 -0.3386
  131MOL   O13534195   5.480   5.486   7.306  0.1851  0.0210  0.7198
  131MOL   C13634196   5.430   5.261   7.381 -0.6389 -0.6985  0.1279
  131MOL   C13734197   5.751   5.503   7.607 -0.4846  0.2750 -0.0703
  131MOL   H13834198   5.653   5.604   7.439  0.8578 -2.6207 -1.9601
  131MOL   H13934199   5.559   5.367   7.578  1.6059  2.1457  1.1963
  131MOL   H14034200   5.430   5.240   7.274 -1.6663  2.3378 -0.5312
  131MOL   H14134201   5.483   5.197   7.450  0.9786 -0.6297 -1.0322
  131MOL   H14234202   5.326   5.266   7.413 -0.2078  1.2624  1.3089
  131MOL   H14334203   5.729   5.452   7.701 -2.0902  1.1803  0.0679
  131MOL   H14434204   5.803   5.434   7.542 -3.0084  0.6749 -2.6146
  131MOL   C14534205   5.858   5.615   7.622 -0.8300  0.6689  0.4298
  131MOL   N14634206   5.907   5.660   7.497 -0.0470  0.0107  0.0261
  131MOL   C14734207   5.961   5.780   7.475 -0.6179 -0.6532 -0.4749
  131MOL   O14834208   5.977   5.868   7.559 -0.4949 -0.7643 -0.8381
  131MOL   C14934209   6.002   5.805   7.331 -0.1326  1.0112  0.1093
  131MOL   C15034210   5.962   5.589   7.731  0.1752  0.8494  0.4707
  131MOL   H15134211   5.808   5.706   7.657 -1.6577 -0.5552  2.4650
  131MOL   H15234212   5.902   5.593   7.422 -1.3363  0.2470 -0.1135
  131MOL   H15334213   5.952   5.892   7.289  0.5250  0.2892 -2.2657
  131MOL   H15434214   6.111   5.812   7.334 -0.0168 -0.5442 -0.1266
  131MOL   H15534215   5.966   5.716   7.280  1.1784 -1.4918  3.3305
  131MOL   H15634216   5.984   5.482   7.730 -1.8849  0.4066 -0.3001
  131MOL   H15734217   6.049   5.652   7.711 -0.4038  1.9450  1.3426
  131MOL   C15834218   5.923   5.643   0.034 -0.4020 -0.7351 -0.4129
  131MOL   N15934219   6.047   5.621   0.116 -0.5287 -0.1229 -0.4219
  131MOL   C16034220   6.067   5.515   0.191 -0.3438  0.2347 -0.0499
  131MOL   O16134221   6.003   5.410   0.193 -0.2074 -0.3413 -0.8551
  131MOL   C16234222   6.188   5.535   0.282  0.0472  0.9506 -0.0725
  131MOL   C16334223   5.787   5.607   0.096  0.2168 -0.0517  0.4403
  131MOL   H16434224   5.921   5.752   0.029  2.0139 -0.5518  1.5993
  131MOL   H16534225   6.099   5.703   0.144  0.7833 -1.3212  0.7314
  131MOL   H16634226   6.280   5.509   0.230 -0.1860  0.0481 -0.0286
  131MOL   H16734227   6.199   5.637   0.319  1.6522  0.8551 -0.2497
  131MOL   H16834228   6.183   5.465   0.366  1.5384 -1.3589 -1.8668
  131MOL   H16934229   5.700   5.640   0.040  0.5343 -1.8255 -1.1547
  131MOL   H17034230   5.771   5.500   0.079 -1.3266  0.3167 -0.4969
  131MOL   C17134231   5.761   5.633   0.246 -0.2663  1.0926  0.8800
  131MOL   N17234232   5.674   5.529   0.299 -0.9799  0.1151 -0.5404
  131MOL   C17334233   5.548   5.509   0.285  0.1644 -0.8656 -0.0994
  131MOL   O17434234   5.482   5.575   0.202 -0.2249  0.1983 -0.7007
  131MOL   C17534235   5.480   5.401   0.373  0.3261  1.0318 -0.0843
  131MOL   C17634236   5.719   5.780   0.277  0.4602  0.3217  0.6334
  131MOL   H17734237   5.853   5.618   0.303  1.1504 -0.8574 -1.8122
  131MOL   H17834238   5.719   5.460   0.358  0.2073  1.7613  0.5076
  131MOL   H17934239   5.547   5.315   0.372  0.3693  1.0775 -3.1587
  131MOL   H18034240   5.451   5.434   0.473  1.3440  0.2955  0.4617
  131MOL   H18134241   5.389   5.366   0.323  1.1142 -1.9051  0.4168
  131MOL   H18234242   5.640   5.807   0.206  0.9987 -0.7740 -0.3992
  131MOL   H18334243   5.666   5.772   0.372 -0.4624  1.4547  0.2290
  131MOL   C18434244   5.818   5.903   0.293  0.2590  0.3595  0.2010
  131MOL   N18534245   5.932   5.867   0.377 -0.7129  0.0244 -0.1419
  131MOL   C18634246   5.940   5.814   0.496  0.3240  0.0634 -0.1721
  131MOL   O18734247   5.857   5.760   0.559 -0.6314  0.4609 -1.0537
  131MOL   C18834248   6.080   5.833   0.560 -0.2040  0.1108 -0.2243
  131MOL   C18934249   5.742   6.024   0.354 -0.2003 -0.8807  0.8216
  131MOL   H19034250   5.861   5.933   0.197 -0.6772  0.3781 -0.2122
  131MOL   H19134251   6.016   5.900   0.331 -0.0329 -0.2350  0.8919
  131MOL   H19234252   6.130   5.929   0.561 -0.8965  0.4728  1.3140
  131MOL   H19334253   6.073   5.792   0.661  0.3573 -2.1845 -1.0701
  131MOL   H19434254   6.154   5.775   0.504  0.2697 -0.6652  1.1738
  131MOL   H19534255   5.694   5.985   0.444  1.1158 -1.4354  1.3039
  131MOL   H19634256   5.814   6.100   0.387 -1.3134  1.4104 -1.8486
  131MOL   C19734257   5.648   6.090   0.257 -0.1399 -0.5260  0.2710
  131MOL   N19834258   5.714   6.128   0.132  0.1479 -0.2504 -0.5515
  131MOL   C19934259   5.701   6.065   0.013 -0.1591  0.3261 -0.5774
  131MOL   O20034260   5.613   5.976   7.831 -0.3948 -0.2291 -0.0013
  131MOL   C20134261   5.794   6.100   7.739  0.4960  0.4327 -0.4469
  131MOL   C20234262   5.573   6.213   0.312 -0.3657  0.1628  0.9683
  131MOL   H20334263   5.571   6.025   0.216 -1.1942  0.3679  0.8262
  131MOL   H20434264   5.797   6.181   0.157 -0.1436 -0.0989  0.1068
  131MOL   H20534265   5.855   6.186   7.768 -1.3071  1.2367  1.1074
  131MOL   H20634266   5.841   6.004   7.721  0.0659 -0.1986  1.5740
  131MOL   H20734267   5.726   6.132   7.660 -0.0163  0.9596  0.1887
  131MOL   H20834268   5.633   6.300   0.339  0.8064 -1.2154  3.0180
  131MOL   H20934269   5.511   6.248   0.229  1.0784  1.2319  0.3318
  131MOL   C21034270   5.467   6.181   0.426  0.6169  0.2685 -0.4571
  131MOL   N21134271   5.385   6.063   0.401  0.1913 -0.4202 -0.6737
  131MOL   C21234272   5.365   5.958   0.488  0.2337 -0.4561 -0.3192
  131MOL   O21334273   5.417   5.950   0.599  0.2774  0.4279 -0.6196
  131MOL   C21434274   5.294   5.836   0.442 -0.0407 -0.4263  0.0842
  131MOL   C21534275   5.388   6.302   0.487  0.5716  0.1488  0.5222
  131MOL   H21634276   5.535   6.154   0.507  1.9220  2.9441 -0.6072
  131MOL   H21734277   5.342   6.050   0.311 -3.4835 -1.1796  1.1208
  131MOL   H21834278   5.200   5.827   0.496 -0.8135 -0.6268 -1.2686
  131MOL   H21934279   5.279   5.831   0.334 -1.8485  3.2189  0.0889
  131MOL   H22034280   5.358   5.752   0.471  1.5839  0.8664  0.3218
  131MOL   H22134281   5.316   6.255   0.553  0.0567 -1.0168 -0.8392
  131MOL   H22234282   5.464   6.360   0.539  0.1870 -0.9664  2.3573
  131MOL   C22334283   5.314   6.390   0.390 -0.4214  0.7404 -0.7351
  131MOL   N22434284   5.296   6.517   0.462  0.4058 -0.6005 -0.0080
  131MOL   C22534285   5.388   6.616   0.461 -0.5818  0.1259  0.6280
  131MOL   O22634286   5.507   6.606   0.411 -0.0994  0.2867  0.3592
  131MOL   C22734287   5.349   6.741   0.522  0.1052 -0.1682 -1.0114
  131MOL   C22834288   5.182   6.338   0.324  0.5100  0.2782 -0.2438
  131MOL   H22934289   5.381   6.415   0.308  0.6084  3.3984  0.8512
  131MOL   H23034290   5.207   6.529   0.508 -1.1958 -2.6317 -2.4424
  131MOL   H23134291   5.433   6.806   0.546  1.4668 -2.3393  0.2720
  131MOL   H23234292   5.293   6.803   0.452 -0.8077 -0.1984 -0.3290
  131MOL   H23334293   5.298   6.720   0.616 -1.3531  0.6844 -1.5906
  131MOL   H23434294   5.227   6.246   0.285 -1.6073 -0.9114  0.0239
  131MOL   H23534295   5.113   6.297   0.398 -1.5574  0.7116 -1.8935
  131MOL   C23634296   5.119   6.420   0.206 -0.8562 -0.0614 -0.1395
  131MOL   N23734297   5.063   6.542   0.258 -0.5646  0.4091 -0.3662
  131MOL   C23834298   5.096   6.658   0.198 -0.4514  0.2069 -0.2589
  131MOL   O23934299   5.163   6.667   0.093 -0.3250 -0.4322  0.3562
  131MOL   C24034300   5.055   6.792   0.263  0.1958  0.4736 -0.6146
  131MOL   C24134301   5.009   6.340   0.127 -0.5125 -0.4127 -0.1355
  131MOL   H24234302   5.197   6.424   0.130 -1.7766 -1.5468 -1.1783
  131MOL   H24334303   5.010   6.545   0.344 -0.0519  1.3878 -0.0817
  131MOL   H24434304   5.126   6.873   0.247  0.8091  0.2089  0.7103
  131MOL   H24534305   4.968   6.833   0.211 -0.2426  1.2764  0.7050
  131MOL   H24634306   5.038   6.784   0.371 -1.8745  1.6292 -0.8279
  131MOL   H24734307   4.927   6.312   0.193  0.0579 -2.9422 -0.4551
  131MOL   H24834308   4.964   6.413   0.060 -1.0274  0.6334  1.3219
  131MOL   C24934309   5.060   6.211   0.061  0.3488 -0.2573 -0.3174
  131MOL   N25034310   5.172   6.229   7.813 -0.7494  0.3360 -0.0011
  131MOL   C25134311   5.294   6.183   0.000  0.0899 -0.2216  0.5392
  131MOL   O25234312   5.332   6.117   0.103  0.0882  0.5743 -0.2678
  131MOL   C25334313   5.396   6.217   7.728 -0.3374 -0.3864 -0.1555
  131MOL   C25434314   4.946   6.145   7.825  0.8314  0.4793  0.2983
  131MOL   H25534315   5.088   6.153   0.149  2.5565  0.3238 -0.6038
  131MOL   H25634316   5.153   6.232   7.714  2.0071  0.7437 -0.5667
  131MOL   H25734317   5.384   6.146   7.646  0.2563 -1.3236  0.5507
  131MOL   H25834318   5.379   6.319   7.694 -0.3596 -0.5412 -0.6172
  131MOL   H25934319   5.498   6.226   7.764 -0.0228 -0.2183 -1.0888
  131MOL   H26034320   4.987   6.046   7.800  1.0397  0.6167  0.0922
  131MOL   H26134321   4.859   6.146   0.050  1.1399  1.1370  0.6998
  131MOL   H26234322   4.924   6.195   7.731 -1.0710 -0.3194  0.2957
  132MOL     C134323   6.166   6.029   3.392  0.0738 -0.3938  0.3092
  132MOL     N234324   6.292   5.965   3.375 -0.4377  0.0112  0.6431
  132MOL     C334325   6.336   5.895   3.264  0.0210 -0.6306  0.0483
  132MOL     O434326   6.269   5.871   3.166  0.3378 -0.0171 -0.2952
  132MOL     C534327   6.473   5.844   3.278 -0.1398 -0.0047 -0.7420
  132MOL     C634328   6.182   6.152   3.488  0.0985  0.0643  0.5358
  132MOL     H734329   6.106   6.046   3.303 -0.0974 -0.8511  0.3331
  132MOL     H834330   6.360   5.967   3.450 -0.3441 -2.5373  0.6840
  132MOL     H934331   6.457   5.753   3.336  1.7469 -1.1479 -1.9544
  132MOL    H1034332   6.521   5.807   3.188  0.1010  3.3682 -2.0529
  132MOL    H1134333   6.534   5.916   3.332 -1.1133  1.5236 -1.6545
  132MOL    H1234334   6.261   6.130   3.560  2.1062  1.3001 -1.2495
  132MOL    H1334335   6.211   6.237   3.427 -0.7005  0.0246  0.0970
  132MOL    H1434336   6.110   5.952   3.447  0.8776 -1.2590 -0.0706
  132MOL    C1534337   6.058   6.196   3.567 -0.0762  0.6349 -0.4015
  132MOL    N1634338   6.068   6.339   3.596  0.4517  0.0461  0.3967
  132MOL    C1734339   5.983   6.429   3.548 -0.0947  0.0914 -0.4242
  132MOL    O1834340   5.910   6.406   3.454  0.3098  0.1967 -0.0991
  132MOL    C1934341   5.961   6.562   3.627  0.3885  0.0658  0.0043
  132MOL    C2034342   6.059   6.124   3.707 -0.6641 -0.2933 -1.1319
  132MOL    H2134343   5.968   6.171   3.511 -0.7191 -0.3366  1.0407
  132MOL    H2234344   6.130   6.359   3.673  0.0216 -2.5918  1.4685
  132MOL    H2334345   5.857   6.594   3.630  0.6366  1.2430 -2.5076
  132MOL    H2434346   5.984   6.537   3.731 -0.1090 -0.1187  0.0707
  132MOL    H2534347   6.015   6.639   3.572 -0.5392 -0.1821 -1.2646
  132MOL    H2634348   6.141   6.178   3.755  0.2462 -1.7073 -1.0964
  132MOL    H2734349   5.970   6.157   3.762 -1.1662 -1.2289 -1.3816
  132MOL    C2834350   6.071   5.970   3.720 -0.5049 -0.7224 -0.6353
  132MOL    N2934351   5.944   5.907   3.677 -0.3170 -0.4139 -0.5464
  132MOL    C3034352   5.932   5.778   3.644  0.0300 -0.0947 -0.1194
  132MOL    O3134353   6.028   5.706   3.651 -0.1278 -0.5845 -0.4237
  132MOL    C3234354   5.798   5.728   3.598  0.3098  0.0016 -0.2872
  132MOL    C3334355   6.122   5.929   3.856  0.4828 -0.7011 -0.7286
  132MOL    H3434356   6.151   5.944   3.651  2.2196 -1.4945  2.7061
  132MOL    H3534357   5.859   5.960   3.667  0.3314  0.6654 -0.3396
  132MOL    H3634358   5.770   5.629   3.633  1.4151  1.2756  4.5869
  132MOL    H3734359   5.719   5.796   3.630  0.8788  1.3467 -1.6452
  132MOL    H3834360   5.787   5.741   3.490 -1.5966 -0.1163 -0.1191
  132MOL    H3934361   6.063   5.981   3.931  2.7445  3.4823 -1.6704
  132MOL    H4034362   6.103   5.822   3.863 -1.4601 -0.2526  1.1252
  132MOL    C4134363   6.271   5.955   3.883  0.3152  0.3257 -0.1817
  132MOL    N4234364   6.352   5.855   3.820  0.2910 -1.0543 -0.4779
  132MOL    C4334365   6.401   5.868   3.699 -0.4930 -0.3286 -0.5167
  132MOL    O4434366   6.418   5.978   3.646  0.2454 -0.0949  0.1711
  132MOL    C4534367   6.477   5.749   3.643  0.3473  0.6262 -0.3932
  132MOL    C4634368   6.290   5.944   4.039  0.0288 -0.0464  0.4751
  132MOL    H4734369   6.304   6.057   3.861  0.4762  0.0184 -1.3753
  132MOL    H4834370   6.374   5.769   3.869  4.5884  0.1848 -0.1157
  132MOL    H4934371   6.490   5.765   3.536 -2.1451 -0.9739 -0.9802
  132MOL    H5034372   6.571   5.738   3.697 -0.3262 -1.3392  0.4071
  132MOL    H5134373   6.423   5.654   3.651  1.1493  0.2444  0.5125
  132MOL    H5234374   6.208   5.988   4.097  0.5222  0.4141  0.8219
  132MOL    H5334375   6.279   5.838   4.059 -0.8362 -0.8331 -3.5941
  132MOL    C5434376   6.421   6.011   4.096 -0.5482  0.2072 -0.2213
  132MOL    N5534377   6.539   5.971   4.012 -0.0032  0.7950 -0.0830
  132MOL    C5634378   6.607   6.057   3.931  0.0694  0.4689  0.8054
  132MOL    O5734379   6.585   6.179   3.925 -0.2155 -0.1231 -0.1267
  132MOL    C5834380   6.711   5.978   3.839  0.1844 -0.1029 -0.4153
  132MOL    C5934381   6.450   5.980   4.241 -0.1446  0.0221 -0.3882
  132MOL    H6034382   6.403   6.118   4.101 -1.2640  0.0029  2.0011
  132MOL    H6134383   6.543   5.874   3.984 -0.6311  1.1580 -1.4787
  132MOL    H6234384   6.812   6.012   3.859 -0.5210  2.1717 -0.5463
  132MOL    H6334385   6.711   5.871   3.857 -1.7604  0.3127  2.4201
  132MOL    H6434386   6.679   6.002   3.738  1.1053  1.6788 -0.3065
  132MOL    H6534387   6.454   5.873   4.262 -0.6140 -0.0336 -0.5737
  132MOL    H6634388   6.548   6.014   4.273 -1.3014  1.4725  1.7151
  132MOL    C6734389   6.348   6.036   4.348 -0.6389  0.8488  0.4991
  132MOL    N6834390   6.333   6.184   4.345 -0.8131 -0.5143  0.6859
  132MOL    C6934391   6.225   6.254   4.379  0.0470  0.3185 -0.2833
  132MOL    O7034392   6.124   6.202   4.419  0.0993  0.0706  0.0989
  132MOL    C7134393   6.245   6.405   4.381  0.3488 -0.1126  0.3784
  132MOL    C7234394   6.372   5.993   4.500  0.5096  0.2800 -0.0573
  132MOL    H7334395   6.251   5.992   4.325 -0.0523  0.0265 -0.4038
  132MOL    H7434396   6.423   6.229   4.336 -0.3316 -1.7743 -1.1024
  132MOL    H7534397   6.157   6.459   4.346  0.4347 -0.0949  0.1902
  132MOL    H7634398   6.279   6.426   4.483  2.4566  1.8220 -0.6837
  132MOL    H7734399   6.328   6.437   4.320 -0.1578  1.6633  0.5865
  132MOL    H7834400   6.481   5.994   4.507  0.4970 -2.3733  0.9303
  132MOL    H7934401   6.353   6.064   4.581  2.6142 -1.0389  1.6497
  132MOL    C8034402   6.322   5.849   4.534 -0.2841  0.3853 -0.0336
  132MOL    N8134403   6.207   5.857   4.618 -0.7287 -0.8072 -0.0437
  132MOL    C8234404   6.078   5.833   4.586  0.7787  0.4204 -0.5074
  132MOL    O8334405   5.990   5.863   4.667  0.0611 -0.2084  0.2920
  132MOL    C8434406   6.042   5.760   4.459 -0.2284 -0.1249  0.8513
  132MOL    C8534407   6.425   5.766   4.612  0.3887 -0.8125  0.4037
  132MOL    H8634408   6.294   5.793   4.444 -0.1507 -0.7019  0.5902
  132MOL    H8734409   6.217   5.897   4.710  0.1983 -0.0066 -0.4805
  132MOL    H8834410   6.112   5.678   4.447 -2.2991 -2.0161  1.3611
  132MOL    H8934411   5.944   5.713   4.468  0.3523 -1.2578  1.2330
  132MOL    H9034412   6.056   5.827   4.373  2.4327 -0.4879  0.9727
  132MOL    H9134413   6.454   5.834   4.693  0.5831  0.8702 -1.0491
  132MOL    H9234414   6.380   5.677   4.656  1.7270 -2.0920 -0.7697
  132MOL    C9334415   6.552   5.722   4.537 -0.1433  0.4221 -0.0084
  132MOL    N9434416   6.526   5.612   4.448 -0.3494 -0.0824  0.1087
  132MOL    C9534417   6.587   5.603   4.326  0.2765  0.6893  0.2127
  132MOL    O9634418   6.627   5.702   4.270  0.1999 -0.2231 -0.0914
  132MOL    C9734419   6.578   5.469   4.258  0.2483  0.6502 -0.8317
  132MOL    C9834420   6.660   5.678   4.637 -0.2922  0.2482 -0.1507
  132MOL    H9934421   6.588   5.808   4.481 -0.3237  0.7605  0.3981
  132MOL   H10034422   6.481   5.526   4.474  2.7379 -2.0178 -0.7165
  132MOL   H10134423   6.474   5.439   4.243  0.1774  1.3852 -1.9125
  132MOL   H10234424   6.635   5.463   4.165  0.4888 -1.2585 -0.5876
  132MOL   H10334425   6.617   5.395   4.328  0.1323 -0.1928 -1.6457
  132MOL   H10434426   6.617   5.625   4.722  1.7687 -0.7729  0.3017
  132MOL   H10534427   6.716   5.600   4.585  0.3700  2.5541 -3.0025
  132MOL   C10634428   6.762   5.781   4.673 -0.4398 -0.1127 -0.1935
  132MOL   N10734429   6.842   5.805   4.556  0.8742 -0.2857  0.8180
  132MOL   C10834430   6.888   5.925   4.518 -0.6064  0.5936 -0.4291
  132MOL   O10934431   6.861   6.029   4.583  0.5377 -0.2261 -0.7352
  132MOL   C11034432   6.968   5.927   4.386 -0.3989  0.2499 -0.1379
  132MOL   C11134433   6.845   5.732   4.798 -0.4487  0.4486  0.2762
  132MOL   H11234434   6.715   5.876   4.698 -0.3376 -0.2542  0.5335
  132MOL   H11334435   6.876   5.730   4.499 -3.7563 -0.7899 -1.4718
  132MOL   H11434436   6.976   6.025   4.340  0.8028  0.3985  0.3581
  132MOL   H11534437   7.072   5.910   4.414 -0.8440 -1.7186  0.4198
  132MOL   H11634438   6.934   5.853   4.312 -1.8032  1.0234 -0.2691
  132MOL   H11734439   6.780   5.717   4.885 -0.5812 -2.3519 -0.2602
  132MOL   H11834440   6.874   5.627   4.790 -0.2328  0.1439  3.9379
  132MOL   C11934441   6.965   5.821   4.845 -0.2845  0.3306  0.6480
  132MOL   N12034442   6.939   5.967   4.845 -0.1579  0.0385  0.5307
  132MOL   C12134443   6.987   6.058   4.929 -1.1480  0.0205  0.4605
  132MOL   O12234444   7.042   6.027   5.035 -0.5321 -0.1390  0.6590
  132MOL   C12334445   6.994   6.201   4.878 -0.8714  0.7934  0.3691
  132MOL   C12434446   7.093   5.793   4.772  0.3993 -0.6232 -0.2060
  132MOL   H12534447   6.978   5.799   4.951 -1.1988  2.2010  1.1865
  132MOL   H12634448   6.896   6.001   4.760  0.0832  2.1539  1.2298
  132MOL   H12734449   6.928   6.216   4.792 -4.4662  0.3746  2.9653
  132MOL   H12834450   6.969   6.269   4.959 -2.3344  1.7024 -0.8135
  132MOL   H12934451   7.099   6.212   4.849 -1.6582 -1.4170 -3.7984
  132MOL   H13034452   7.094   5.823   4.667  1.1219  1.6216  0.4118
  132MOL   H13134453   7.161   5.869   4.811 -1.1244  0.0369  1.2135
  132MOL   C13234454   7.161   5.659   4.797  0.3497  0.0047 -0.0798
  132MOL   N13334455   7.228   5.663   4.930  0.7382 -0.6951  0.0366
  132MOL   C13434456   7.185   5.608   5.045  0.4233 -0.4809  0.3428
  132MOL   O13534457   7.094   5.521   5.045  0.1459 -0.3204  0.5239
  132MOL   C13634458   7.256   5.647   5.175  0.2750 -0.3314  0.9297
  132MOL   C13734459   7.266   5.618   4.694 -0.2041  0.6790 -0.1851
  132MOL   H13834460   7.088   5.577   4.796 -0.6147  0.8573 -0.1138
  132MOL   H13934461   7.301   5.732   4.945  0.9895 -0.0965 -3.5506
  132MOL   H14034462   7.342   5.709   5.151 -1.7924  1.5720 -2.0758
  132MOL   H14134463   7.192   5.703   5.243 -0.9630 -2.7580  1.8125
  132MOL   H14234464   7.287   5.552   5.217 -1.0665 -1.4062 -0.4533
  132MOL   H14334465   7.339   5.698   4.686  0.3387  0.0907 -1.3027
  132MOL   H14434466   7.322   5.534   4.735 -0.8189  0.9562  1.2538
  132MOL   C14534467   7.215   5.600   4.554  0.4306 -0.3731 -0.4365
  132MOL   N14634468   7.110   5.491   4.551 -0.4280  0.3106  0.6058
  132MOL   C14734469   7.000   5.496   4.474  0.0161  0.1106  0.0710
  132MOL   O14834470   6.966   5.585   4.400 -0.1830  0.6128 -0.3543
  132MOL   C14934471   6.905   5.378   4.487  0.2011  0.1088 -0.8162
  132MOL   C15034472   7.318   5.587   4.443  0.0229 -0.0703  0.6025
  132MOL   H15134473   7.170   5.697   4.531 -0.4306 -0.4741  0.7557
  132MOL   H15234474   7.127   5.410   4.608  2.2731 -1.5523 -2.6314
  132MOL   H15334475   6.830   5.390   4.565  1.8038 -2.2708  1.1585
  132MOL   H15434476   6.839   5.370   4.401  0.0948 -0.0006 -0.7229
  132MOL   H15534477   6.967   5.292   4.510  0.2618  1.0297  2.8110
  132MOL   H15634478   7.361   5.489   4.462  0.6771  0.1009  0.0292
  132MOL   H15734479   7.269   5.571   4.347 -2.1558  1.1844  1.4842
  132MOL   C15834480   7.430   5.698   4.427  0.1774 -0.5655  0.0479
  132MOL   N15934481   7.451   5.724   4.283 -0.0628 -0.0095  0.2382
  132MOL   C16034482   7.401   5.822   4.205  0.2286  1.4362  0.0051
  132MOL   O16134483   7.309   5.887   4.246 -0.2721  0.1170 -0.7077
  132MOL   C16234484   7.447   5.837   4.064 -0.3317 -0.3037  0.0132
  132MOL   C16334485   7.566   5.656   4.498  0.1819 -0.1436  0.2003
  132MOL   H16434486   7.400   5.786   4.485 -2.1601 -1.6920  0.6214
  132MOL   H16534487   7.530   5.675   4.244  0.5560  1.1059  0.0815
  132MOL   H16634488   7.370   5.789   4.004 -2.1127  1.6678  0.6620
  132MOL   H16734489   7.457   5.940   4.029 -1.2950 -0.5979 -1.1778
  132MOL   H16834490   7.541   5.784   4.049 -0.9465 -1.3089 -0.3292
  132MOL   H16934491   7.545   5.590   4.582 -0.7200 -1.4188 -1.0001
  132MOL   H17034492   7.613   5.590   4.426  1.3130 -0.6551  1.3900
  132MOL   C17134493   7.658   5.774   4.525 -0.1655 -0.3854 -0.1684
  132MOL   N17234494   7.796   5.735   4.514 -0.2107  0.4608 -0.2048
  132MOL   C17334495   0.052   5.806   4.446  0.6484 -0.2038  0.0601
  132MOL   O17434496   0.030   5.913   4.382 -0.0720  0.2334  0.0102
  132MOL   C17534497   0.204   5.750   4.445  0.4413 -0.3151  0.5870
  132MOL   C17634498   7.628   5.831   4.664  0.7885 -0.1943 -0.1601
  132MOL   H17734499   7.645   5.844   4.442  1.5234  0.0111 -0.1234
  132MOL   H17834500   7.817   5.652   4.567 -2.7220  0.1285  0.3464
  132MOL   H17934501   0.252   5.793   4.533  1.5348  2.1096 -1.1226
  132MOL   H18034502   0.202   5.643   4.464 -0.8712 -0.1210  1.6793
  132MOL   H18134503   0.257   5.772   4.352 -0.3622 -0.1258  0.1683
  132MOL   H18234504   7.519   5.824   4.671  0.8426 -1.7912 -0.7516
  132MOL   H18334505   7.672   5.766   4.741  1.0248 -0.6177 -0.6448
  132MOL   C18434506   7.649   5.975   4.711  0.1811  0.0754 -0.1109
  132MOL   N18534507   7.786   6.017   4.704 -0.6887 -0.1259  0.2176
  132MOL   C18634508   0.052   5.959   4.760 -0.2376 -0.2873 -0.1049
  132MOL   O18734509   0.040   5.862   4.837 -0.5197  0.0884 -0.0973
  132MOL   C18834510   0.193   6.012   4.735  0.2542 -0.0571  0.4680
  132MOL   C18934511   7.607   6.006   4.853 -0.3579  0.0983 -0.0634
  132MOL   H19034512   7.596   6.040   4.641 -0.2993  0.9561  1.0450
  132MOL   H19134513   7.801   6.097   4.645  0.2368 -0.0791  0.4999
  132MOL   H19234514   0.261   5.939   4.779 -0.6549  0.0447  2.0966
  132MOL   H19334515   0.200   6.025   4.627 -1.4750 -2.1850  0.0662
  132MOL   H19434516   0.194   6.111   4.780  0.1137 -1.2417  3.2049
  132MOL   H19534517   7.645   5.926   4.916  0.3981  2.0969  2.1101
  132MOL   H19634518   7.650   6.097   4.894  0.9037 -1.0573  1.2346
  132MOL   C19734519   7.446   6.009   4.867 -0.0510  0.5599  0.1775
  132MOL   N19834520   7.380   6.098   4.771  0.0258  0.0347  0.0301
  132MOL   C19934521   7.313   6.061   4.662 -0.0343  0.2443  0.7279
  132MOL   O20034522   7.315   5.945   4.614 -0.3884  0.5361  0.1726
  132MOL   C20134523   7.253   6.175   4.590 -0.6381 -0.8309  0.3702
  132MOL   C20234524   7.403   6.020   5.014  0.0814  0.0618  0.3675
  132MOL   H20334525   7.424   5.906   4.840  1.1766  0.9127 -2.2669
  132MOL   H20434526   7.377   6.199   4.778 -2.3285  0.1585 -1.8702
  132MOL   H20534527   7.155   6.136   4.562 -0.9369  0.6600 -0.7430
  132MOL   H20634528   7.246   6.274   4.635 -0.1694  0.0180 -1.4072
  132MOL   H20734529   7.314   6.192   4.501  1.0212 -1.6434  1.3271
  132MOL   H20834530   7.295   6.009   5.015  0.1481 -0.6575 -0.2666
  132MOL   H20934531   7.431   5.927   5.064  0.0557 -0.3108 -0.2986
  132MOL   C21034532   7.456   6.136   5.099  0.5721  0.2327 -0.4481
  132MOL   N21134533   7.397   6.113   5.234 -0.8185  0.4016 -0.2814
  132MOL   C21234534   7.433   6.016   5.320 -0.6529 -0.7061  0.4047
  132MOL   O21334535   7.527   5.949   5.297  0.1227  0.1949 -0.1180
  132MOL   C21434536   7.339   5.996   5.440  0.1039  0.3693  0.4502
  132MOL   C21534537   7.408   6.276   5.058 -0.1584  0.0925  0.5093
  132MOL   H21634538   7.565   6.130   5.103  0.5258 -0.3138  0.0298
  132MOL   H21734539   7.309   6.161   5.238  0.6729  3.2098  0.5392
  132MOL   H21834540   7.335   6.089   5.496  1.9971 -0.5528  2.1827
  132MOL   H21934541   7.239   5.966   5.409  1.0183 -2.1320 -0.1476
  132MOL   H22034542   7.382   5.920   5.504  0.6199  0.1581 -0.1466
  132MOL   H22134543   7.359   6.260   4.962  0.4172 -1.4755  0.4514
  132MOL   H22234544   7.325   6.307   5.121 -0.3973 -0.3186  0.3979
  132MOL   C22334545   7.515   6.386   5.052 -0.7934  0.2931  0.2521
  132MOL   N22434546   7.610   6.365   4.945  0.1459 -0.4094  0.5223
  132MOL   C22534547   7.589   6.396   4.814 -0.1396 -0.0368  0.4103
  132MOL   O22634548   7.483   6.419   4.765  0.2664 -0.4394  0.1523
  132MOL   C22734549   7.717   6.407   4.733  0.0299 -0.5056  0.3772
  132MOL   C22834550   7.586   6.419   5.190 -0.2160  0.1150 -0.3507
  132MOL   H22934551   7.454   6.471   5.024 -0.8241 -0.0584 -0.7656
  132MOL   H23034552   7.705   6.341   4.969  0.3747  0.1368  0.1700
  132MOL   H23134553   7.684   6.387   4.632 -0.3877  1.8971  0.0018
  132MOL   H23234554   7.764   6.505   4.742 -0.6614 -0.1401  0.0288
  132MOL   H23334555   7.796   6.345   4.775  0.4636  0.1515  0.5546
  132MOL   H23434556   7.634   6.331   5.233  1.1858  0.2788 -1.5390
  132MOL   H23534557   7.666   6.492   5.178  1.4769 -1.7734 -0.9046
  132MOL   C23634558   7.490   6.481   5.294  0.2688 -0.1397  0.3892
  132MOL   N23734559   7.454   6.617   5.251 -0.2167 -0.1524  0.3127
  132MOL   C23834560   7.329   6.647   5.226  0.1003 -0.1750 -0.3833
  132MOL   O23934561   7.230   6.575   5.255 -0.2625 -0.0754  0.2341
  132MOL   C24034562   7.301   6.788   5.172 -0.1754  0.2939 -1.1289
  132MOL   C24134563   7.556   6.486   5.438 -0.4261  0.2220 -0.7800
  132MOL   H24234564   7.404   6.414   5.300  0.0586  0.2348  1.6529
  132MOL   H24334565   7.525   6.689   5.253 -0.3374  0.0137 -0.9845
  132MOL   H24434566   7.198   6.814   5.198  0.4062  1.1798  0.3900
  132MOL   H24534567   7.354   6.858   5.237  0.9214 -2.0815  0.6239
  132MOL   H24634568   7.328   6.796   5.067  2.4530 -2.4302 -0.7396
  132MOL   H24734569   7.591   6.385   5.463  1.0536  1.0960  0.8319
  132MOL   H24834570   7.650   6.540   5.426 -0.3814 -0.4079 -3.5514
  132MOL   C24934571   7.467   6.546   5.549  0.1969 -0.0209 -0.4870
  132MOL   N25034572   7.547   6.603   5.654  0.0088 -0.4082 -0.2912
  132MOL   C25134573   7.530   6.717   5.728  0.1536  0.3975  0.3879
  132MOL   O25234574   7.622   6.764   5.800  0.9738 -0.8197 -0.4891
  132MOL   C25334575   7.397   6.789   5.714 -0.3537 -0.4433 -0.5489
  132MOL   C25434576   7.367   6.454   5.618 -0.1690  0.1324 -0.1974
  132MOL   H25534577   7.415   6.629   5.500 -1.8942 -0.4557  0.9281
  132MOL   H25634578   7.637   6.560   5.672  0.7642  1.3041  0.2191
  132MOL   H25734579   7.323   6.724   5.761  1.1926 -0.0911  2.5138
  132MOL   H25834580   7.395   6.877   5.779 -4.7959 -0.9057  0.0897
  132MOL   H25934581   7.388   6.824   5.611 -0.1259 -1.7791 -1.0251
  132MOL   H26034582   7.412   6.395   5.698  1.2221  1.7322  0.2490
  132MOL   H26134583   7.286   6.504   5.671  1.2518 -0.2873  2.4728
  132MOL   H26234584   7.332   6.379   5.547 -1.3130 -2.2741  2.8388
  133MOL     C134585   3.253   0.773   1.293 -0.4614 -0.6727 -0.6839
  133MOL     N234586   3.229   0.872   1.189 -0.5680 -0.2836  0.0080
  133MOL     C334587   3.318   0.927   1.109 -0.5788  0.8395  0.1762
  133MOL     O434588   3.438   0.901   1.129 -0.3176 -0.1751  0.1439
  133MOL     C534589   3.281   1.025   0.999  0.4572 -0.1800 -0.0669
  133MOL     C634590   3.292   0.847   1.423 -0.0375 -0.3247  0.1066
  133MOL     H734591   3.161   0.716   1.304 -1.0101  0.4487  0.7115
  133MOL     H834592   3.131   0.895   1.183 -0.4184  0.1143 -1.2456
  133MOL     H934593   3.242   0.965   0.917 -0.9325 -0.2889  0.6591
  133MOL    H1034594   3.203   1.095   1.030 -0.3070 -2.3120  3.0327
  133MOL    H1134595   3.367   1.075   0.955 -0.0898  0.2146 -0.6957
  133MOL    H1234596   3.389   0.889   1.396  0.6435 -2.1348 -0.3238
  133MOL    H1334597   3.231   0.936   1.432  0.1182 -0.2341  0.2552
  133MOL    H1434598   3.320   0.694   1.261 -0.4334 -1.5298  1.4051
  133MOL    C1534599   3.309   0.770   1.553  0.3168 -0.4983  0.0309
  133MOL    N1634600   3.388   0.652   1.542 -0.0826 -0.4239 -0.2354
  133MOL    C1734601   3.447   0.591   1.643  0.4332  0.1219 -0.7045
  133MOL    O1834602   3.439   0.628   1.762  0.4717 -0.0815  0.1298
  133MOL    C1934603   3.524   0.469   1.605 -0.3663 -0.9804  0.2779
  133MOL    C2034604   3.177   0.736   1.624 -0.3936 -1.0764  0.0171
  133MOL    H2134605   3.371   0.829   1.620  3.7294 -1.3389 -2.2724
  133MOL    H2234606   3.378   0.597   1.458  2.9118 -0.2251 -0.7472
  133MOL    H2334607   3.503   0.392   1.679 -0.0855 -1.0357  0.3011
  133MOL    H2434608   3.512   0.428   1.505 -1.0727  1.4816 -0.6902
  133MOL    H2534609   3.628   0.494   1.627 -0.3093 -1.3677  0.4516
  133MOL    H2634610   3.117   0.666   1.566 -1.2132  0.5685 -1.1734
  133MOL    H2734611   3.185   0.679   1.717 -2.9450  0.4055  1.2191
  133MOL    C2834612   3.084   0.858   1.657  0.4781  0.8195 -0.6400
  133MOL    N2934613   3.155   0.941   1.761 -0.2934  0.6782  0.3056
  133MOL    C3034614   3.183   1.070   1.757  0.4686 -0.1043  0.0465
  133MOL    O3134615   3.139   1.138   1.666  0.1353 -0.5316 -0.0711
  133MOL    C3234616   3.275   1.127   1.864 -0.4714 -0.4392  0.3009
  133MOL    C3334617   2.956   0.811   1.727 -0.0059 -0.4842  0.2612
  133MOL    H3434618   3.053   0.910   1.565 -0.8832 -0.6434 -1.0324
  133MOL    H3534619   3.186   0.891   1.843 -0.4256  0.6608  0.3451
  133MOL    H3634620   3.369   1.138   1.810 -0.1284  1.5364  1.2672
  133MOL    H3734621   3.251   1.230   1.891  1.0812  0.5324 -1.8624
  133MOL    H3834622   3.283   1.062   1.952  0.9948 -2.2006 -1.0888
  133MOL    H3934623   2.921   0.741   1.651 -2.8472  1.1946 -0.0207
  133MOL    H4034624   2.981   0.760   1.821 -1.2053  2.2189  2.1074
  133MOL    C4134625   2.855   0.920   1.765 -0.4750 -0.5952 -0.2328
  133MOL    N4234626   2.761   0.864   1.863  0.2999 -0.6600 -0.0013
  133MOL    C4334627   2.738   0.889   1.995  0.1734 -0.7145  0.2271
  133MOL    O4434628   2.648   0.825   2.051 -0.5343 -0.1934 -0.2798
  133MOL    C4534629   2.830   0.994   2.063  0.1705 -0.9111 -0.1361
  133MOL    C4634630   2.768   0.973   1.644 -0.6209  0.0207  0.3674
  133MOL    H4734631   2.921   0.997   1.803 -0.1846 -0.9229 -0.0699
  133MOL    H4834632   2.702   0.791   1.827 -1.4413  0.3906  0.6782
  133MOL    H4934633   2.811   1.101   2.056  0.4794 -0.8491 -0.0530
  133MOL    H5034634   2.823   0.982   2.171  1.1726  0.4701  0.0903
  133MOL    H5134635   2.935   0.968   2.049  0.3588 -0.6368  0.7345
  133MOL    H5234636   2.810   0.925   1.555 -1.8057  1.8625 -1.2300
  133MOL    H5334637   2.670   0.928   1.654 -1.0265  0.9586  0.7017
  133MOL    C5434638   2.766   1.125   1.629 -0.2719 -0.0503  0.0374
  133MOL    N5534639   2.692   1.178   1.740  0.3027  0.1036 -0.2313
  133MOL    C5634640   2.714   1.299   1.792 -0.4747 -0.0403  0.3707
  133MOL    O5734641   2.804   1.372   1.756 -0.1147 -0.4036  0.1437
  133MOL    C5834642   2.648   1.327   1.921 -0.3302  0.3635 -0.8097
  133MOL    C5934643   2.697   1.168   1.500  0.7766 -0.6099  0.0964
  133MOL    H6034644   2.870   1.160   1.630 -0.2168 -0.2403  1.3977
  133MOL    H6134645   2.611   1.126   1.768 -1.1124  2.1507 -0.3745
  133MOL    H6234646   2.581   1.242   1.932  1.2424 -0.8935 -0.7018
  133MOL    H6334647   2.719   1.324   2.004 -0.4353  2.0723 -0.6197
  133MOL    H6434648   2.592   1.421   1.921 -0.3337  0.4721  3.3802
  133MOL    H6534649   2.598   1.123   1.504  1.1827 -1.4740  0.3900
  133MOL    H6634650   2.683   1.276   1.507 -0.0947 -0.6749 -0.5625
  133MOL    C6734651   2.769   1.138   1.370  0.4622 -0.1475 -0.2163
  133MOL    N6834652   2.896   1.208   1.373  0.4186  0.2839  0.2140
  133MOL    C6934653   3.004   1.168   1.299 -0.5228  1.1360 -0.3159
  133MOL    O7034654   2.995   1.072   1.221 -0.3614 -0.2206  0.2171
  133MOL    C7134655   3.138   1.247   1.313  0.3414  0.1629  0.3697
  133MOL    C7234656   2.687   1.182   1.250  0.1938  0.2729  0.6037
  133MOL    H7334657   2.777   1.030   1.363 -1.7254 -0.2444 -1.9232
  133MOL    H7434658   2.916   1.285   1.436  0.3031 -1.0234  1.9027
  133MOL    H7534659   3.180   1.251   1.413  2.3236  0.4990 -0.4448
  133MOL    H7634660   3.215   1.223   1.240  0.7509  1.5323  0.3399
  133MOL    H7734661   3.121   1.352   1.288  0.1109  0.6652  2.5284
  133MOL    H7834662   2.667   1.289   1.261 -0.6153  0.1569  0.2868
  133MOL    H7934663   2.742   1.182   1.156 -3.5985  1.7361 -1.7131
  133MOL    C8034664   2.555   1.101   1.229  0.4874 -0.3466  0.0371
  133MOL    N8134665   2.545   1.071   1.089 -0.0805 -0.2921 -0.7821
  133MOL    C8234666   2.508   0.955   1.032  0.2799 -0.0094  0.0203
  133MOL    O8334667   2.470   0.861   1.101 -0.3409 -0.0717 -0.2167
  133MOL    C8434668   2.518   0.941   0.881  0.5998  0.6815  0.0659
  133MOL    C8534669   2.426   1.167   1.288 -0.2751  0.1421 -0.1048
  133MOL    H8634670   2.569   1.012   1.290 -0.2612 -1.5227 -1.4784
  133MOL    H8734671   2.569   1.149   1.029  1.8944  0.0855  0.4709
  133MOL    H8834672   2.597   0.868   0.859  2.0401  2.0663  0.5126
  133MOL    H8934673   2.419   0.914   0.845  0.4950  2.9428 -1.4496
  133MOL    H9034674   2.548   1.037   0.839  1.8994  0.0953 -0.3712
  133MOL    H9134675   2.454   1.240   1.364 -2.4503  2.1919 -1.2292
  133MOL    H9234676   2.384   1.231   1.211 -1.9733 -0.4213  0.3367
  133MOL    C9334677   2.317   1.073   1.347 -0.5047 -0.2743  0.2263
  133MOL    N9434678   2.236   1.004   1.241  0.0102  1.0813  0.7995
  133MOL    C9534679   2.165   1.078   1.152  0.4005  0.1896  0.7093
  133MOL    O9634680   2.148   1.202   1.161  0.2297 -0.2960  0.0249
  133MOL    C9734681   2.104   1.007   1.033 -0.5898  0.2703 -0.6549
  133MOL    C9834682   2.225   1.147   1.451  0.0291 -0.4788  0.0617
  133MOL    H9934683   2.371   0.993   1.397 -1.3880 -0.2612  1.2103
  133MOL   H10034684   2.259   0.911   1.207  0.4725  2.0600 -1.6762
  133MOL   H10134685   1.996   1.008   1.013 -0.7387 -2.6809 -0.3105
  133MOL   H10234686   2.173   1.040   0.955 -0.4154  1.8314  0.1468
  133MOL   H10334687   2.113   0.899   1.049  1.0222  0.1435 -2.2652
  133MOL   H10434688   2.220   1.241   1.397  1.1981 -0.9371 -0.8739
  133MOL   H10534689   2.124   1.106   1.446  0.2781 -0.7457 -3.8200
  133MOL   C10634690   2.285   1.171   1.584  0.2727  0.1634  0.6448
  133MOL   N10734691   2.278   1.041   1.653  0.5895 -0.6355 -0.9258
  133MOL   C10834692   2.342   1.017   1.769  1.0453 -0.1397 -0.0039
  133MOL   O10934693   2.434   1.087   1.808  0.4824  0.0056 -0.4373
  133MOL   C11034694   2.306   0.893   1.841 -0.5247  0.1010  0.1568
  133MOL   C11134695   2.219   1.283   1.669 -0.2696  0.3312 -0.2484
  133MOL   H11234696   2.390   1.195   1.568 -0.1863  1.2631 -0.8071
  133MOL   H11334697   2.227   0.963   1.614 -0.7822 -0.6380  0.8279
  133MOL   H11434698   2.211   0.901   1.894 -0.3764  2.0121  0.1511
  133MOL   H11534699   2.309   0.800   1.785 -1.3349  0.4108 -0.4044
  133MOL   H11634700   2.378   0.874   1.921 -0.4826 -0.9988 -0.1287
  133MOL   H11734701   2.113   1.258   1.679  0.0789  0.0021  3.0408
  133MOL   H11834702   2.259   1.290   1.770 -1.6097  4.2834  0.0943
  133MOL   C11934703   2.250   1.423   1.607  0.6850 -0.4469  0.7758
  133MOL   N12034704   2.339   1.494   1.693  0.2724 -0.6048 -0.0773
  133MOL   C12134705   2.427   1.588   1.650 -0.3057 -0.2584  0.1935
  133MOL   O12234706   2.466   1.599   1.535  0.9448  0.3453 -0.6323
  133MOL   C12334707   2.485   1.681   1.757  0.1959  0.2681  0.2509
  133MOL   C12434708   2.123   1.514   1.584  0.1892  0.7979  0.6254
  133MOL   H12534709   2.304   1.415   1.513 -0.6861 -1.5846  0.0621
  133MOL   H12634710   2.329   1.482   1.792 -0.1896  0.3678 -0.0077
  133MOL   H12734711   2.547   1.760   1.713 -0.5614  0.9138  0.3163
  133MOL   H12834712   2.398   1.728   1.805 -2.9388 -0.5517 -4.2911
  133MOL   H12934713   2.540   1.621   1.828  1.0504  0.3398 -0.3500
  133MOL   H13034714   2.062   1.509   1.674  1.4343 -2.3635  1.3870
  133MOL   H13134715   2.154   1.618   1.575 -0.5444  1.0432  0.8842
  133MOL   C13234716   2.029   1.460   1.468 -0.8608 -0.3515 -0.2631
  133MOL   N13334717   2.095   1.481   1.344  0.2799  0.2051 -0.4536
  133MOL   C13434718   2.115   1.592   1.269  0.1250 -1.0029 -0.1127
  133MOL   O13534719   2.147   1.695   1.322 -0.0227 -0.2308  0.0971
  133MOL   C13634720   2.095   1.583   1.116 -0.6856  0.9055  0.4254
  133MOL   C13734721   1.894   1.523   1.464  0.4867 -0.1986  0.1062
  133MOL   H13834722   2.023   1.352   1.483  2.1461 -0.5123  0.2133
  133MOL   H13934723   2.089   1.395   1.291 -0.4444  0.9184 -1.5585
  133MOL   H14034724   2.007   1.639   1.086 -1.6080  0.1556  1.7072
  133MOL   H14134725   2.179   1.623   1.059 -0.6333  1.0273  0.5847
  133MOL   H14234726   2.082   1.481   1.082  0.5314  1.0384 -0.5067
  133MOL   H14334727   1.899   1.628   1.434 -1.8762  0.5216  2.0724
  133MOL   H14434728   1.848   1.473   1.378 -0.0787  1.3605 -0.5156
  133MOL   C14534729   1.788   1.512   1.580 -0.5131  0.2433 -0.8351
  133MOL   N14634730   1.805   1.384   1.653  0.2625  0.0867 -0.7973
  133MOL   C14734731   1.803   1.264   1.603  0.0494  0.5109 -0.9246
  133MOL   O14834732   1.797   1.246   1.484 -0.0603  0.0785  0.3249
  133MOL   C14934733   1.838   1.147   1.693 -0.2986 -0.3754 -0.3848
  133MOL   C15034734   1.642   1.546   1.532  0.2922  0.0956 -0.1250
  133MOL   H15134735   1.819   1.576   1.663 -1.5255  1.9546 -1.7356
  133MOL   H15234736   1.833   1.394   1.750  0.4741  0.2724 -0.8737
  133MOL   H15334737   1.907   1.074   1.650 -0.1069 -0.2244 -0.3367
  133MOL   H15434738   1.880   1.168   1.792 -1.7513  1.8429 -0.2256
  133MOL   H15534739   1.740   1.103   1.713 -0.5876  0.1773 -0.5905
  133MOL   H15634740   1.656   1.615   1.449 -2.2471 -0.5262 -1.1200
  133MOL   H15734741   1.596   1.457   1.489 -1.2655 -0.4128  2.4861
  133MOL   C15834742   1.546   1.605   1.643 -0.3885 -0.0153  0.7044
  133MOL   N15934743   1.424   1.633   1.575 -0.0470 -0.2043  0.5881
  133MOL   C16034744   1.316   1.553   1.563 -1.1692 -0.0786  0.4027
  133MOL   O16134745   1.294   1.464   1.645  0.1833  0.3733 -0.1525
  133MOL   C16234746   1.206   1.584   1.459 -0.0414 -0.5421 -0.6719
  133MOL   C16334747   1.586   1.736   1.718  0.6403  0.2985 -0.1228
  133MOL   H16434748   1.537   1.528   1.719  1.0617  1.1912  2.1583
  133MOL   H16534749   1.438   1.707   1.508 -1.1915 -0.4948  0.0105
  133MOL   H16634750   1.145   1.496   1.441 -0.2448 -0.7913  1.1121
  133MOL   H16734751   1.146   1.665   1.501 -1.4620 -2.1133  0.3655
  133MOL   H16834752   1.246   1.603   1.360  1.2611  0.3577 -0.0024
  133MOL   H16934753   1.694   1.742   1.725  0.3694  2.5171  3.6170
  133MOL   H17034754   1.562   1.816   1.648 -0.9550 -0.7491 -0.8126
  133MOL   C17134755   1.532   1.770   1.858  0.7590  0.4427  0.3544
  133MOL   N17234756   1.387   1.807   1.855 -0.1694 -0.0964  0.2695
  133MOL   C17334757   1.286   1.775   1.928 -0.7058  0.0566  0.1389
  133MOL   O17434758   1.178   1.836   1.918 -0.6239 -0.3087 -0.3785
  133MOL   C17534759   1.298   1.652   2.021 -0.2568 -0.2057 -0.0935
  133MOL   C17634760   1.602   1.883   1.930 -0.0422  0.3884 -0.7108
  133MOL   H17734761   1.532   1.681   1.922 -0.0462  2.1264  2.7835
  133MOL   H17834762   1.362   1.886   1.798 -0.0975  1.1071  1.8553
  133MOL   H17934763   1.326   1.560   1.970  0.6082 -0.6602  1.1529
  133MOL   H18034764   1.370   1.682   2.098 -0.7792  0.0832  0.2881
  133MOL   H18134765   1.211   1.635   2.084 -0.2712 -1.7968 -0.5272
  133MOL   H18234766   1.622   1.954   1.850  0.1217  2.1894  0.8602
  133MOL   H18334767   1.533   1.938   1.995 -1.8173 -2.8053  0.2384
  133MOL   C18434768   1.727   1.852   2.011 -0.4350 -0.2421  0.1102
  133MOL   N18534769   1.826   1.775   1.932  0.3292 -0.2183 -0.4957
  133MOL   C18634770   1.954   1.809   1.909 -0.7568 -0.1978 -0.0759
  133MOL   O18734771   1.996   1.917   1.953 -0.2452 -0.0689  0.0661
  133MOL   C18834772   2.039   1.706   1.830 -0.2300  0.3345  0.6815
  133MOL   C18934773   1.687   1.781   2.147 -0.3832  0.9523 -0.1915
  133MOL   H19034774   1.767   1.952   2.027 -1.1375 -0.0777  0.8582
  133MOL   H19134775   1.786   1.686   1.907 -1.8010  1.2363 -2.3665
  133MOL   H19234776   2.035   1.727   1.723 -0.1050  0.6149  0.7318
  133MOL   H19334777   2.144   1.719   1.856  0.0628 -1.0452  0.2290
  133MOL   H19434778   2.019   1.605   1.865  0.4177  0.0320  0.1979
  133MOL   H19534779   1.592   1.817   2.187 -1.3669 -2.1872  0.3798
  133MOL   H19634780   1.672   1.674   2.134  2.5201  0.5172 -0.4112
  133MOL   C19734781   1.801   1.775   2.255 -0.1552  0.1473 -0.4411
  133MOL   N19834782   1.891   1.887   2.241 -0.4793 -0.0441 -0.2442
  133MOL   C19934783   1.906   1.989   2.322  0.4446 -0.2457  0.0930
  133MOL   O20034784   1.855   1.985   2.432 -0.1387  0.3961  0.0124
  133MOL   C20134785   1.973   2.120   2.291  0.3797 -0.2461  0.6945
  133MOL   C20234786   1.882   1.645   2.258 -0.1637  0.1312 -0.1480
  133MOL   H20334787   1.759   1.783   2.356  0.5781  0.7976 -0.1820
  133MOL   H20434788   1.923   1.893   2.145  3.3993  0.1984  0.9821
  133MOL   H20534789   2.082   2.118   2.297  0.2404 -1.6256  3.4572
  133MOL   H20634790   1.950   2.165   2.194 -0.0826  2.5314  2.0354
  133MOL   H20734791   1.934   2.194   2.361 -0.1373 -1.1994  1.4265
  133MOL   H20834792   1.916   1.624   2.157  0.4361 -2.2224  0.5122
  133MOL   H20934793   1.968   1.651   2.325 -2.4129  2.2679  2.6817
  133MOL   C21034794   1.805   1.515   2.286 -0.1020  0.5381  0.2696
  133MOL   N21134795   1.750   1.509   2.421  0.0219  0.0230  0.2139
  133MOL   C21234796   1.631   1.561   2.466 -0.6254  0.0090  0.1778
  133MOL   O21334797   1.563   1.632   2.397  0.3553 -0.2317 -0.0361
  133MOL   C21434798   1.581   1.530   2.609  0.7450  0.3624 -0.2387
  133MOL   C21534799   1.893   1.394   2.254 -0.3660  0.1387  0.7796
  133MOL   H21634800   1.713   1.494   2.231 -0.3873 -0.7911  1.2375
  133MOL   H21734801   1.810   1.454   2.482 -0.6397  0.6323  1.4207
  133MOL   H21834802   1.509   1.448   2.610  1.9700 -0.7133  0.8537
  133MOL   H21934803   1.668   1.492   2.662  0.5609 -0.4190 -0.4906
  133MOL   H22034804   1.539   1.616   2.661  0.1113 -0.0473 -0.0606
  133MOL   H22134805   1.980   1.403   2.319  0.8053 -0.7638 -0.6158
  133MOL   H22234806   1.839   1.314   2.305  0.9019 -0.2615  1.5257
  133MOL   C22334807   1.920   1.367   2.103  0.5447 -0.9553  0.3174
  133MOL   N22434808   1.794   1.327   2.039 -0.1886 -0.2631  0.8461
  133MOL   C22534809   1.709   1.394   1.961 -0.8547  0.2106 -0.6147
  133MOL   O22634810   1.736   1.504   1.917 -0.8551 -0.5399  0.0726
  133MOL   C22734811   1.566   1.344   1.948 -0.3918 -0.0177  0.0031
  133MOL   C22834812   2.021   1.252   2.081  0.2184 -0.4665  0.2607
  133MOL   H22934813   1.962   1.452   2.050  0.1924 -0.6521  0.5224
  133MOL   H23034814   1.747   1.242   2.066  0.2325 -0.7510  0.0902
  133MOL   H23134815   1.503   1.432   1.933  0.7212  0.9388  0.8910
  133MOL   H23234816   1.556   1.280   1.860 -3.3576  0.1185  0.1765
  133MOL   H23334817   1.530   1.289   2.035 -1.5193  0.5130 -0.1216
  133MOL   H23434818   1.964   1.161   2.102  0.4923 -0.4071  1.2612
  133MOL   H23534819   2.042   1.242   1.974 -1.4598  0.3013 -0.1682
  133MOL   C23634820   2.153   1.262   2.163 -0.2669  0.3234 -0.5268
  133MOL   N23734821   2.202   1.398   2.197 -0.8771  0.1793 -0.3558
  133MOL   C23834822   2.230   1.502   2.114 -0.0454  0.2995  1.5545
  133MOL   O23934823   2.244   1.488   1.995 -0.2373 -0.8769 -0.2384
  133MOL   C24034824   2.248   1.645   2.173  0.3116  0.3869 -0.0573
  133MOL   C24134825   2.257   1.165   2.105 -0.1060  0.6605 -0.1289
  133MOL   H24234826   2.124   1.228   2.262  0.2698  0.5820 -0.2807
  133MOL   H24334827   2.188   1.429   2.292  2.1957  0.8638 -0.0921
  133MOL   H24434828   2.164   1.713   2.160 -0.2741 -0.4825 -0.8763
  133MOL   H24534829   2.261   1.634   2.281  0.3523  0.0257 -0.0962
  133MOL   H24634830   2.338   1.687   2.128 -0.2415 -0.4049 -1.9862
  133MOL   H24734831   2.210   1.080   2.055 -0.2955 -0.0986  1.2793
  133MOL   H24834832   2.301   1.218   2.021 -2.0391 -0.3747 -1.8309
  133MOL   C24934833   2.356   1.090   2.208  0.2801 -0.7999 -0.0642
  133MOL   N25034834   2.296   1.052   2.335 -0.0383  0.4264 -0.2720
  133MOL   C25134835   2.214   0.947   2.351  0.4081 -0.0174 -0.3605
  133MOL   O25234836   2.161   0.885   2.259 -0.2489 -0.2455  0.1191
  133MOL   C25334837   2.182   0.895   2.495 -0.2926  0.7869  0.4682
  133MOL   C25434838   2.480   1.175   2.239 -0.3200  0.6634 -0.1650
  133MOL   H25534839   2.396   0.997   2.168  0.4399 -1.3783  1.3958
  133MOL   H25634840   2.320   1.102   2.419  1.9199  1.4899 -1.4192
  133MOL   H25734841   2.172   0.787   2.492 -0.5769  0.7589  1.9985
  133MOL   H25834842   2.272   0.917   2.552  1.8427 -0.0527 -2.4515
  133MOL   H25934843   2.094   0.940   2.541  0.0037  2.3424 -0.4404
  133MOL   H26034844   2.444   1.277   2.249  0.0324  0.8922 -1.2325
  133MOL   H26134845   2.530   1.139   2.329 -0.2369  1.4455  0.1048
  133MOL   H26234846   2.556   1.179   2.161 -2.1618  2.5751 -1.8950
  134MOL     C134847   2.145   3.410   1.045 -0.2596 -0.0962  0.2113
  134MOL     N234848   2.034   3.492   1.097 -0.8431  0.3605  0.5080
  134MOL     C334849   1.947   3.548   1.009 -0.3262 -0.5442  0.1181
  134MOL     O434850   1.951   3.540   0.887  0.0647 -0.5324  0.1497
  134MOL     C534851   1.841   3.628   1.072  0.9428 -0.2048 -0.2391
  134MOL     C634852   2.280   3.472   1.080 -0.6634 -1.1826 -0.3393
  134MOL     H734853   2.147   3.310   1.088  0.8960 -0.8809 -1.6464
  134MOL     H834854   2.026   3.503   1.197  1.4692  0.9054  0.6630
  134MOL     H934855   1.762   3.636   0.997  0.5681 -1.5987 -0.0151
  134MOL    H1034856   1.799   3.582   1.161  1.6493  0.8278  0.6401
  134MOL    H1134857   1.868   3.731   1.095 -0.1412 -0.3830  1.9005
  134MOL    H1234858   2.279   3.574   1.042 -1.1314 -1.0687 -0.0189
  134MOL    H1334859   2.307   3.480   1.185 -0.2724 -1.7462 -0.3940
  134MOL    H1434860   2.137   3.392   0.938 -0.7125  2.6918 -0.2683
  134MOL    C1534861   2.400   3.396   1.018  0.0276  0.1137 -0.3418
  134MOL    N1634862   2.528   3.424   1.079 -0.3685  0.3093  0.0377
  134MOL    C1734863   2.581   3.387   1.202  0.5986 -0.4873 -0.1001
  134MOL    O1834864   2.508   3.329   1.287  0.0062 -0.0260 -0.2012
  134MOL    C1934865   2.728   3.415   1.230 -0.1378 -0.8220  0.6883
  134MOL    C2034866   2.409   3.409   0.863 -0.2525  0.7770 -0.3613
  134MOL    H2134867   2.383   3.292   1.042  0.0773  0.2534  0.3106
  134MOL    H2234868   2.583   3.489   1.024 -0.3589  0.2776  0.0099
  134MOL    H2334869   2.791   3.327   1.212  0.8031 -0.3020  1.3846
  134MOL    H2434870   2.767   3.500   1.173  0.0739 -1.5548 -0.2848
  134MOL    H2534871   2.742   3.435   1.336  0.9147  2.6076 -0.0313
  134MOL    H2634872   2.308   3.378   0.834 -0.0998  0.3507 -0.4383
  134MOL    H2734873   2.420   3.507   0.818  1.7591 -0.6495 -3.1204
  134MOL    C2834874   2.503   3.313   0.788 -0.0375  0.1695  0.3630
  134MOL    N2934875   2.601   3.388   0.709 -0.0005  0.3476 -0.4688
  134MOL    C3034876   2.691   3.481   0.751 -0.1739  0.7388  0.4642
  134MOL    O3134877   2.723   3.488   0.870 -0.1453  0.4920 -0.1011
  134MOL    C3234878   2.748   3.574   0.646  0.1926 -0.1365 -0.7848
  134MOL    C3334879   2.429   3.212   0.700 -0.7028  0.3552  0.4328
  134MOL    H3434880   2.569   3.270   0.863 -1.9649 -0.9304  1.4791
  134MOL    H3534881   2.580   3.395   0.611 -0.9153  1.0532 -0.2341
  134MOL    H3634882   2.669   3.642   0.615 -1.1218 -1.2175  0.1207
  134MOL    H3734883   2.835   3.629   0.683  0.3626 -0.0543 -1.3088
  134MOL    H3834884   2.784   3.531   0.553  1.2212 -0.9426 -0.0290
  134MOL    H3934885   2.339   3.255   0.657 -0.9567  0.4383  1.0305
  134MOL    H4034886   2.489   3.181   0.615 -2.3696 -1.1874 -0.2112
  134MOL    C4134887   2.400   3.075   0.764 -0.2970  0.0103  0.0604
  134MOL    N4234888   2.356   2.983   0.659  0.5217 -0.7401 -0.2237
  134MOL    C4334889   2.437   2.892   0.593 -0.0854 -0.4553  0.2012
  134MOL    O4434890   2.557   2.883   0.620 -0.8997  0.0544  0.1872
  134MOL    C4534891   2.378   2.808   0.480  0.4351  0.0395  0.0672
  134MOL    C4634892   2.315   3.074   0.885  0.2366  0.0102  0.0081
  134MOL    H4734893   2.496   3.040   0.803 -0.5741 -1.3952 -0.4948
  134MOL    H4834894   2.258   2.990   0.636 -0.1455  0.7799  2.8379
  134MOL    H4934895   2.411   2.705   0.493  1.2131  0.7118  4.2219
  134MOL    H5034896   2.270   2.808   0.488  0.1268  2.2881 -2.8657
  134MOL    H5134897   2.404   2.852   0.383  2.6848 -2.8892 -0.7504
  134MOL    H5234898   2.379   3.099   0.969  0.2166 -0.0128  0.0301
  134MOL    H5334899   2.234   3.146   0.875 -0.8573 -1.1290  0.4430
  134MOL    C5434900   2.245   2.946   0.928  0.9560  0.1949  0.3873
  134MOL    N5534901   2.154   2.878   0.823  0.0020  0.3774  0.5127
  134MOL    C5634902   2.114   2.751   0.813  0.5606 -0.9458 -0.3633
  134MOL    O5734903   2.019   2.719   0.737 -0.1262 -0.3204 -0.1773
  134MOL    C5834904   2.197   2.647   0.878  0.2153  0.9822 -0.1441
  134MOL    C5934905   2.164   2.964   1.046 -0.4897  0.1168 -0.0632
  134MOL    H6034906   2.323   2.873   0.950 -1.6534 -1.8900  3.1678
  134MOL    H6134907   2.101   2.940   0.763  0.4552  1.4198  1.1769
  134MOL    H6234908   2.175   2.541   0.863  3.0298  0.4087 -0.4988
  134MOL    H6334909   2.299   2.661   0.843  0.5985 -0.8861  0.1686
  134MOL    H6434910   2.190   2.680   0.981  2.2779 -0.0433  0.3455
  134MOL    H6534911   2.100   3.048   1.020 -1.4346 -0.4486  0.4028
  134MOL    H6634912   2.104   2.874   1.060  1.5876 -1.1219  1.0809
  134MOL    C6734913   2.243   2.979   1.183 -0.5371 -0.1343  0.4684
  134MOL    N6834914   2.304   2.849   1.218  0.0416  0.3136 -0.2341
  134MOL    C6934915   2.432   2.812   1.191 -0.0842  0.6140 -0.5181
  134MOL    O7034916   2.514   2.879   1.120 -0.0489 -0.5791 -0.5754
  134MOL    C7134917   2.481   2.688   1.255 -0.5038  0.5338 -0.6474
  134MOL    C7234918   2.157   3.040   1.295 -0.9341  0.6984  0.1211
  134MOL    H7334919   2.307   3.066   1.170  0.5604 -1.0316 -0.3797
  134MOL    H7434920   2.253   2.785   1.278  0.8561  0.5128  0.6893
  134MOL    H7534921   2.524   2.713   1.352  0.9211 -0.7946 -0.9050
  134MOL    H7634922   2.402   2.616   1.272  1.2473 -0.8843  1.6799
  134MOL    H7734923   2.557   2.636   1.195 -0.7467 -0.4667 -0.0876
  134MOL    H7834924   2.222   3.083   1.370 -0.0578 -1.7697  0.7972
  134MOL    H7934925   2.122   3.136   1.256  1.2521  1.3433 -0.2941
  134MOL    C8034926   2.047   2.965   1.380 -0.6339  0.2482  0.1994
  134MOL    N8134927   1.944   2.904   1.296  0.4154 -0.7177  0.0871
  134MOL    C8234928   1.939   2.784   1.247 -0.2229 -0.1949  0.0763
  134MOL    O8334929   2.035   2.712   1.256 -0.3639  0.0203 -0.5375
  134MOL    C8434930   1.817   2.740   1.162 -0.9813 -0.0141 -0.7414
  134MOL    C8534931   1.987   3.044   1.501 -0.3042  1.1084  0.2476
  134MOL    H8634932   2.108   2.885   1.420 -3.2292 -1.2924  1.2130
  134MOL    H8734933   1.869   2.964   1.266 -0.1096 -2.4059 -2.1112
  134MOL    H8834934   1.830   2.772   1.059  0.6739 -0.1543 -0.5890
  134MOL    H8934935   1.803   2.633   1.154 -1.7250  0.1718 -2.0005
  134MOL    H9034936   1.725   2.787   1.197  0.2420  1.7843  0.1367
  134MOL    H9134937   1.896   2.998   1.538 -0.0503  1.9100  1.9421
  134MOL    H9234938   2.050   3.035   1.590  0.9005  1.8367 -0.5116
  134MOL    C9334939   1.952   3.195   1.481  0.2698  0.6525  0.6772
  134MOL    N9434940   2.068   3.278   1.523  0.4232 -0.5504  0.2800
  134MOL    C9534941   2.110   3.395   1.475 -0.0753  0.1559 -0.5000
  134MOL    O9634942   2.040   3.453   1.391  0.1268  0.1966 -0.7850
  134MOL    C9734943   2.234   3.451   1.534 -1.4408  0.3430  0.2455
  134MOL    C9834944   1.828   3.241   1.556 -0.4292  0.2549  0.2570
  134MOL    H9934945   1.936   3.217   1.376  1.9723  1.7347  0.6274
  134MOL   H10034946   2.134   3.237   1.588  1.8631 -2.1788 -2.1035
  134MOL   H10134947   2.303   3.367   1.534 -0.1966  1.3209  1.6989
  134MOL   H10234948   2.275   3.537   1.480  1.4509 -1.8392 -1.1556
  134MOL   H10334949   2.217   3.487   1.636  2.8848  0.7997  0.9008
  134MOL   H10434950   1.825   3.220   1.663 -0.6174  1.0862  0.4150
  134MOL   H10534951   1.821   3.349   1.562  0.1071  0.5092 -2.8927
  134MOL   C10634952   1.691   3.199   1.490 -0.0095  0.0727  0.2594
  134MOL   N10734953   1.682   3.232   1.348 -0.0593  0.4402 -0.5031
  134MOL   C10834954   1.680   3.134   1.259  0.2163  0.0440  0.4056
  134MOL   O10934955   1.705   3.018   1.289  0.3843  0.0355  0.4122
  134MOL   C11034956   1.652   3.156   1.114 -0.2842  0.1213 -0.4079
  134MOL   C11134957   1.575   3.265   1.565  0.0819 -1.0449  0.2769
  134MOL   H11234958   1.682   3.092   1.505 -1.7605  0.1465 -0.1127
  134MOL   H11334959   1.651   3.325   1.327 -2.0669  0.0978  0.7584
  134MOL   H11434960   1.558   3.210   1.099 -1.9764 -2.4066  0.7586
  134MOL   H11534961   1.745   3.185   1.065  0.1673  0.5807  0.7133
  134MOL   H11634962   1.628   3.062   1.065 -3.1975  1.6521 -2.0493
  134MOL   H11734963   1.585   3.251   1.673 -1.1033 -0.0455  0.5321
  134MOL   H11834964   1.581   3.373   1.554 -1.6330 -0.8798  0.7920
  134MOL   C11934965   1.433   3.215   1.529 -0.5611 -0.0370 -0.1293
  134MOL   N12034966   1.342   3.330   1.514 -0.5168 -0.1269  0.4121
  134MOL   C12134967   1.300   3.383   1.399  0.0644  0.1447  0.0781
  134MOL   O12234968   1.343   3.351   1.287  0.5003  0.1472 -0.4373
  134MOL   C12334969   1.179   3.477   1.405 -0.1361 -0.2287  0.3399
  134MOL   C12434970   1.377   3.111   1.630 -0.0743 -0.1311 -0.0382
  134MOL   H12534971   1.435   3.169   1.430  0.0689 -0.4237  0.0572
  134MOL   H12634972   1.308   3.375   1.597 -1.4656  1.6628 -0.9215
  134MOL   H12734973   1.092   3.431   1.452 -1.1246  1.5978  0.3742
  134MOL   H12834974   1.199   3.570   1.460 -1.2755 -0.2842  0.8770
  134MOL   H12934975   1.139   3.508   1.309 -1.1165 -2.2318  0.0679
  134MOL   H13034976   1.437   3.023   1.651 -0.8679 -0.3313  1.4505
  134MOL   H13134977   1.363   3.163   1.724  1.4303  0.5874 -0.1991
  134MOL   C13234978   1.249   3.051   1.572 -0.1190 -0.3198  0.0954
  134MOL   N13334979   1.165   3.002   1.682  0.1962  0.2374 -0.0349
  134MOL   C13434980   1.035   2.970   1.681  0.1909 -0.5181  0.0383
  134MOL   O13534981   0.970   2.976   1.571  0.4643  0.7735  0.4786
  134MOL   C13634982   0.968   2.931   1.810  0.1069 -0.2681 -0.0946
  134MOL   C13734983   1.280   2.941   1.471  0.0968  0.4376  0.1892
  134MOL   H13834984   1.175   3.121   1.533 -0.4855  0.4008  1.9925
  134MOL   H13934985   1.215   2.997   1.770 -0.8355  2.4681  0.7147
  134MOL   H14034986   1.046   2.931   1.886  0.2438  1.8475 -0.2200
  134MOL   H14134987   0.884   2.998   1.828 -0.6255 -1.2398  0.1922
  134MOL   H14234988   0.912   2.839   1.793  0.0971 -0.9231  3.2198
  134MOL   H14334989   1.388   2.929   1.469 -0.1739 -2.5601  0.7813
  134MOL   H14434990   1.245   2.840   1.496  2.3014 -0.4437 -0.1545
  134MOL   C14534991   1.230   2.967   1.321 -0.2352 -0.3776 -0.1051
  134MOL   N14634992   1.085   2.984   1.312  0.0066  0.3381 -0.6324
  134MOL   C14734993   1.023   3.048   1.213 -0.0240  0.3165 -0.1511
  134MOL   O14834994   1.083   3.089   1.117 -0.2568 -0.3934 -0.5001
  134MOL   C14934995   0.865   3.058   1.218  0.0635 -0.7306  0.3685
  134MOL   C15034996   1.285   2.866   1.215  0.7467 -0.0552 -0.4895
  134MOL   H15134997   1.269   3.063   1.288 -0.8787 -1.2310 -3.4832
  134MOL   H15234998   1.035   2.967   1.398 -0.1438 -0.0350 -0.7913
  134MOL   H15334999   0.837   3.083   1.320 -1.5736 -0.8063 -0.0515
  134MOL   H15435000   0.818   3.135   1.156  0.1949  1.2385  2.6643
  134MOL   H15535001   0.820   2.960   1.199 -0.8101  0.0152 -1.5850
  134MOL   H15635002   1.223   2.866   1.126 -0.8411 -2.2162  0.5582
  134MOL   H15735003   1.385   2.906   1.197  2.0071 -1.1905  3.3615
  134MOL   C15835004   1.302   2.719   1.262  0.9109  0.0913  0.3434
  134MOL   N15935005   1.369   2.644   1.155 -0.7730  0.0451  0.0232
  134MOL   C16035006   1.488   2.574   1.170  0.1493  0.1448  0.0809
  134MOL   O16135007   1.544   2.562   1.280  0.0076 -0.0919 -0.0000
  134MOL   C16235008   1.552   2.506   1.054 -0.0869  0.3053 -0.5249
  134MOL   C16335009   1.181   2.633   1.300 -1.0807  0.5960 -0.8008
  134MOL   H16435010   1.380   2.734   1.337  1.4287  0.2254 -0.2201
  134MOL   H16535011   1.327   2.648   1.064  0.1600 -1.6647 -0.5074
  134MOL   H16635012   1.481   2.428   1.026  1.3854 -1.8893  1.6907
  134MOL   H16735013   1.556   2.576   0.970 -0.2471 -0.0112 -0.7990
  134MOL   H16835014   1.638   2.448   1.086 -1.4015 -2.7140 -2.2379
  134MOL   H16935015   1.105   2.697   1.346 -1.0989 -0.9491  1.3797
  134MOL   H17035016   1.124   2.597   1.215 -0.9778  0.4961 -0.8272
  134MOL   C17135017   1.209   2.516   1.395  0.3978 -0.0715  0.8111
  134MOL   N17235018   1.088   2.439   1.403  0.8673  0.5006 -0.8809
  134MOL   C17335019   1.070   2.309   1.365  0.7252 -0.7535  0.7789
  134MOL   O17435020   1.158   2.234   1.321 -0.0193  0.4441  0.2401
  134MOL   C17535021   0.934   2.250   1.388  0.3683 -0.5178 -0.1837
  134MOL   C17635022   1.270   2.559   1.533  0.1830 -0.0575  0.7237
  134MOL   H17735023   1.285   2.456   1.344  0.8135  0.4086  0.8507
  134MOL   H17835024   1.010   2.482   1.451  0.8251 -0.0219 -0.4815
  134MOL   H17935025   0.851   2.315   1.363  1.6563  0.2661 -2.4821
  134MOL   H18035026   0.918   2.153   1.341  0.4192 -0.2461 -0.7609
  134MOL   H18135027   0.920   2.226   1.494  0.7985  0.7391  0.1643
  134MOL   H18235028   1.369   2.603   1.518 -0.6984  0.9793 -2.4075
  134MOL   H18335029   1.203   2.633   1.576 -0.4446 -1.4303  2.1797
  134MOL   C18435030   1.291   2.448   1.650  0.1681  0.4246  0.4193
  134MOL   N18535031   1.302   2.531   1.770  0.5525 -0.4292  0.8052
  134MOL   C18635032   1.204   2.563   1.848 -0.8432  0.1142  0.2768
  134MOL   O18735033   1.092   2.523   1.828 -0.2687 -0.0761  0.2570
  134MOL   C18835034   1.226   2.650   1.964  0.0129 -0.6822  0.1285
  134MOL   C18935035   1.424   2.370   1.657  0.5568 -0.5655 -0.8935
  134MOL   H19035036   1.211   2.374   1.656 -0.4379  0.9527 -0.8042
  134MOL   H19135037   1.394   2.549   1.809  0.5505 -1.4755  1.3094
  134MOL   H19235038   1.157   2.733   1.947  2.3069  0.8504 -1.9446
  134MOL   H19335039   1.206   2.613   2.065 -0.9876 -1.9711 -0.5384
  134MOL   H19435040   1.324   2.696   1.953 -0.0099 -0.9910 -1.3378
  134MOL   H19535041   1.507   2.441   1.665 -2.0354  2.5525 -0.4845
  134MOL   H19635042   1.421   2.309   1.747  2.1678  1.6172  0.7070
  134MOL   C19735043   1.457   2.276   1.533  0.0394  0.1182  0.6449
  134MOL   N19835044   1.360   2.168   1.493  0.1220  0.2369 -0.2068
  134MOL   C19935045   1.326   2.058   1.558 -0.6896  0.2127 -1.1270
  134MOL   O20035046   1.361   2.029   1.671  0.3778  0.0346  0.5019
  134MOL   C20135047   1.239   1.966   1.481 -0.6333 -0.9066 -0.0722
  134MOL   C20235048   1.600   2.214   1.543 -0.0077 -0.0368  0.4067
  134MOL   H20335049   1.465   2.341   1.446 -1.9205 -1.5339 -0.8188
  134MOL   H20435050   1.308   2.178   1.408 -0.6706  2.0295  0.4505
  134MOL   H20535051   1.243   1.868   1.528  2.0195 -0.5600  0.5315
  134MOL   H20635052   1.139   2.007   1.492 -0.3735 -0.5813  1.1224
  134MOL   H20735053   1.273   1.969   1.377 -0.5116 -1.9903 -0.0631
  134MOL   H20835054   1.669   2.293   1.570 -2.3298  1.7194  1.3426
  134MOL   H20935055   1.612   2.160   1.637  2.3900  0.1453  0.2371
  134MOL   C21035056   1.654   2.127   1.429  0.1476  0.0982  0.7124
  134MOL   N21135057   1.780   2.074   1.468  0.5317 -1.0180  0.2025
  134MOL   C21235058   1.824   1.950   1.458 -0.2997 -0.1283 -0.2518
  134MOL   O21335059   1.766   1.868   1.394  0.4583  0.7539  0.0022
  134MOL   C21435060   1.962   1.919   1.508 -0.4715 -0.0904  0.0308
  134MOL   C21535061   1.664   2.213   1.295 -0.1261  0.0697 -0.4803
  134MOL   H21635062   1.588   2.041   1.414 -1.9425  1.8453 -0.2605
  134MOL   H21735063   1.845   2.142   1.504  0.2024 -0.6598  0.1207
  134MOL   H21835064   2.045   1.946   1.444 -0.4194  1.9370  0.9255
  134MOL   H21935065   1.976   1.967   1.605  3.2464  0.8348 -0.9012
  134MOL   H22035066   1.975   1.815   1.539 -0.0711  0.2417  1.0115
  134MOL   H22135067   1.563   2.242   1.266  0.0711 -0.3115 -1.5768
  134MOL   H22235068   1.718   2.303   1.325 -0.3981 -0.2485  0.9827
  134MOL   C22335069   1.723   2.143   1.168  0.0126  0.5182 -0.2712
  134MOL   N22435070   1.699   1.996   1.150 -0.1673  0.0433  0.0261
  134MOL   C22535071   1.622   1.946   1.056 -0.9096  0.4890  0.3455
  134MOL   O22635072   1.557   2.019   0.980 -0.9277 -0.0095 -0.3923
  134MOL   C22735073   1.582   1.801   1.070  0.1634  0.6011  0.2962
  134MOL   C22835074   1.871   2.162   1.128  0.1603  0.1310  0.0275
  134MOL   H22935075   1.674   2.194   1.085 -0.6623  0.8598  0.3366
  134MOL   H23035076   1.742   1.930   1.213 -0.2145 -0.1335 -0.1269
  134MOL   H23135077   1.639   1.749   1.147 -0.8712 -2.3549 -0.8897
  134MOL   H23235078   1.475   1.788   1.085  0.1381 -1.6742 -1.5475
  134MOL   H23335079   1.603   1.755   0.974 -0.5080  2.2794 -0.6635
  134MOL   H23435080   1.942   2.119   1.198  1.6035  0.5333 -1.1644
  134MOL   H23535081   1.896   2.106   1.038  1.0384 -0.3783  0.5805
  134MOL   C23635082   1.908   2.307   1.103 -0.0932 -0.3206 -0.2035
  134MOL   N23735083   1.868   2.345   0.966  0.4692 -0.2719 -0.7147
  134MOL   C23835084   1.912   2.304   0.844 -0.6508  0.0536  0.0297
  134MOL   O23935085   2.003   2.220   0.830  0.1357  0.4207  0.1213
  134MOL   C24035086   1.848   2.370   0.719  0.4380 -0.1394  0.1384
  134MOL   C24135087   2.052   2.337   1.130 -0.0534 -0.3691 -0.1053
  134MOL   H24235088   1.856   2.369   1.176 -0.4978 -0.0412 -0.7274
  134MOL   H24335089   1.794   2.413   0.957  0.4729 -0.0876  0.6691
  134MOL   H24435090   1.847   2.479   0.706 -0.8040 -0.0553  0.8713
  134MOL   H24535091   1.892   2.325   0.630  0.5064  0.8006 -0.3090
  134MOL   H24635092   1.741   2.351   0.722  0.2754  0.8971  1.5717
  134MOL   H24735093   2.110   2.260   1.078  1.7924 -0.3458  1.8404
  134MOL   H24835094   2.080   2.431   1.083  1.2867 -0.2900  0.8124
  134MOL   C24935095   2.091   2.343   1.278 -0.6205  0.1470  0.3495
  134MOL   N25035096   2.017   2.450   1.344 -0.1617  0.0861  0.1181
  134MOL   C25135097   1.941   2.426   1.451 -1.4902 -0.2358 -0.1727
  134MOL   O25235098   1.924   2.313   1.500 -0.1594 -1.0113 -0.6907
  134MOL   C25335099   1.854   2.542   1.495 -0.5498 -0.6457  0.7175
  134MOL   C25435100   2.242   2.368   1.301  0.0733 -0.2698 -0.1827
  134MOL   H25535101   2.065   2.246   1.319 -0.7628  0.1750  0.3247
  134MOL   H25635102   2.011   2.545   1.311 -2.5976  0.0002  0.2559
  134MOL   H25735103   1.909   2.614   1.556  0.4436  0.0880 -1.0167
  134MOL   H25835104   1.804   2.599   1.416 -0.6101 -1.5088  0.1265
  134MOL   H25935105   1.777   2.504   1.563 -0.5176 -1.3595  0.3570
  134MOL   H26035106   2.268   2.373   1.407  0.9814  0.4274 -0.4248
  134MOL   H26135107   2.310   2.306   1.242  1.4313 -0.2021  1.2606
  134MOL   H26235108   2.275   2.464   1.261 -3.0904  1.8006  2.0177
  135MOL     C135109   6.927   4.981   6.386 -0.1883 -0.2337  0.2855
  135MOL     N235110   7.055   4.998   6.318 -0.0327 -0.4041 -0.3324
  135MOL     C335111   7.103   4.907   6.232  0.0191 -0.0445 -0.9084
  135MOL     O435112   7.028   4.818   6.196  0.0058  0.2804  0.3676
  135MOL     C535113   7.247   4.913   6.181  0.5241  0.6745 -0.9320
  135MOL     C635114   6.923   5.029   6.533 -0.2381  0.2843  0.4306
  135MOL     H735115   6.870   5.050   6.323 -0.0537 -0.6638 -0.3052
  135MOL     H835116   7.110   5.079   6.343  1.4061 -0.5474 -2.8604
  135MOL     H935117   7.252   4.958   6.082 -1.4495  0.7335 -1.0227
  135MOL    H1035118   7.307   4.984   6.238  2.0838  0.5152 -2.3342
  135MOL    H1135119   7.295   4.815   6.179 -0.4010  0.1316  1.8972
  135MOL    H1235120   6.939   5.136   6.542  0.8379  0.3012 -1.4302
  135MOL    H1335121   6.814   5.023   6.544 -0.1527  0.0340  1.1292
  135MOL    H1435122   6.892   4.878   6.384 -0.9625  0.0183  0.4199
  135MOL    C1535123   6.994   4.930   6.637  0.0338 -0.9682  0.8129
  135MOL    N1635124   6.928   4.954   6.766 -0.1271  0.3037  0.1626
  135MOL    C1735125   6.923   4.879   6.879 -0.2547 -0.1949 -0.2089
  135MOL    O1835126   6.983   4.769   6.893 -0.5467 -0.3245  0.0284
  135MOL    C1935127   6.858   4.934   7.002  0.0733 -0.2307  0.1033
  135MOL    C2035128   7.149   4.958   6.635  0.0803 -0.2210  0.4174
  135MOL    H2135129   6.994   4.827   6.602  1.4322 -0.1319 -1.8187
  135MOL    H2235130   6.863   5.030   6.751 -0.8479 -0.3618 -0.1492
  135MOL    H2335131   6.752   4.954   6.987  0.6714  2.3433 -1.0323
  135MOL    H2435132   6.859   4.872   7.092 -2.6791 -0.7758 -0.1964
  135MOL    H2535133   6.904   5.027   7.035  1.3652 -1.0690  0.7033
  135MOL    H2635134   7.185   4.943   6.533  0.5225  0.0798  0.5300
  135MOL    H2735135   7.167   5.065   6.648 -1.7076  0.0715  0.5866
  135MOL    C2835136   7.238   4.875   6.721 -0.7221 -0.2704  0.0642
  135MOL    N2935137   7.246   4.934   6.852  0.2079  0.8194  0.1252
  135MOL    C3035138   7.289   5.050   6.880 -0.4747 -0.4211 -0.2281
  135MOL    O3135139   7.339   5.133   6.803 -0.0923 -0.5758  0.7322
  135MOL    C3235140   7.277   5.090   7.026  0.1561  0.3080  0.1388
  135MOL    C3335141   7.378   4.840   6.667 -0.4348  0.8258 -0.6545
  135MOL    H3435142   7.178   4.785   6.731 -0.9848 -0.0373  0.5954
  135MOL    H3535143   7.195   4.885   6.923  1.9034 -1.3942 -0.1138
  135MOL    H3635144   7.281   5.198   7.044  2.8079  0.1368  0.8019
  135MOL    H3735145   7.178   5.060   7.062 -0.3485  0.9268 -0.7107
  135MOL    H3835146   7.362   5.052   7.082  0.9008  0.6234 -0.7841
  135MOL    H3935147   7.379   4.790   6.570  0.5106 -2.7351  1.1038
  135MOL    H4035148   7.426   4.936   6.650 -1.2522  0.9372 -2.3880
  135MOL    C4135149   7.461   4.741   6.761  0.5647  0.0456 -0.6307
  135MOL    N4235150   7.609   4.753   6.737  0.1101  0.1532 -0.0234
  135MOL    C4335151   7.702   4.825   6.804 -0.1003 -0.3016  0.0247
  135MOL    O4435152   7.682   4.898   6.900 -0.2317  0.2344 -0.1968
  135MOL    C4535153   7.835   4.826   6.740  0.4801 -0.6300  0.4829
  135MOL    C4635154   7.418   4.592   6.750  0.1723  0.3458 -0.0537
  135MOL    H4735155   7.422   4.764   6.860  0.1603  0.3974 -0.8737
  135MOL    H4835156   7.642   4.705   6.654 -1.2540 -0.6418 -0.1230
  135MOL    H4935157   7.837   4.807   6.633  0.4101 -0.5654  0.4701
  135MOL    H5035158   0.043   4.923   6.752 -1.0547  0.3104 -0.7960
  135MOL    H5135159   0.063   4.749   6.776  1.7740 -0.0350 -0.6372
  135MOL    H5235160   7.452   4.549   6.656 -0.8710  0.6115 -0.5587
  135MOL    H5335161   7.467   4.543   6.834 -1.2597 -2.8688 -1.0456
  135MOL    C5435162   7.274   4.535   6.758 -0.1541 -0.7828  0.5986
  135MOL    N5535163   7.193   4.583   6.876 -0.1667 -0.0274 -0.6108
  135MOL    C5635164   7.216   4.532   6.997 -0.2258  0.4731 -0.4202
  135MOL    O5735165   7.305   4.453   7.025 -0.2769  0.2361 -0.8264
  135MOL    C5835166   7.127   4.580   7.118  0.6628  0.1309  0.2086
  135MOL    C5935167   7.260   4.377   6.744 -0.1539 -0.1740  0.6776
  135MOL    H6035168   7.222   4.574   6.670  2.6136 -1.3336 -1.3714
  135MOL    H6135169   7.110   4.640   6.870  0.3564  0.9206  0.8526
  135MOL    H6235170   7.147   4.505   7.195  0.3861  0.2519  0.3957
  135MOL    H6335171   7.151   4.678   7.157  1.0174  1.0759 -2.2869
  135MOL    H6435172   7.027   4.579   7.073  1.7116 -0.3603 -2.2308
  135MOL    H6535173   7.322   4.331   6.821  0.8195 -0.5808 -0.3386
  135MOL    H6635174   7.161   4.338   6.767  0.2187 -3.5455 -2.8498
  135MOL    C6735175   7.300   4.314   6.599 -0.3745  0.3277  0.2389
  135MOL    N6835176   7.214   4.371   6.494  0.2104  0.6111  0.4675
  135MOL    C6935177   7.261   4.429   6.386  0.4334  0.7062  0.6054
  135MOL    O7035178   7.378   4.453   6.355  0.3405  0.4226  0.4774
  135MOL    C7135179   7.150   4.450   6.288 -0.2004  0.5278 -0.2677
  135MOL    C7235180   7.299   4.164   6.591  0.0379  0.4184 -0.5130
  135MOL    H7335181   7.402   4.346   6.579 -0.2153 -0.6410 -0.5427
  135MOL    H7435182   7.114   4.360   6.500  0.5543 -3.2563  0.4464
  135MOL    H7535183   7.186   4.479   6.190 -0.9862  0.9988 -0.4163
  135MOL    H7635184   7.096   4.359   6.261 -2.7274  1.7312  0.5599
  135MOL    H7735185   7.086   4.525   6.334  1.3738  1.9320 -0.3458
  135MOL    H7835186   7.365   4.122   6.667 -0.7175  2.1062  1.1147
  135MOL    H7935187   7.206   4.113   6.615 -0.0643 -1.1172 -3.8455
  135MOL    C8035188   7.344   4.099   6.456  0.3258 -0.2770 -0.5644
  135MOL    N8135189   7.318   3.957   6.451  0.2501  1.1879  0.6850
  135MOL    C8235190   7.239   3.895   6.362  0.5714 -0.3620  0.0089
  135MOL    O8335191   7.166   3.955   6.284  0.0737 -0.1720  0.0184
  135MOL    C8435192   7.247   3.742   6.356  0.1816  0.1512 -0.1628
  135MOL    C8535193   7.495   4.120   6.433 -0.4393  0.3336  0.5592
  135MOL    H8635194   7.278   4.143   6.381 -1.1488  0.3101  1.0516
  135MOL    H8735195   7.380   3.896   6.502  0.6655  0.5524 -0.5317
  135MOL    H8835196   7.340   3.698   6.392 -0.8896  0.1729  2.7789
  135MOL    H8935197   7.171   3.703   6.424  0.3900  0.5266  0.2897
  135MOL    H9035198   7.231   3.690   6.262 -0.1758 -0.2757  0.1347
  135MOL    H9135199   7.535   4.212   6.475 -1.1557  0.4018  1.1012
  135MOL    H9235200   7.543   4.037   6.485  1.2237  1.5307  0.9857
  135MOL    C9335201   7.546   4.122   6.284  0.2599 -0.8061  0.0899
  135MOL    N9435202   7.528   3.998   6.220  0.0037  0.1338  0.2107
  135MOL    C9535203   7.481   3.976   6.096 -0.9227 -1.0202 -0.4694
  135MOL    O9635204   7.464   4.068   6.018 -0.6039  0.0550 -0.2624
  135MOL    C9735205   7.455   3.825   6.059 -0.2398 -0.5260  0.0789
  135MOL    C9835206   7.692   4.163   6.265 -0.0850 -0.0961  0.6483
  135MOL    H9935207   7.487   4.202   6.238 -0.7786 -1.8270 -0.3725
  135MOL   H10035208   7.567   3.920   6.271 -0.6625 -0.1729  0.2601
  135MOL   H10135209   7.408   3.818   5.961  0.9677  1.2763 -0.6713
  135MOL   H10235210   7.549   3.770   6.061  1.9242  3.0278  0.1869
  135MOL   H10335211   7.380   3.798   6.132 -1.3148  0.1369 -0.7593
  135MOL   H10435212   7.726   4.195   6.364 -1.5336  0.3677  1.0043
  135MOL   H10535213   7.750   4.078   6.230  1.5146  0.0511  2.8005
  135MOL   C10635214   7.721   4.276   6.167  0.4609  0.0141 -0.4959
  135MOL   N10735215   7.708   4.221   6.029 -0.3203 -0.4666  0.2675
  135MOL   C10835216   7.701   4.303   5.920  0.7996 -0.0647 -1.1534
  135MOL   O10935217   7.692   4.424   5.929 -0.6933 -0.2608  0.2115
  135MOL   C11035218   7.692   4.233   5.782  0.3808  0.0313 -0.0244
  135MOL   C11135219   0.021   4.336   6.191  0.1422  0.3382  0.9124
  135MOL   H11235220   7.647   4.354   6.184  0.2011  0.4616 -3.3279
  135MOL   H11335221   7.721   4.122   6.016  1.9459 -0.0736 -0.6289
  135MOL   H11435222   7.727   4.309   5.711 -1.5501  1.2952  0.3382
  135MOL   H11535223   7.754   4.144   5.791  0.0971 -0.0152  1.5614
  135MOL   H11635224   7.593   4.201   5.750  0.0911 -0.2571  1.1627
  135MOL   H11735225   0.094   4.257   6.212  0.2423  0.5784  1.4913
  135MOL   H11835226   0.059   4.382   6.100  0.5764 -1.9639 -0.1044
  135MOL   C11935227   0.031   4.443   6.300 -0.1718 -0.4476 -0.4494
  135MOL   N12035228   7.775   4.552   6.272  0.1918  0.0117  0.2206
  135MOL   C12135229   7.703   4.604   6.374 -0.1627  0.1891  0.2672
  135MOL   O12235230   7.732   4.585   6.497 -0.0843 -0.4847  0.1222
  135MOL   C12335231   7.577   4.677   6.327 -0.3166 -0.6281 -0.2285
  135MOL   C12435232   0.169   4.510   6.311 -0.6075  0.8859  0.2183
  135MOL   H12535233   0.007   4.389   6.391  1.8961 -0.2224  0.2560
  135MOL   H12635234   7.754   4.576   6.177 -0.4743 -1.1997  0.0506
  135MOL   H12735235   7.529   4.638   6.237 -0.8005  1.8277 -1.0798
  135MOL   H12835236   7.499   4.670   6.403 -0.4467 -1.3914 -0.4296
  135MOL   H12935237   7.591   4.785   6.323 -1.2473 -0.3121  3.1519
  135MOL   H13035238   0.191   4.564   6.219  1.6122  0.4414  0.4753
  135MOL   H13135239   0.170   4.575   6.398 -0.0658 -0.0622  0.9299
  135MOL   C13235240   0.293   4.411   6.328  0.1897 -0.0254 -0.0753
  135MOL   N13335241   0.276   4.341   6.460  0.2547  0.3273 -0.8617
  135MOL   C13435242   0.301   4.213   6.482 -0.3116  0.1510  0.2981
  135MOL   O13535243   0.323   4.133   6.393  0.3048 -0.6682  0.2191
  135MOL   C13635244   0.285   4.153   6.625  0.6785  0.3678 -0.0366
  135MOL   C13735245   0.428   4.479   6.326  0.1704 -0.5799  0.4253
  135MOL   H13835246   0.295   4.339   6.247  0.8200 -0.5054  0.3605
  135MOL   H13935247   0.255   4.394   6.543  1.6896  0.6678 -0.7034
  135MOL   H14035248   0.358   4.072   6.622 -0.1618 -0.3725 -0.5454
  135MOL   H14135249   0.302   4.222   6.707  1.3147  0.7030 -0.4433
  135MOL   H14235250   0.188   4.103   6.622  1.3216 -0.8429 -1.0978
  135MOL   H14335251   0.414   4.572   6.381  1.2744 -0.9909  1.4363
  135MOL   H14435252   0.495   4.418   6.387  1.1015 -0.5304 -0.5303
  135MOL   C14535253   0.503   4.498   6.192  0.0012 -0.1480  0.1237
  135MOL   N14635254   0.638   4.530   6.212 -0.3035  0.1264 -0.8933
  135MOL   C14735255   0.749   4.455   6.185  0.0364  0.2206  0.2310
  135MOL   O14835256   0.754   4.334   6.166  0.2665 -0.7646 -0.0121
  135MOL   C14935257   0.877   4.538   6.180 -0.4388 -0.2718  0.4937
  135MOL   C15035258   0.422   4.579   6.094  0.1861 -0.1162 -0.4676
  135MOL   H15135259   0.511   4.402   6.141 -2.1004  0.2925 -1.0945
  135MOL   H15235260   0.657   4.629   6.225  0.1595  0.1612 -1.7933
  135MOL   H15335261   0.909   4.580   6.276 -0.8664  0.2364  0.4181
  135MOL   H15435262   0.953   4.475   6.135 -1.8029  0.4028 -2.8642
  135MOL   H15535263   0.861   4.624   6.115  0.8003 -0.5634 -0.2133
  135MOL   H15635264   0.335   4.522   6.061 -1.2194  1.7166 -0.0389
  135MOL   H15735265   0.387   4.664   6.153  1.4327 -0.5238  0.8527
  135MOL   C15835266   0.497   4.654   5.982 -0.6379 -0.3830  0.4332
  135MOL   N15935267   0.407   4.749   5.927  0.7660 -0.5742 -0.0529
  135MOL   C16035268   0.277   4.728   5.886  0.2874 -0.3907  0.1005
  135MOL   O16135269   0.232   4.617   5.866  0.1068  0.0392  0.3301
  135MOL   C16235270   0.188   4.854   5.874 -0.3477 -0.2538 -0.5790
  135MOL   C16335271   0.569   4.565   5.874 -0.4552  0.1585 -0.5472
  135MOL   H16435272   0.572   4.722   6.022 -0.9047  0.8688 -1.1234
  135MOL   H16535273   0.453   4.837   5.907 -0.3761 -0.4165 -2.1000
  135MOL   H16635274   0.083   4.827   5.863 -0.2358 -1.2244  0.5413
  135MOL   H16735275   0.206   4.915   5.962  1.2126  0.5815 -1.4630
  135MOL   H16835276   0.212   4.897   5.777  1.1658  0.3560  0.0571
  135MOL   H16935277   0.616   4.475   5.914  0.6199  1.1777  0.5607
  135MOL   H17035278   0.498   4.522   5.804  0.2684 -1.1529 -0.4797
  135MOL   C17135279   0.686   4.647   5.798  0.7136  0.1338 -0.1901
  135MOL   N17235280   0.621   4.739   5.706 -0.2486  0.3886 -0.6105
  135MOL   C17335281   0.613   4.868   5.731 -0.3286  1.0982 -0.2065
  135MOL   O17435282   0.646   4.919   5.838 -0.3506 -0.0638 -0.2688
  135MOL   C17535283   0.549   4.950   5.621 -0.1854  0.0657  0.1988
  135MOL   C17635284   0.793   4.559   5.719  0.0523  0.3265  0.2920
  135MOL   H17735285   0.745   4.701   5.872 -1.0027 -0.4200  1.6343
  135MOL   H17835286   0.586   4.692   5.624 -0.0750 -0.2562 -0.3199
  135MOL   H17935287   0.586   4.935   5.520  0.7391 -1.8277  0.7859
  135MOL   H18035288   0.441   4.938   5.613 -0.1028 -0.8399  0.3429
  135MOL   H18135289   0.569   5.053   5.649 -2.5839  0.7558 -0.5234
  135MOL   H18235290   0.841   4.493   5.792  0.1752  1.0074  0.8307
  135MOL   H18335291   0.737   4.493   5.653  0.3174  0.3485  0.0455
  135MOL   C18435292   0.901   4.634   5.637  0.9369 -0.2950 -0.0370
  135MOL   N18535293   0.969   4.737   5.712  0.3226 -0.3340 -0.0138
  135MOL   C18635294   1.026   4.725   5.832  0.1536  0.1486  0.6715
  135MOL   O18735295   1.029   4.619   5.892  0.5885 -0.2576  0.2218
  135MOL   C18835296   1.111   4.845   5.881  0.4198 -0.4764  0.1755
  135MOL   C18935297   0.861   4.670   5.489  0.6256 -0.0178  0.2468
  135MOL   H19035298   0.973   4.552   5.631 -0.9941 -1.9975 -0.1364
  135MOL   H19135299   0.972   4.827   5.667 -0.9014 -1.3224 -2.1705
  135MOL   H19235300   1.127   4.837   5.988 -1.2199  1.0642  0.5743
  135MOL   H19335301   1.199   4.853   5.818  0.4688  1.9300  0.4866
  135MOL   H19435302   1.062   4.942   5.865  2.9084  0.6035 -1.2549
  135MOL   H19535303   0.842   4.584   5.425 -1.9730  1.1222 -0.5994
  135MOL   H19635304   0.760   4.713   5.486  1.4359  1.9489  0.4212
  135MOL   C19735305   0.956   4.764   5.417 -0.3161 -0.0607  0.1390
  135MOL   N19835306   0.904   4.790   5.280  0.3851  0.2744  0.2244
  135MOL   C19935307   0.892   4.702   5.181 -0.5064 -0.1123  0.1174
  135MOL   O20035308   0.902   4.585   5.190  0.0526 -0.2091  0.1792
  135MOL   C20135309   0.848   4.764   5.047 -0.3432  0.0892 -0.1633
  135MOL   C20235310   1.108   4.742   5.428 -0.3661  0.7348  0.5735
  135MOL   H20335311   0.936   4.861   5.463  1.9140  0.5067 -0.0326
  135MOL   H20435312   0.857   4.877   5.258 -1.9819 -0.3736  2.5004
  135MOL   H20535313   0.850   4.873   5.049  0.5411  0.0827  4.1298
  135MOL   H20635314   0.921   4.736   4.970 -1.4835 -1.3835 -0.7212
  135MOL   H20735315   0.749   4.735   5.014 -0.2146 -1.3672  0.7045
  135MOL   H20835316   1.146   4.714   5.526 -0.7161  1.3433  0.8873
  135MOL   H20935317   1.132   4.654   5.369  1.0377  2.2039 -1.1155
  135MOL   C21035318   1.192   4.860   5.371 -0.3979  0.0827 -0.8578
  135MOL   N21135319   1.278   4.815   5.264  0.4580  0.5185 -0.1856
  135MOL   C21235320   1.279   4.867   5.141  0.0105 -0.0454 -0.4391
  135MOL   O21335321   1.203   4.956   5.102 -0.0643 -0.1528  0.6535
  135MOL   C21435322   1.389   4.823   5.045 -0.0144  0.3328 -1.0110
  135MOL   C21535323   1.278   4.909   5.482 -0.7740 -1.1711 -0.2887
  135MOL   H21635324   1.122   4.938   5.343 -1.0518  0.6231  2.0546
  135MOL   H21735325   1.334   4.732   5.278  1.9615  2.0396  3.6188
  135MOL   H21835326   1.364   4.823   4.939 -1.0332 -4.5090 -0.8724
  135MOL   H21935327   1.484   4.877   5.054  1.7129 -2.6222 -0.8790
  135MOL   H22035328   1.413   4.718   5.058 -1.4156  0.2912  1.8298
  135MOL   H22135329   1.214   4.949   5.560 -2.2140 -2.4277 -0.8215
  135MOL   H22235330   1.334   4.828   5.528  1.1600 -0.0848 -0.6649
  135MOL   C22335331   1.370   5.035   5.454 -0.5438 -0.6431 -0.2342
  135MOL   N22435332   1.450   5.068   5.573 -0.7484 -0.1836 -0.6367
  135MOL   C22535333   1.556   4.997   5.607 -0.4220 -0.8045  0.0785
  135MOL   O22635334   1.592   4.891   5.557  0.8450  0.0404  0.4487
  135MOL   C22735335   1.634   5.046   5.727 -0.6956 -0.7863 -0.0348
  135MOL   C22835336   1.294   5.162   5.417  0.5074 -0.3251 -0.1040
  135MOL   H22935337   1.433   5.017   5.367 -1.8999 -2.6054 -0.8552
  135MOL   H23035338   1.443   5.161   5.612  0.3132 -0.2969 -0.1471
  135MOL   H23135339   1.595   5.012   5.824  0.8419  0.8157  1.1741
  135MOL   H23235340   1.741   5.031   5.714 -1.1368 -1.3112 -3.3538
  135MOL   H23335341   1.624   5.152   5.749  1.8077 -0.7391  1.0971
  135MOL   H23435342   1.208   5.136   5.356 -0.7686  1.8944  0.6769
  135MOL   H23535343   1.242   5.217   5.496  0.1661  0.8806 -1.1443
  135MOL   C23635344   1.378   5.272   5.340 -0.1029  0.0052  0.1541
  135MOL   N23735345   1.312   5.398   5.364  0.3876 -0.8391 -0.1502
  135MOL   C23835346   1.316   5.466   5.483  0.0565  0.1188 -0.6662
  135MOL   O23935347   1.371   5.422   5.583 -0.4766 -0.8464  0.0316
  135MOL   C24035348   1.260   5.612   5.476  0.9035 -0.1022  0.4467
  135MOL   C24135349   1.411   5.243   5.190 -0.1275  0.2573 -0.0016
  135MOL   H24235350   1.476   5.272   5.388  0.1426 -0.4421 -0.3349
  135MOL   H24335351   1.278   5.442   5.280 -1.3324 -2.7627 -0.4995
  135MOL   H24435352   1.217   5.640   5.379 -0.4405  0.7102  1.2466
  135MOL   H24535353   1.180   5.625   5.550  0.7734 -0.6896  0.4077
  135MOL   H24635354   1.345   5.675   5.502  0.1483  0.4160  1.7037
  135MOL   H24735355   1.428   5.136   5.179  0.2025  0.2439  0.6657
  135MOL   H24835356   1.321   5.244   5.128  1.3581  0.9467 -2.2260
  135MOL   C24935357   1.536   5.317   5.136  0.5189 -0.6461  0.3208
  135MOL   N25035358   1.509   5.456   5.127  0.4480  0.5643  0.2664
  135MOL   C25135359   1.562   5.548   5.201  0.3646  0.6200  0.5703
  135MOL   O25235360   1.634   5.519   5.298 -0.9597 -0.0224 -0.0605
  135MOL   C25335361   1.531   5.687   5.159 -0.4414  0.6267 -0.6047
  135MOL   C25435362   1.575   5.273   4.995  0.0283  0.3064  0.5055
  135MOL   H25535363   1.621   5.298   5.202  1.2107 -0.3773 -0.4842
  135MOL   H25635364   1.462   5.491   5.045 -2.1061 -1.9533  0.5877
  135MOL   H25735365   1.565   5.747   5.244  0.9530 -1.0231  0.0416
  135MOL   H25835366   1.579   5.721   5.067 -0.4593  0.6036 -0.6226
  135MOL   H25935367   1.423   5.693   5.149 -0.4140 -2.5361 -3.6757
  135MOL   H26035368   1.588   5.165   4.993  0.0433  0.3377 -2.7963
  135MOL   H26135369   1.496   5.304   4.926 -1.6146 -0.7103  1.9044
  135MOL   H26235370   1.669   5.319   4.966  0.4251 -0.9054 -0.1625
  136MOL     C135371   2.818   0.151   7.341  0.6235 -0.1845  0.5228
  136MOL     N235372   2.740   0.237   7.264 -0.5398 -0.0509 -0.6304
  136MOL     C335373   2.652   0.200   7.171 -0.1549  0.6052  0.1877
  136MOL     O435374   2.657   0.089   7.122  0.3474 -0.3010  0.2405
  136MOL     C535375   2.572   0.317   7.120  0.5624 -0.0534  0.0594
  136MOL     C635376   2.970   0.181   7.329 -0.1908  0.1542  0.1484
  136MOL     H735377   2.795   0.163   7.447 -1.4036 -0.3174  0.1231
  136MOL     H835378   2.717   0.330   7.296  2.2222  0.3008  0.5214
  136MOL     H935379   2.568   0.395   7.196  1.5228  0.0792 -0.0263
  136MOL    H1035380   2.631   0.368   7.044 -0.0111 -0.0855 -0.4077
  136MOL    H1135381   2.477   0.283   7.079  0.3935 -1.2109  1.3696
  136MOL    H1235382   2.972   0.290   7.340  1.1097  0.2726 -1.1709
  136MOL    H1335383   3.021   0.144   7.417 -0.9423  1.2988  1.0785
  136MOL    H1435384   2.786   0.049   7.320 -1.8948  0.4739  0.9003
  136MOL    C1535385   3.041   0.130   7.195  0.1556 -0.4556  0.1535
  136MOL    N1635386   3.189   0.148   7.219  0.3826 -0.6734 -0.0608
  136MOL    C1735387   3.266   0.052   7.263  0.1514 -0.0479  0.3678
  136MOL    O1835388   3.222   7.781   7.288 -0.0861  0.2980 -0.6652
  136MOL    C1935389   3.412   0.084   7.279  0.1204 -0.1559  0.1419
  136MOL    C2035390   3.000   0.194   7.057 -0.3490  0.7745  0.7103
  136MOL    H2135391   3.011   0.025   7.188 -1.2933 -0.0092 -0.6896
  136MOL    H2235392   3.236   0.230   7.183  0.3274 -1.0847 -1.0875
  136MOL    H2335393   3.458   0.064   7.182 -0.6088 -0.2428 -0.1914
  136MOL    H2435394   3.440   0.184   7.312  2.0891  0.4661 -3.1275
  136MOL    H2535395   3.455   0.022   7.357  0.7873  0.1465  0.0248
  136MOL    H2635396   3.051   0.124   6.991 -0.2413  1.3135  0.2195
  136MOL    H2735397   2.896   0.172   7.034 -0.0165  1.2761 -1.3688
  136MOL    C2835398   3.047   0.335   7.015 -0.4310  0.2886 -0.3443
  136MOL    N2935399   3.021   0.431   7.134  0.3088  0.2306  0.4372
  136MOL    C3035400   3.122   0.490   7.207 -0.3317  0.5113 -0.2685
  136MOL    O3135401   3.240   0.475   7.171  0.1735  0.2579  1.2006
  136MOL    C3235402   3.092   0.572   7.327  0.2728 -0.2195 -0.7650
  136MOL    C3335403   2.969   0.369   6.887  0.4865  0.4823 -0.2775
  136MOL    H3435404   3.151   0.338   6.983  0.8414 -0.9563  3.3537
  136MOL    H3535405   2.928   0.457   7.161 -1.2602 -2.6782 -1.8501
  136MOL    H3635406   3.015   0.647   7.305  0.1756 -0.0393  0.1632
  136MOL    H3735407   3.047   0.508   7.402  0.3509  1.4083  0.6904
  136MOL    H3835408   3.183   0.626   7.354 -0.0248  0.6360 -1.4171
  136MOL    H3935409   2.995   0.295   6.812 -1.9235  1.0347 -1.7116
  136MOL    H4035410   2.862   0.358   6.903  0.7005  1.4754  2.0565
  136MOL    C4135411   2.991   0.505   6.813 -0.3273 -0.4908  0.4255
  136MOL    N4235412   3.138   0.526   6.802  0.0038  0.7334 -0.0753
  136MOL    C4335413   3.196   0.599   6.706 -0.5291 -0.3673 -0.6177
  136MOL    O4435414   3.140   0.680   6.636  0.4081 -0.1580 -0.1469
  136MOL    C4535415   3.344   0.590   6.703 -0.2812  0.1272  0.3719
  136MOL    C4635416   2.936   0.631   6.895 -0.0455 -0.0818 -0.0508
  136MOL    H4735417   2.951   0.502   6.712 -0.0883  1.1776  0.2633
  136MOL    H4835418   3.199   0.474   6.862 -1.3772 -2.9430 -1.6847
  136MOL    H4935419   3.385   0.495   6.740 -0.0243  0.2753  0.4703
  136MOL    H5035420   3.371   0.612   6.600 -1.6420 -1.2984 -0.2990
  136MOL    H5135421   3.391   0.668   6.763 -1.1227  0.4443  0.6223
  136MOL    H5235422   3.007   0.642   6.977  0.2222  1.1304 -0.4320
  136MOL    H5335423   2.945   0.719   6.832  0.9579  0.2304  0.5049
  136MOL    C5435424   2.785   0.626   6.936 -0.2162  0.3940 -0.1009
  136MOL    N5535425   2.701   0.638   6.809  0.0197  0.2566 -0.7061
  136MOL    C5635426   2.667   0.548   6.716  0.2995  0.2265 -1.2118
  136MOL    O5735427   2.702   0.434   6.722  0.2728  0.0225 -0.6790
  136MOL    C5835428   2.567   0.585   6.616 -0.4230  0.0240 -0.0772
  136MOL    C5935429   2.763   0.746   7.036 -0.3649 -0.0612  0.5087
  136MOL    H6035430   2.762   0.533   6.987  0.0268  0.4419  0.0999
  136MOL    H6135431   2.678   0.733   6.783  1.2040  0.0511 -2.5615
  136MOL    H6235432   2.541   0.689   6.636 -0.9120 -0.3141  1.1057
  136MOL    H6335433   2.610   0.577   6.517  2.1369 -1.6929  1.1239
  136MOL    H6435434   2.478   0.523   6.620 -0.8392  0.7019  1.7281
  136MOL    H6535435   2.847   0.737   7.105  0.2206 -0.2472 -0.2135
  136MOL    H6635436   2.783   0.840   6.985  3.3290 -2.5718 -3.0479
  136MOL    C6735437   2.630   0.725   7.111  0.2526  0.6249  0.4221
  136MOL    N6835438   2.512   0.741   7.019 -0.7790 -0.5070  0.4962
  136MOL    C6935439   2.387   0.719   7.038 -0.5881  0.6914  0.0828
  136MOL    O7035440   2.341   0.686   7.148 -0.4795 -0.2936 -0.2263
  136MOL    C7135441   2.296   0.726   6.913  0.4653 -0.0020  0.4042
  136MOL    C7235442   2.622   0.839   7.219 -0.0682  0.9486  0.6150
  136MOL    H7335443   2.615   0.626   7.154  0.7118  0.4824  0.2488
  136MOL    H7435444   2.531   0.774   6.926  1.1029 -0.9070  0.7175
  136MOL    H7535445   2.347   0.739   6.817 -0.1278  1.6821  0.2937
  136MOL    H7635446   2.244   0.631   6.907 -0.3719  0.4924 -0.3058
  136MOL    H7735447   2.214   0.796   6.928 -0.2304 -0.8024  0.3577
  136MOL    H7835448   2.652   0.932   7.169  0.2515 -0.5022 -2.0119
  136MOL    H7935449   2.519   0.850   7.252 -0.1039  0.5677  0.6304
  136MOL    C8035450   2.715   0.816   7.341  0.5109 -0.4756  0.1101
  136MOL    N8135451   2.650   0.716   7.429  0.2247 -0.9768  0.1435
  136MOL    C8235452   2.680   0.588   7.430 -0.3864  0.2434 -0.2501
  136MOL    O8335453   2.769   0.548   7.356 -0.5855  0.1340 -0.5816
  136MOL    C8435454   2.603   0.491   7.513 -0.5147  0.2072 -0.1807
  136MOL    C8535455   2.746   0.941   7.421 -0.2240  0.0719 -0.3881
  136MOL    H8635456   2.814   0.785   7.307  1.4577 -0.6921  2.9559
  136MOL    H8735457   2.571   0.738   7.488  1.0216 -0.1033  0.8956
  136MOL    H8835458   2.555   0.549   7.592  0.9113 -0.9654  1.5874
  136MOL    H8935459   2.531   0.432   7.456  0.6280 -0.5394 -0.8623
  136MOL    H9035460   2.681   0.433   7.561  0.4873  0.9048 -0.9479
  136MOL    H9135461   2.764   1.019   7.347  0.6892 -1.6616 -2.0337
  136MOL    H9235462   2.664   0.969   7.488 -0.3254  0.0029 -0.4842
  136MOL    C9335463   2.865   0.917   7.520  0.5683  0.0033 -0.3677
  136MOL    N9435464   2.880   1.029   7.615 -0.4960  0.1488  0.5116
  136MOL    C9535465   2.818   1.028   7.732 -0.4457  0.6303 -0.4029
  136MOL    O9635466   2.766   0.927   7.776  0.4133 -0.2094 -0.6078
  136MOL    C9735467   2.816   1.157   7.813  0.5734 -0.1439  0.1627
  136MOL    C9835468   2.999   0.893   7.457 -0.6307 -0.4030 -0.6420
  136MOL    H9935469   2.843   0.824   7.572  1.2569 -1.2842 -2.3196
  136MOL   H10035470   2.932   1.112   7.593 -0.5783  0.4885  1.5721
  136MOL   H10135471   2.916   1.199   7.824  0.3117  0.2141  1.2780
  136MOL   H10235472   2.743   1.232   7.782  0.2905 -0.6402 -0.3653
  136MOL   H10335473   2.795   1.132   0.077 -0.6832  1.8872  0.4229
  136MOL   H10435474   3.075   0.896   7.535 -1.0604 -0.9470 -0.1978
  136MOL   H10535475   3.009   0.785   7.458 -2.4557 -0.5878 -0.0376
  136MOL   C10635476   3.051   0.965   7.325 -1.0519  0.7181 -0.0685
  136MOL   N10735477   3.187   0.902   7.291  0.3340 -0.1823  0.4789
  136MOL   C10835478   3.226   0.840   7.175  0.5313  0.5523  0.1595
  136MOL   O10935479   3.148   0.837   7.078 -0.4679  0.1683  0.3421
  136MOL   C11035480   3.371   0.781   7.167  0.1000 -0.2009 -0.2990
  136MOL   C11135481   3.072   1.117   7.333  0.1309  0.0941  0.1560
  136MOL   H11235482   2.982   0.946   7.243 -0.9826 -0.5217  0.1485
  136MOL   H11335483   3.267   0.914   7.351  0.2627  2.2135  0.1466
  136MOL   H11435484   3.389   0.715   7.252  0.6427 -0.4671 -0.6170
  136MOL   H11535485   3.378   0.725   7.073  1.5978 -0.0401 -0.3072
  136MOL   H11635486   3.445   0.861   7.166  0.3933 -0.4697 -0.2839
  136MOL   H11735487   2.979   1.151   7.379 -0.6204 -0.6854 -0.7835
  136MOL   H11835488   3.152   1.119   7.407  0.4838 -0.3082 -0.2101
  136MOL   C11935489   3.098   1.188   7.199 -0.6692 -0.6303 -0.2428
  136MOL   N12035490   3.190   1.301   7.218  0.3920 -0.4180  0.1662
  136MOL   C12135491   3.321   1.295   7.241  0.0599  0.2198  0.0283
  136MOL   O12235492   3.377   1.186   7.247  0.6584  0.0715  0.1652
  136MOL   C12335493   3.401   1.423   7.249 -0.2176  0.4635 -0.3123
  136MOL   C12435494   2.968   1.238   7.127 -0.4733  0.6232 -0.6044
  136MOL   H12535495   3.152   1.130   7.124  2.2368  1.0666  0.4643
  136MOL   H12635496   3.155   1.396   7.218  2.1995  0.2540 -0.4222
  136MOL   H12735497   3.491   1.408   7.309 -0.7173 -1.4799  0.0147
  136MOL   H12835498   3.432   1.471   7.156  1.9432  1.3605  0.8498
  136MOL   H12935499   3.354   1.497   7.314 -4.4839 -2.1264 -0.2205
  136MOL   H13035500   2.907   1.294   7.199 -1.6555  0.3031 -1.3442
  136MOL   H13135501   3.001   1.302   7.046 -0.0944 -0.1645 -1.0786
  136MOL   C13235502   2.880   1.131   7.062 -0.0904  0.4507 -0.2828
  136MOL   N13335503   2.959   1.061   6.960  0.3597 -0.0008  0.2722
  136MOL   C13435504   3.013   1.112   6.847  0.5507  0.2514 -0.1132
  136MOL   O13535505   2.977   1.217   6.804 -0.3883  0.0288 -0.2035
  136MOL   C13635506   3.108   1.025   6.764 -0.4399 -0.2118 -0.3824
  136MOL   C13735507   2.758   1.212   7.012  0.0851 -0.1759  0.3439
  136MOL   H13835508   2.839   1.060   7.134 -1.9591  2.7816  1.0378
  136MOL   H13935509   2.991   0.967   6.977  0.7263  0.2733  1.1065
  136MOL   H14035510   3.162   0.965   6.838 -0.9597 -0.2769 -0.0468
  136MOL   H14135511   3.053   0.954   6.702  1.2002 -2.1344  0.3139
  136MOL   H14235512   3.176   1.087   6.707  0.1726 -0.5949 -0.0829
  136MOL   H14335513   2.713   1.251   7.104 -1.7929  0.7837 -0.9490
  136MOL   H14435514   2.786   1.300   6.955  0.1061 -0.7293 -0.4951
  136MOL   C14535515   2.647   1.139   6.939  0.2298 -0.3182 -0.6549
  136MOL   N14635516   2.697   1.093   6.809 -0.5786  0.1519 -0.4825
  136MOL   C14735517   2.662   0.983   6.741 -0.3958 -0.0663 -0.3818
  136MOL   O14835518   2.585   0.902   6.783  0.6888 -0.9393 -0.3114
  136MOL   C14935519   2.705   0.960   6.593  0.4788 -0.3914 -0.1682
  136MOL   C15035520   2.517   1.227   6.911  0.4433  0.2399  0.6821
  136MOL   H15135521   2.625   1.048   6.995 -0.5125 -1.5616 -2.9051
  136MOL   H15235522   2.774   1.147   6.771  0.1215 -0.2689  0.3052
  136MOL   H15335523   2.671   0.863   6.557  0.6504 -0.3534 -0.4312
  136MOL   H15435524   2.650   1.028   6.527  2.6248  3.0778  1.4958
  136MOL   H15535525   2.814   0.959   6.592  0.5420  0.1012  2.6427
  136MOL   H15635526   2.446   1.148   6.886  1.7763 -1.0064  0.7803
  136MOL   H15735527   2.488   1.266   7.009  2.0997  0.4749  1.0871
  136MOL   C15835528   2.516   1.345   6.809 -0.3663  0.2467 -0.0416
  136MOL   N15935529   2.399   1.428   6.841 -0.1698  0.2869 -0.6956
  136MOL   C16035530   2.407   1.559   6.825 -0.1857  0.1824  0.6112
  136MOL   O16135531   2.513   1.621   6.797 -0.2325  0.2343 -0.1289
  136MOL   C16235532   2.277   1.638   6.806  0.1824  0.4233  0.3407
  136MOL   C16335533   2.510   1.306   6.662  0.9666  0.4292 -0.0442
  136MOL   H16435534   2.609   1.399   6.829 -1.4517  1.9117  0.5441
  136MOL   H16535535   2.311   1.380   6.858  0.2567 -1.1321 -2.3350
  136MOL   H16635536   2.224   1.634   6.901  0.7344 -0.3562  0.6157
  136MOL   H16735537   2.290   1.744   6.780 -0.4355  0.4720  0.2276
  136MOL   H16835538   2.217   1.595   6.726  1.0809  1.1535 -0.7459
  136MOL   H16935539   2.553   1.381   6.596 -0.3322  1.2558  0.0444
  136MOL   H17035540   2.593   1.238   6.643 -0.8979 -1.2727 -2.3285
  136MOL   C17135541   2.378   1.256   6.608  0.2301  0.4906 -0.0440
  136MOL   N17235542   2.323   1.141   6.679 -0.0388  0.5052 -1.0421
  136MOL   C17335543   2.196   1.101   6.668 -0.4358  0.2819  0.2725
  136MOL   O17435544   2.112   1.157   6.591  0.2291 -0.6362  0.1178
  136MOL   C17535545   2.165   0.982   6.749  0.4923  0.7354 -0.0228
  136MOL   C17635546   2.388   1.230   6.452  0.4401  0.4872  0.3533
  136MOL   H17735547   2.308   1.338   6.626 -1.8183 -1.1317 -0.4096
  136MOL   H17835548   2.378   1.092   6.747 -2.7582  1.5563  2.0087
  136MOL   H17935549   2.063   0.946   6.739  0.7651 -0.8484  2.4906
  136MOL   H18035550   2.230   0.901   6.716 -0.2409  0.3167 -0.4449
  136MOL   H18135551   2.189   1.012   6.851 -2.9551  0.7746  0.8289
  136MOL   H18235552   2.490   1.202   6.427  0.4500  0.5455  0.3266
  136MOL   H18335553   2.334   1.136   6.441 -1.0890  1.5529 -1.4391
  136MOL   C18435554   2.342   1.339   6.348  0.5989  0.1799 -0.7077
  136MOL   N18535555   2.222   1.387   6.406  0.4820  0.8608  0.1458
  136MOL   C18635556   2.161   1.509   6.415  0.0254 -0.0106 -0.7306
  136MOL   O18735557   2.209   1.612   6.366  0.6939 -0.7378  0.2289
  136MOL   C18835558   2.041   1.507   6.507  0.2498  0.3575  0.6065
  136MOL   C18935559   2.323   1.281   6.204  0.3989  0.3827  0.3316
  136MOL   H19035560   2.402   1.429   6.343 -1.6066  1.5756 -3.1740
  136MOL   H19135561   2.164   1.313   6.442 -1.4557  2.9990  1.5986
  136MOL   H19235562   2.037   1.595   6.572  0.3559  0.4943  0.4305
  136MOL   H19335563   1.958   1.520   6.437 -0.8142  0.3548  1.8349
  136MOL   H19435564   2.036   1.417   6.568  3.8970 -1.0650 -1.0528
  136MOL   H19535565   2.352   1.176   6.202  0.3787  0.3389  1.5913
  136MOL   H19635566   2.220   1.288   6.171  0.0063 -0.0564  1.4222
  136MOL   C19735567   2.399   1.352   6.095  0.1500 -0.3690 -0.1775
  136MOL   N19835568   2.343   1.482   6.075 -0.7277 -0.2703 -0.0912
  136MOL   C19935569   2.413   1.597   6.084 -0.3828  0.6441 -0.3834
  136MOL   O20035570   2.524   1.602   6.124 -0.4940  0.1269  0.1179
  136MOL   C20135571   2.344   1.729   6.059 -0.1217 -0.9376 -0.1187
  136MOL   C20235572   2.395   1.261   5.971  0.0884  0.5818  0.7785
  136MOL   H20335573   2.502   1.362   6.129  0.9988  0.7155 -2.9738
  136MOL   H20435574   2.246   1.488   6.046 -0.8060  0.8553  0.3861
  136MOL   H20535575   2.424   1.792   6.022 -0.3378 -0.3384  0.4281
  136MOL   H20635576   2.262   1.719   5.988 -1.5521 -0.9885  1.4797
  136MOL   H20735577   2.301   1.764   6.153  0.6600 -0.5197  0.0793
  136MOL   H20835578   2.433   1.161   5.992 -1.1251 -0.2847 -0.9625
  136MOL   H20935579   2.292   1.242   5.941 -0.1033  1.3775  0.9251
  136MOL   C21035580   2.487   1.318   5.858 -0.2178 -0.0199  0.2141
  136MOL   N21135581   2.485   1.226   5.745 -0.4318  0.1820  0.7918
  136MOL   C21235582   2.377   1.210   5.665 -0.0845 -0.2690 -0.4805
  136MOL   O21335583   2.265   1.267   5.685  0.6904 -0.0483  0.5426
  136MOL   C21435584   2.395   1.121   5.547  0.2886  0.2373 -0.5673
  136MOL   C21535585   2.635   1.341   5.897 -0.8708  0.1390  0.0320
  136MOL   H21635586   2.442   1.413   5.829 -1.2854 -0.2317  1.1509
  136MOL   H21735587   2.572   1.191   5.707 -0.4678 -0.3292  1.1723
  136MOL   H21835588   2.340   1.190   5.484  1.3215  1.0906 -0.5429
  136MOL   H21935589   2.499   1.094   5.526  0.1162 -0.8096 -0.1184
  136MOL   H22035590   2.329   1.039   5.575 -0.1275  0.5130 -0.7254
  136MOL   H22135591   2.646   1.415   5.976  2.0598  0.7833 -0.8990
  136MOL   H22235592   2.661   1.248   5.947  0.7644  0.2557 -0.5548
  136MOL   C22335593   2.736   1.365   5.783  0.1904 -0.3153 -0.3322
  136MOL   N22435594   2.856   1.282   5.802  0.9141 -0.2372 -0.1611
  136MOL   C22535595   2.870   1.155   5.751  0.5478  0.6270  0.4596
  136MOL   O22635596   2.775   1.087   5.705  0.3057  0.1449 -0.0884
  136MOL   C22735597   3.008   1.102   5.750 -0.1728  0.4618  0.3814
  136MOL   C22835598   2.766   1.518   5.768 -0.2837  0.2514  0.2861
  136MOL   H22935599   2.699   1.336   5.685  1.0309 -1.6719 -0.2627
  136MOL   H23035600   2.941   1.328   5.833 -0.2761  1.4545  0.6510
  136MOL   H23135601   3.079   1.180   5.723  1.7186 -0.7099  1.8373
  136MOL   H23235602   3.039   1.064   5.847 -1.0764 -1.0295  0.1070
  136MOL   H23335603   3.015   1.019   5.679 -0.0026  1.0713 -0.3290
  136MOL   H23435604   2.808   1.543   5.865 -2.1740 -0.9013  1.4260
  136MOL   H23535605   2.839   1.517   5.687 -1.9419 -0.6391 -1.2369
  136MOL   C23635606   2.648   1.609   5.729  0.7776  0.9844 -0.6925
  136MOL   N23735607   2.560   1.561   5.622  0.1992 -0.8480  0.3334
  136MOL   C23835608   2.429   1.586   5.623 -0.2191 -0.3799  0.9060
  136MOL   O23935609   2.373   1.650   5.710 -0.1993  1.0564 -0.1480
  136MOL   C24035610   2.352   1.528   5.506  0.0730  0.0479 -0.8373
  136MOL   C24135611   2.697   1.747   5.683 -0.3480  0.2882 -0.1519
  136MOL   H24235612   2.588   1.629   5.818  1.7330 -0.0395  0.1931
  136MOL   H24335613   2.594   1.503   5.547 -1.9398 -1.4675 -0.1803
  136MOL   H24435614   2.250   1.499   5.529 -1.1007  2.7989 -2.3176
  136MOL   H24535615   2.331   1.598   5.425 -0.7075  1.5784  0.6427
  136MOL   H24635616   2.409   1.450   5.455  0.2380 -0.2904 -0.1409
  136MOL   H24735617   2.747   1.744   5.585  0.1486 -0.4235  0.1172
  136MOL   H24835618   2.612   1.813   5.668 -0.2459  1.2582  3.2492
  136MOL   C24935619   2.798   1.820   5.771  0.1177 -0.5700 -1.0270
  136MOL   N25035620   2.732   1.865   5.891 -0.1800 -0.1183 -0.0759
  136MOL   C25135621   2.778   1.837   6.018  0.6672 -0.3652  0.1300
  136MOL   O25235622   2.875   1.759   6.033  0.4585  0.0509  0.9522
  136MOL   C25335623   2.702   1.894   6.135 -0.1402  0.7980 -0.2754
  136MOL   C25435624   2.850   1.941   5.693  0.1099 -0.2755 -0.4267
  136MOL   H25535625   2.887   1.762   5.792  0.5638  0.4812  0.0168
  136MOL   H25635626   2.659   1.934   5.879  0.8382  1.2670  1.5302
  136MOL   H25735627   2.619   1.828   6.162  0.2656  0.1546 -0.5762
  136MOL   H25835628   2.772   1.912   6.216 -1.1620  0.8433  0.6038
  136MOL   H25935629   2.660   1.991   6.109 -0.5698  0.7960  0.4163
  136MOL   H26035630   2.771   2.015   5.684  0.4424  0.1130 -0.1873
  136MOL   H26135631   2.941   1.982   5.739  1.1286 -3.7063  0.7605
  136MOL   H26235632   2.871   1.919   5.588  0.5276 -0.3964 -0.3224
  137MOL     C135633   4.108   4.459   4.816  0.5458 -0.8876 -0.2349
  137MOL     N235634   4.047   4.545   4.917 -0.3374 -0.2221 -0.1960
  137MOL     C335635   4.083   4.545   5.045 -0.2197 -0.6209  0.2895
  137MOL     O435636   4.176   4.478   5.095  0.6878 -0.2374 -0.3051
  137MOL     C535637   4.011   4.650   5.133  0.7289  0.3705 -0.0505
  137MOL     C635638   4.236   4.524   4.751 -0.2408 -0.1414 -0.5370
  137MOL     H735639   4.127   4.357   4.850  0.4429 -1.1473 -0.9598
  137MOL     H835640   3.964   4.597   4.894 -0.6261  0.4162  2.1428
  137MOL     H935641   3.917   4.600   5.156  0.2827 -0.6941 -3.8721
  137MOL    H1035642   4.071   4.671   5.222 -0.1386  0.2956  0.5641
  137MOL    H1135643   3.997   4.748   5.087 -2.0328 -0.3035 -0.7497
  137MOL    H1235644   4.245   4.469   4.658  2.4556  0.3743 -0.6291
  137MOL    H1335645   4.216   4.629   4.728  0.4321  0.5276  1.7779
  137MOL    H1435646   4.033   4.446   4.738 -1.2458  1.0753  1.1020
  137MOL    C1535647   4.371   4.511   4.828  0.7868  0.3058  0.3271
  137MOL    N1635648   4.469   4.608   4.787 -0.1308 -0.4457 -0.8815
  137MOL    C1735649   4.506   4.660   4.665  0.6651 -0.0487  1.1328
  137MOL    O1835650   4.459   4.623   4.563  0.3745 -0.1515  0.3619
  137MOL    C1935651   4.612   4.773   4.669  0.0887 -0.6137  0.1069
  137MOL    C2035652   4.421   4.367   4.842  0.3162 -0.0723  0.3599
  137MOL    H2135653   4.359   4.540   4.933  1.6259 -1.3497  0.8986
  137MOL    H2235654   4.523   4.632   4.869 -1.4071  0.5015 -0.2925
  137MOL    H2335655   4.575   4.872   4.643  0.1495 -0.5524  0.2523
  137MOL    H2435656   4.644   4.785   4.773 -0.0525  1.4311 -0.0595
  137MOL    H2535657   4.687   4.757   4.592 -1.4025 -0.9930 -1.3054
  137MOL    H2635658   4.345   4.298   4.878  0.5422  0.3894  1.7355
  137MOL    H2735659   4.438   4.338   4.738  0.9283  2.8508 -0.3952
  137MOL    C2835660   4.546   4.346   4.928 -0.3166  0.8144  0.0863
  137MOL    N2935661   4.604   4.217   4.889  0.2322  0.1663  0.2707
  137MOL    C3035662   4.696   4.202   4.792  0.2499 -0.2155  0.2969
  137MOL    O3135663   4.728   4.294   4.718 -0.2839 -0.5806 -0.1226
  137MOL    C3235664   4.769   4.065   4.779 -0.3486  0.2858  0.3714
  137MOL    C3335665   4.512   4.340   5.079 -0.1423 -1.0508 -0.0516
  137MOL    H3435666   4.625   4.418   4.904 -0.5085  0.9473 -0.1481
  137MOL    H3535667   4.591   4.136   4.948  1.0364 -0.3014 -0.1816
  137MOL    H3635668   4.874   4.086   4.758 -0.3833 -0.1459 -0.2681
  137MOL    H3735669   4.767   4.000   4.867 -1.5087  0.1309  0.2352
  137MOL    H3835670   4.729   4.011   4.693 -1.5240  1.4756  0.1641
  137MOL    H3935671   4.410   4.303   5.082 -1.0015  1.3106  0.4369
  137MOL    H4035672   4.576   4.269   5.132 -0.5622  0.2466  2.2596
  137MOL    C4135673   4.528   4.465   5.161 -0.2316 -0.1282 -0.9558
  137MOL    N4235674   4.654   4.528   5.132 -0.1256 -0.5827  0.2129
  137MOL    C4335675   4.679   4.649   5.083  0.3843 -0.4405  0.3164
  137MOL    O4435676   4.588   4.730   5.055  0.6967 -0.2330 -0.5066
  137MOL    C4535677   4.819   4.674   5.042 -0.4833 -0.5304 -0.5785
  137MOL    C4635678   4.494   4.452   5.315 -0.5863  0.2141  0.0405
  137MOL    H4735679   4.460   4.537   5.116 -1.2622 -0.4690  0.0431
  137MOL    H4835680   4.742   4.483   5.151  1.2603  1.8267 -0.1831
  137MOL    H4935681   4.904   4.618   5.080  0.9656  1.0818 -1.3664
  137MOL    H5035682   4.823   4.652   4.935  0.6673 -2.5671 -0.1402
  137MOL    H5135683   4.834   4.781   5.058  1.5862 -0.5018 -2.4351
  137MOL    H5235684   4.396   4.403   5.322 -1.8023  2.2962 -1.9332
  137MOL    H5335685   4.568   4.384   5.357 -0.3744 -0.7615 -1.8540
  137MOL    C5435686   4.498   4.593   5.379  0.4388  0.1971 -0.1317
  137MOL    N5535687   4.490   4.568   5.523 -0.7413  0.5909  0.3286
  137MOL    C5635688   4.569   4.628   5.613 -0.1507 -0.7719  0.4004
  137MOL    O5735689   4.674   4.690   5.585  0.1094  0.6423  0.1430
  137MOL    C5835690   4.513   4.641   5.753 -0.1850 -0.8865 -0.6429
  137MOL    C5935691   4.387   4.699   5.341 -0.4049 -0.4438 -0.2683
  137MOL    H6035692   4.600   4.629   5.365 -0.1506  1.1558 -2.2828
  137MOL    H6135693   4.401   4.524   5.544 -1.5331  0.8934 -2.1979
  137MOL    H6235694   4.450   4.556   5.781 -0.6620 -0.9563 -1.8697
  137MOL    H6335695   4.593   4.643   5.827 -0.7770  1.2108 -0.0477
  137MOL    H6435696   4.461   4.735   5.769  0.2214 -1.0853  1.9834
  137MOL    H6535697   4.374   4.705   5.233 -1.2186  2.3241 -0.0387
  137MOL    H6635698   4.285   4.672   5.369 -0.6175  1.6932  1.1073
  137MOL    C6735699   4.417   4.845   5.379  0.0391  1.1793 -0.7714
  137MOL    N6835700   4.547   4.894   5.335 -0.2575 -0.1763 -0.6637
  137MOL    C6935701   4.571   4.985   5.240  0.5734  0.6425 -0.0579
  137MOL    O7035702   4.486   5.035   5.170  0.0512 -0.2555 -0.9150
  137MOL    C7135703   4.710   5.049   5.225  0.1911  0.0548 -0.2709
  137MOL    C7235704   4.372   4.897   5.520  0.5139  0.1345  0.1594
  137MOL    H7335705   4.347   4.891   5.309 -1.5329  0.4142  0.2805
  137MOL    H7435706   4.628   4.859   5.384  0.7580  0.8017 -1.5849
  137MOL    H7535707   4.699   5.156   5.239  0.5080 -0.0137  0.4872
  137MOL    H7635708   4.788   5.017   5.293  1.4939 -0.7174 -2.0970
  137MOL    H7735709   4.746   5.053   5.122 -0.7106 -0.6629 -0.6256
  137MOL    H7835710   4.328   4.809   5.567 -0.5002  0.8897  0.6581
  137MOL    H7935711   4.454   4.918   5.589  0.1445 -0.8012  0.8982
  137MOL    C8035712   4.278   5.021   5.519  0.1437 -0.7424  0.3203
  137MOL    N8135713   4.336   5.139   5.445 -0.3294 -0.3082 -0.4157
  137MOL    C8235714   4.372   5.262   5.488 -0.2728  0.2524 -0.2607
  137MOL    O8335715   4.319   5.307   5.588 -0.3894 -0.7968  0.1853
  137MOL    C8435716   4.498   5.318   5.422  0.4350 -0.6103  0.0483
  137MOL    C8535717   4.221   5.059   5.659  0.7162  0.1671  0.0797
  137MOL    H8635718   4.209   4.982   5.445 -0.0754  0.4720 -0.1270
  137MOL    H8735719   4.386   5.111   5.362  0.2105 -2.9070  0.7518
  137MOL    H8835720   4.590   5.276   5.463  0.5621 -0.7391 -0.3661
  137MOL    H8935721   4.510   5.284   5.319  0.2123 -1.0925  0.1784
  137MOL    H9035722   4.509   5.425   5.437  1.1596 -0.8873  1.5187
  137MOL    H9135723   4.306   5.082   5.724  0.5287 -0.6098  0.6089
  137MOL    H9235724   4.160   5.149   5.659 -0.5215 -0.6504 -1.3064
  137MOL    C9335725   4.139   4.946   5.732  0.2797  0.3859 -1.1630
  137MOL    N9435726   4.046   4.879   5.638 -0.5628 -0.0142  0.2623
  137MOL    C9535727   3.947   4.932   5.563 -0.2515  0.1154  0.2195
  137MOL    O9635728   3.926   5.053   5.568  0.5921 -0.2063  0.2082
  137MOL    C9735729   3.855   4.838   5.491  0.0015  0.0010  1.0280
  137MOL    C9835730   4.068   4.996   5.854  0.2773  0.1931  0.2919
  137MOL    H9935731   4.220   4.876   5.753 -1.5979 -1.9469 -1.4277
  137MOL   H10035732   4.056   4.779   5.639  0.0247  0.0371  1.9954
  137MOL   H10135733   3.755   4.874   5.513 -0.1776 -0.1209  0.4140
  137MOL   H10235734   3.873   4.829   5.384  0.3758  1.4459  0.9557
  137MOL   H10335735   3.870   4.734   5.522  1.2845  0.1943  1.0833
  137MOL   H10435736   4.001   5.072   5.814  1.0212  1.1143  0.7799
  137MOL   H10535737   3.999   4.926   5.900 -0.3579  1.6413  1.5755
  137MOL   C10635738   4.160   5.053   5.965  0.3132  0.8706 -0.3210
  137MOL   N10735739   4.218   4.941   6.041 -0.5967  0.3771  0.3629
  137MOL   C10835740   4.341   4.926   6.064 -0.5057  0.7728  0.2010
  137MOL   O10935741   4.426   5.013   6.055 -0.3217 -0.4910  0.2393
  137MOL   C11035742   4.391   4.789   6.099 -0.2683 -0.0267 -0.3460
  137MOL   C11135743   4.086   5.151   6.047  0.1860 -0.0550 -0.6561
  137MOL   H11235744   4.246   5.114   5.936  2.4992 -0.9661  2.0091
  137MOL   H11335745   4.160   4.859   6.049  1.9459 -1.4558  0.7467
  137MOL   H11435746   4.378   4.722   6.015 -1.6498  0.8094 -0.8132
  137MOL   H11535747   4.497   4.805   6.121  0.0533 -4.0126  1.3568
  137MOL   H11635748   4.329   4.748   6.178  0.8718  1.4341  1.3637
  137MOL   H11735749   3.999   5.112   6.099  0.1198  0.5337 -0.3261
  137MOL   H11835750   4.159   5.182   6.122  0.3600  1.2169 -1.3304
  137MOL   C11935751   4.044   5.281   5.977  0.1106 -0.2829 -0.4846
  137MOL   N12035752   4.162   5.339   5.901  0.4617  0.2502 -0.4867
  137MOL   C12135753   4.257   5.414   5.955  0.5869 -0.2142 -0.7871
  137MOL   O12235754   4.268   5.440   6.079 -0.7931  0.7243  0.3349
  137MOL   C12335755   4.367   5.461   5.857 -0.4516 -0.0798 -0.1407
  137MOL   C12435756   3.979   5.384   6.066  0.3266  0.3318 -0.0333
  137MOL   H12535757   3.966   5.264   5.903 -1.9659  1.1215  1.3293
  137MOL   H12635758   4.183   5.308   5.807  0.5510 -3.2928  0.6160
  137MOL   H12735759   4.447   5.513   5.909 -0.4028  0.3130 -0.6009
  137MOL   H12835760   4.409   5.373   5.807  0.2488  1.4145 -2.2672
  137MOL   H12935761   4.319   5.524   5.782 -0.7177  0.0691  0.1545
  137MOL   H13035762   4.041   5.402   6.153  0.6604  0.7078 -0.3489
  137MOL   H13135763   3.991   5.483   6.021 -0.5105  0.2776 -0.3964
  137MOL   C13235764   3.834   5.360   6.103 -0.1396 -0.4563  0.1234
  137MOL   N13335765   3.746   5.424   6.007  0.1812 -0.4582  0.3344
  137MOL   C13435766   3.644   5.364   5.953  0.2304 -0.4977  0.0964
  137MOL   O13535767   3.629   5.245   5.952  0.4764  0.1308  0.3272
  137MOL   C13635768   3.533   5.443   5.888 -0.5051 -0.4992  0.0798
  137MOL   C13735769   3.792   5.411   6.242 -0.6557 -0.1558 -0.2338
  137MOL   H13835770   3.820   5.252   6.099  0.6648 -0.5861  0.6779
  137MOL   H13935771   3.760   5.524   6.005  1.7423 -0.6657  0.4308
  137MOL   H14035772   3.476   5.367   5.835 -0.4023 -0.0208 -0.7274
  137MOL   H14135773   3.470   5.499   5.958 -4.0135 -1.1794 -2.4255
  137MOL   H14235774   3.582   5.514   5.821 -0.2620 -1.7206 -1.0510
  137MOL   H14335775   3.812   5.518   6.234  1.8344 -0.6532 -1.2449
  137MOL   H14435776   3.685   5.405   6.259 -0.4350 -0.3960  1.1481
  137MOL   C14535777   3.852   5.334   6.363 -0.0521  0.0964 -0.0080
  137MOL   N14635778   3.784   5.204   6.380  0.4405  0.1810 -0.5847
  137MOL   C14735779   3.833   5.080   6.365 -0.3200  0.3795 -0.0765
  137MOL   O14835780   3.956   5.065   6.345 -0.7242 -0.2011  0.3119
  137MOL   C14935781   3.746   4.965   6.395 -0.6145  0.3865 -0.2396
  137MOL   C15035782   3.852   5.416   6.495 -0.7650 -0.5209  0.5963
  137MOL   H15135783   3.956   5.307   6.345 -0.0369  0.5749 -0.6640
  137MOL   H15235784   3.684   5.215   6.391  0.3962  0.7165 -1.4826
  137MOL   H15335785   3.672   4.983   6.472  0.0257  0.4779  0.3639
  137MOL   H15435786   3.693   4.928   6.307 -0.7677  0.0560 -0.0112
  137MOL   H15535787   3.800   4.879   6.435 -3.1135 -0.6593  0.9946
  137MOL   H15635788   3.941   5.381   6.548 -0.0402  0.0414 -0.2315
  137MOL   H15735789   3.867   5.521   6.471 -1.0064 -0.8400 -1.0177
  137MOL   C15835790   3.745   5.410   6.598  0.2635  0.1584 -0.2569
  137MOL   N15935791   3.618   5.471   6.553  0.2928  0.4461 -0.8366
  137MOL   C16035792   3.514   5.410   6.495 -0.4578  0.2906  0.0412
  137MOL   O16135793   3.510   5.291   6.472 -0.1214 -1.3724 -0.2390
  137MOL   C16235794   3.397   5.501   6.461 -0.2421 -0.5419 -0.1991
  137MOL   C16335795   3.791   5.452   6.739 -0.5313 -0.6908 -0.4163
  137MOL   H16435796   3.722   5.304   6.610  0.7372 -0.2112 -2.3684
  137MOL   H16535797   3.607   5.568   6.579  1.5867  0.8715 -1.8064
  137MOL   H16635798   3.354   5.530   6.556 -1.4644 -1.6341 -0.4073
  137MOL   H16735799   3.413   5.591   6.401  0.2575 -0.7937 -0.4449
  137MOL   H16835800   3.316   5.444   6.416 -1.9324  1.7836 -0.2147
  137MOL   H16935801   3.712   5.421   6.808 -0.2188 -1.2004 -0.2864
  137MOL   H17035802   3.880   5.405   6.779  0.9066  2.5069  0.2962
  137MOL   C17135803   3.793   5.599   6.769  0.0226  0.8833  0.0571
  137MOL   N17235804   3.857   5.684   6.669 -0.4344  0.7159  0.0633
  137MOL   C17335805   3.800   5.766   6.578 -0.0970  0.0262  0.1329
  137MOL   O17435806   3.680   5.789   6.579  1.1308 -0.3189  0.2684
  137MOL   C17535807   3.891   5.819   6.475 -0.0042  0.6911 -0.1687
  137MOL   C17635808   3.846   5.635   6.910  0.1660  0.4938 -0.3166
  137MOL   H17735809   3.688   5.627   6.779 -0.3191 -0.0337 -0.8463
  137MOL   H17835810   3.954   5.659   6.656  0.0126  2.8361 -0.9540
  137MOL   H17935811   3.860   5.922   6.459 -0.9846  0.0354 -2.6864
  137MOL   H18035812   3.995   5.818   6.508  1.2773 -0.8359 -4.0235
  137MOL   H18135813   3.880   5.767   6.380 -2.1883 -0.1822  0.5278
  137MOL   H18235814   3.784   5.590   6.987 -1.5198  1.7264 -0.9052
  137MOL   H18335815   3.939   5.584   6.936 -0.0962  0.5748  0.8297
  137MOL   C18435816   3.864   5.791   6.941  0.6460  0.3140 -0.4869
  137MOL   N18535817   3.915   5.795   7.084 -0.2135 -0.5433 -0.0084
  137MOL   C18635818   4.048   5.781   7.120  0.0420  0.0120 -0.7167
  137MOL   O18735819   4.145   5.764   7.052  0.6709  0.5397 -0.5318
  137MOL   C18835820   4.072   5.816   7.268 -0.4141  0.7425  0.3193
  137MOL   C18935821   3.735   5.869   6.912  0.3623  0.0614 -0.1258
  137MOL   H19035822   3.936   5.826   6.868  0.3514  1.0349 -0.4441
  137MOL   H19135823   3.837   5.805   7.147 -0.2412  0.2397 -0.1594
  137MOL   H19235824   4.177   5.788   7.282 -0.3323  1.0298  0.2757
  137MOL   H19335825   4.052   5.921   7.289 -2.4420  0.9270 -2.3618
  137MOL   H19435826   4.011   5.754   7.334 -1.2048 -1.5088 -2.4048
  137MOL   H19535827   3.687   5.843   6.818  2.4976  0.4749 -1.3657
  137MOL   H19635828   3.653   5.844   6.980 -0.1205 -1.4771 -1.2362
  137MOL   C19735829   3.755   6.025   6.896 -0.0121 -0.3783 -0.3587
  137MOL   N19835830   3.832   6.079   7.008 -0.8958  0.3188  0.4529
  137MOL   C19935831   3.803   6.080   7.142  0.0331  0.5233  0.0213
  137MOL   O20035832   3.702   6.025   7.188 -0.2283  0.3382  0.0486
  137MOL   C20135833   3.902   6.161   7.225  0.1072 -0.0579 -0.2982
  137MOL   C20235834   3.616   6.096   6.891 -0.6232 -0.5686 -0.3417
  137MOL   H20335835   3.809   6.045   6.804 -0.4510  0.1087 -0.5139
  137MOL   H20435836   3.913   6.129   6.974 -1.7542  1.3007 -0.1657
  137MOL   H20535837   3.992   6.194   7.172 -0.4452 -0.3294 -1.4237
  137MOL   H20635838   3.867   6.257   7.262 -0.1799  0.0605 -0.8678
  137MOL   H20735839   3.948   6.115   7.313  0.8327  0.7703 -0.2326
  137MOL   H20835840   3.559   6.089   6.983 -1.4253  1.6873 -0.6317
  137MOL   H20935841   3.636   6.202   6.876 -1.9110 -0.3792 -0.8712
  137MOL   C21035842   3.522   6.059   6.774  0.2368  0.1087 -0.2381
  137MOL   N21135843   3.585   6.065   6.640  0.2987 -0.1884  0.0028
  137MOL   C21235844   3.645   6.173   6.588 -0.1349 -0.3415  0.2003
  137MOL   O21335845   3.672   6.283   6.643 -0.2181  0.6867  0.8215
  137MOL   C21435846   3.692   6.159   6.436 -0.2824 -0.5260  0.2329
  137MOL   C21535847   3.395   6.144   6.768 -0.0721  0.0561 -0.1307
  137MOL   H21635848   3.496   5.954   6.778 -2.2624  0.7455  1.0606
  137MOL   H21735849   3.587   5.982   6.583  0.8901 -0.3661  0.2793
  137MOL   H21835850   3.799   6.144   6.420 -0.7449 -1.7229 -1.8345
  137MOL   H21935851   3.644   6.073   6.390 -1.6111  0.2990  0.0480
  137MOL   H22035852   3.655   6.244   6.379  0.0902 -0.6024 -0.1226
  137MOL   H22135853   3.418   6.248   6.746  1.3992  0.0187  1.0975
  137MOL   H22235854   3.334   6.105   6.687 -0.7835  0.2929  0.2843
  137MOL   C22335855   3.306   6.143   6.897  0.2489  0.8593  0.3269
  137MOL   N22435856   3.188   6.050   6.889  0.9428 -0.2443 -0.0382
  137MOL   C22535857   3.189   5.924   6.914 -0.3282  0.3630  0.2854
  137MOL   O22635858   3.284   5.857   6.956 -0.5054 -0.7179  0.3231
  137MOL   C22735859   3.065   5.848   6.866  0.3626  0.2979 -0.0984
  137MOL   C22835860   3.252   6.287   6.924 -0.1104  0.2977  0.0462
  137MOL   H22935861   3.361   6.096   6.978 -1.0810 -0.3201  0.5798
  137MOL   H23035862   3.099   6.091   6.865  0.1621 -0.6160  2.1416
  137MOL   H23135863   3.030   5.893   6.774 -0.0287 -2.2659 -1.2579
  137MOL   H23235864   3.098   5.747   6.840  1.3527  0.9583 -1.4394
  137MOL   H23335865   2.984   5.844   6.938  0.3055  0.4835 -0.1534
  137MOL   H23435866   3.333   6.358   6.908  1.1105 -1.1506 -0.2454
  137MOL   H23535867   3.174   6.309   6.852 -0.4639 -1.4683 -0.1326
  137MOL   C23635868   3.194   6.308   7.070  0.3784  0.3596  0.6275
  137MOL   N23735869   3.071   6.385   7.067  0.1878 -0.1714 -0.6289
  137MOL   C23835870   2.944   6.343   7.050 -0.0718  0.5788  0.2711
  137MOL   O23935871   2.914   6.222   7.032  0.5408  0.3184  0.0711
  137MOL   C24035872   2.837   6.450   7.036 -0.3003  0.0356  0.2631
  137MOL   C24135873   3.297   6.391   7.154  0.1070  0.4302  0.1827
  137MOL   H24235874   3.168   6.215   7.120 -1.7683  0.1375 -0.8462
  137MOL   H24335875   3.078   6.485   7.058 -0.1345 -0.2488 -1.7897
  137MOL   H24435876   2.763   6.449   7.116  1.2000 -0.5087  1.6861
  137MOL   H24535877   2.893   6.543   7.039 -0.1046 -0.0030 -1.7353
  137MOL   H24635878   2.792   6.422   6.941  0.7721 -0.1928 -0.1849
  137MOL   H24735879   3.323   6.480   7.097  1.0557  0.0515  0.0182
  137MOL   H24835880   3.250   6.425   7.246 -1.9711 -2.2437  0.1736
  137MOL   C24935881   3.430   6.318   7.186  0.3131  0.0868 -0.4856
  137MOL   N25035882   3.421   6.185   7.258  0.3544 -0.5493  0.3211
  137MOL   C25135883   3.356   6.153   7.370  0.5806 -0.5499 -0.5067
  137MOL   O25235884   3.312   6.239   7.451 -0.1496  0.4203  0.5452
  137MOL   C25335885   3.349   6.008   7.404 -0.5627  0.3302  0.7507
  137MOL   C25435886   3.524   6.411   7.264 -0.0119  0.6798  0.1043
  137MOL   H25535887   3.477   6.301   7.089  1.9842  2.7452 -0.1615
  137MOL   H25635888   3.452   6.101   7.212  0.4585 -2.3903  3.6699
  137MOL   H25735889   3.314   5.996   7.506  1.8882 -3.0124  1.2730
  137MOL   H25835890   3.276   5.968   7.333 -0.1958  0.4371  0.3072
  137MOL   H25935891   3.450   5.968   7.392 -0.3533  0.5114  1.8285
  137MOL   H26035892   3.503   6.512   7.227 -1.3733  0.6321  0.7045
  137MOL   H26135893   3.498   6.414   7.369  0.0857 -3.7673  0.3268
  137MOL   H26235894   3.633   6.411   7.256 -0.0087  2.7782 -0.0949
  138MOL     C135895   6.152   3.388   0.486  0.5395 -0.1769 -0.2878
  138MOL     N235896   6.239   3.287   0.418  0.2161  0.0763  0.3974
  138MOL     C335897   6.219   3.154   0.413 -0.2183 -0.1762  0.2083
  138MOL     O435898   6.121   3.100   0.459  0.3437  0.3109 -0.3826
  138MOL     C535899   6.313   3.065   0.328  0.0713 -0.0112 -0.2148
  138MOL     C635900   6.135   3.508   0.399 -0.3153 -0.2124  0.7489
  138MOL     H735901   6.054   3.343   0.503 -0.0351  1.2580  0.2122
  138MOL     H835902   6.320   3.322   0.369  0.2056 -3.9320 -2.7351
  138MOL     H935903   6.339   2.978   0.390  1.8464  1.9219  1.8742
  138MOL    H1035904   6.296   3.049   0.222  1.9992 -0.4586 -0.4869
  138MOL    H1135905   6.408   3.118   0.326 -0.4878  1.0504  0.7040
  138MOL    H1235906   6.234   3.529   0.359 -1.6732  0.7098 -2.3737
  138MOL    H1335907   6.078   3.485   0.309  0.5986  1.3493 -0.2583
  138MOL    H1435908   6.200   3.411   0.581  2.1194  0.4865 -1.2317
  138MOL    C1535909   6.078   3.634   0.475 -0.5476 -0.4170  0.3987
  138MOL    N1635910   5.950   3.593   0.532 -0.1409  0.3468 -0.1036
  138MOL    C1735911   5.903   3.617   0.653  0.1558 -0.1749 -0.0758
  138MOL    O1835912   5.971   3.643   0.747 -0.3522  0.5078  0.5830
  138MOL    C1935913   5.751   3.603   0.673 -0.0744 -0.2438  0.0375
  138MOL    C2035914   6.060   3.753   0.380 -0.0950  0.3837  0.0444
  138MOL    H2135915   6.145   3.679   0.549 -0.4672 -0.5527  0.4073
  138MOL    H2235916   5.895   3.532   0.473  2.6841 -2.3313 -0.1171
  138MOL    H2335917   5.711   3.501   0.673 -0.4252 -0.1591  3.8749
  138MOL    H2435918   5.726   3.637   0.773  0.6749  0.2220  0.0654
  138MOL    H2535919   5.680   3.643   0.601 -2.4468 -3.2407  0.6205
  138MOL    H2635920   6.010   3.724   0.288 -1.1652 -0.7071  0.9573
  138MOL    H2735921   5.979   3.811   0.425 -0.4062 -0.2467  0.3012
  138MOL    C2835922   6.183   3.845   0.351 -0.1948 -0.3034 -0.0276
  138MOL    N2935923   6.138   3.965   0.274 -0.3547 -0.0354 -0.1917
  138MOL    C3035924   6.113   4.081   0.333 -0.4232  0.1828  0.0628
  138MOL    O3135925   6.137   4.100   0.447  0.4175 -0.0480  0.4132
  138MOL    C3235926   6.042   4.194   0.246 -0.5628  0.3652 -0.2927
  138MOL    C3335927   6.307   3.782   0.283  0.2277 -0.3086  1.0644
  138MOL    H3435928   6.214   3.875   0.451  1.0043 -1.3603 -0.0631
  138MOL    H3535929   6.091   3.955   0.185  0.2937  3.0702 -0.9482
  138MOL    H3635930   6.121   4.241   0.187 -2.4984  1.1233 -2.3402
  138MOL    H3735931   5.967   4.141   0.188 -0.0269  1.5515 -2.1170
  138MOL    H3835932   5.993   4.268   0.309  1.6047  0.1587  1.7124
  138MOL    H3935933   6.387   3.855   0.296 -0.6222  0.8626 -0.0896
  138MOL    H4035934   6.343   3.707   0.354 -1.8536 -1.1070  1.3043
  138MOL    C4135935   6.308   3.743   0.132 -0.1674  1.0484  0.6315
  138MOL    N4235936   6.222   3.633   0.092  0.7185 -0.1329  0.1813
  138MOL    C4335937   6.102   3.649   0.046  0.3389  0.0341  0.3422
  138MOL    O4435938   6.055   3.759   0.028 -1.0248  0.0834 -0.6024
  138MOL    C4535939   6.011   3.524   0.019  0.6587  0.3419 -0.2397
  138MOL    C4635940   6.452   3.698   0.097 -0.2848 -0.2340 -0.1903
  138MOL    H4735941   6.280   3.833   0.078 -1.6020  0.3483  0.1774
  138MOL    H4835942   6.243   3.539   0.122  0.6111 -0.4815 -0.8167
  138MOL    H4935943   6.065   3.436   0.052  2.3904  0.9501 -1.3940
  138MOL    H5035944   5.917   3.547   0.070  1.4881 -0.8351  1.8420
  138MOL    H5135945   5.994   3.523   7.751  0.4395 -0.9914 -0.1922
  138MOL    H5235946   6.531   3.756   0.146 -0.0651 -0.2125 -0.5649
  138MOL    H5335947   6.466   3.596   0.130  0.3694 -0.1302 -0.1404
  138MOL    C5435948   6.479   3.692   7.785  0.1297 -0.4997  0.3808
  138MOL    N5535949   6.602   3.624   7.748  0.1430  0.2205 -0.3818
  138MOL    C5635950   6.623   3.568   7.630  0.0120 -0.0819 -0.3192
  138MOL    O5735951   6.553   3.588   7.528  0.0367 -0.1267  0.1413
  138MOL    C5835952   6.752   3.482   7.606 -0.4633 -0.1873  0.3381
  138MOL    C5935953   6.474   3.834   7.718 -0.0387  0.4806  0.1136
  138MOL    H6035954   6.405   3.628   7.737 -1.2261  1.3372 -0.0028
  138MOL    H6135955   6.669   3.599   7.819  0.4281  0.6543 -0.4959
  138MOL    H6235956   6.771   3.482   7.499 -0.4816 -0.0927  0.3352
  138MOL    H6335957   6.832   3.530   7.662 -0.4761 -0.4889  0.6145
  138MOL    H6435958   6.729   3.387   7.655 -1.6235  0.5900  1.3219
  138MOL    H6535959   6.483   3.894   7.809  1.3088  2.7386 -1.4546
  138MOL    H6635960   6.564   3.869   7.668  0.4539  0.0072  0.6573
  138MOL    C6735961   6.347   3.860   7.632  0.7521  0.3351  0.4428
  138MOL    N6835962   6.332   3.759   7.522  0.0118 -0.4301 -0.0898
  138MOL    C6935963   6.239   3.734   7.428 -0.3454 -0.4101  0.4226
  138MOL    O7035964   6.138   3.804   7.410  0.0803  1.1797 -0.1959
  138MOL    C7135965   6.267   3.613   7.340  0.8834  0.4621 -0.1887
  138MOL    C7235966   6.357   4.000   7.578 -0.6327 -0.2889 -0.0841
  138MOL    H7335967   6.265   3.849   7.702 -0.4169  0.0928 -0.9410
  138MOL    H7435968   6.403   3.688   7.517  2.4585  1.9091  0.7456
  138MOL    H7535969   6.306   3.657   7.249 -0.1397 -0.5005 -1.1134
  138MOL    H7635970   6.326   3.532   7.384 -0.2498 -0.2191  0.0998
  138MOL    H7735971   6.168   3.574   7.315  0.5489  1.3681 -0.2931
  138MOL    H7835972   6.424   4.055   7.644  0.6190 -1.0956 -0.6661
  138MOL    H7935973   6.406   3.988   7.481  0.3822 -0.5341  0.4502
  138MOL    C8035974   6.230   4.083   7.564 -0.1393 -0.1063 -0.6331
  138MOL    N8135975   6.268   4.217   7.527 -0.0352 -0.0794  0.6269
  138MOL    C8235976   6.230   4.288   7.417  0.4799 -0.2060 -0.2006
  138MOL    O8335977   6.134   4.246   7.355  0.2279  0.2273 -0.4606
  138MOL    C8435978   6.306   4.412   7.382  0.6219  0.5656  0.3709
  138MOL    C8535979   6.152   4.094   7.699  0.0362 -0.3109 -0.6682
  138MOL    H8635980   6.162   4.036   7.493  0.7217 -0.5724 -1.1501
  138MOL    H8735981   6.342   4.251   7.586 -0.3687  0.3972  0.7714
  138MOL    H8835982   6.381   4.379   7.311 -1.4647 -1.6682 -0.9148
  138MOL    H8935983   6.240   4.490   7.343 -0.4113  0.2950  1.5229
  138MOL    H9035984   6.346   4.467   7.466  0.2561  0.1112  0.8505
  138MOL    H9135985   6.205   4.041   7.779  0.7881  0.5634 -0.5749
  138MOL    H9235986   6.155   4.197   7.735 -1.1289  0.4687 -2.7698
  138MOL    C9335987   5.999   4.068   7.690  0.7349 -0.0221  0.1791
  138MOL    N9435988   5.967   3.943   7.622 -0.2679 -0.2191 -0.4018
  138MOL    C9535989   5.854   3.875   7.641  0.1590  1.2825 -0.9929
  138MOL    O9635990   5.758   3.914   7.706  0.1755 -0.7829  0.4626
  138MOL    C9735991   5.840   3.742   7.573  0.3836 -0.7276  0.0140
  138MOL    C9835992   5.926   4.185   7.618 -0.1218 -0.3478 -0.7994
  138MOL    H9935993   5.966   4.055   7.793 -1.3025 -0.6630 -0.5422
  138MOL   H10035994   6.038   3.891   7.573 -1.1922 -1.0182 -0.9162
  138MOL   H10135995   5.767   3.675   7.619 -1.9935  0.7698 -1.4663
  138MOL   H10235996   5.830   3.767   7.467  1.8095  0.0616  0.0620
  138MOL   H10335997   5.927   3.676   7.574  0.6972 -0.3218 -0.2734
  138MOL   H10435998   5.993   4.247   7.559 -1.0016 -1.0137 -2.5403
  138MOL   H10535999   5.848   4.148   7.552 -0.3433  0.7193 -1.1378
  138MOL   C10636000   5.869   4.277   7.722 -0.4031  0.0480  0.5467
  138MOL   N10736001   5.749   4.213   7.771 -0.9027 -0.2810  0.1506
  138MOL   C10836002   5.702   4.218   0.058  0.2047  0.1073 -0.1414
  138MOL   O10936003   5.755   4.286   0.144  0.2652  0.0679 -0.3799
  138MOL   C11036004   5.571   4.134   0.086  0.1365 -0.3985 -0.0334
  138MOL   C11136005   5.828   4.413   7.651 -0.1603 -0.3528  0.8759
  138MOL   H11236006   5.947   4.288   7.798  0.7512  2.5152 -0.9205
  138MOL   H11336007   5.691   4.161   7.706  0.9992 -2.3198  0.0205
  138MOL   H11436008   5.565   4.039   0.032 -0.1426  0.4465 -1.5107
  138MOL   H11536009   5.562   4.105   0.191 -1.8250  0.5224  0.0691
  138MOL   H11636010   5.484   4.196   0.066  0.9482  1.4796  2.1158
  138MOL   H11736011   5.804   4.390   7.547  2.6151  1.8301 -0.3258
  138MOL   H11836012   5.745   4.467   7.697 -1.2222 -1.5443  0.3857
  138MOL   C11936013   5.936   4.514   7.651 -0.8667 -0.5232  0.4845
  138MOL   N12036014   5.976   4.537   7.791 -0.0849  0.4576  0.5933
  138MOL   C12136015   6.096   4.543   0.000 -0.3249 -0.0849  0.0817
  138MOL   O12236016   6.199   4.536   7.770 -0.1269 -0.4415 -0.4801
  138MOL   C12336017   6.107   4.562   0.151  0.5111 -0.0778 -0.3841
  138MOL   C12436018   5.885   4.643   7.588 -0.2847 -0.7996 -0.0731
  138MOL   H12536019   6.021   4.472   7.595  0.6251  0.9757  1.5679
  138MOL   H12636020   5.898   4.537   0.016 -0.2735  0.8589  0.3724
  138MOL   H12736021   6.070   4.465   0.187  0.1707 -0.1146 -0.8339
  138MOL   H12836022   6.213   4.561   0.176  1.0396 -0.8556 -2.6081
  138MOL   H12936023   6.036   4.640   0.179  0.9415  0.4279 -0.7092
  138MOL   H13036024   5.831   4.621   7.496  0.1390 -2.9675  0.1775
  138MOL   H13136025   5.809   4.697   7.644  0.6447 -0.7218  1.1201
  138MOL   C13236026   5.995   4.754   7.557 -0.5643 -0.4295  0.0145
  138MOL   N13336027   5.918   4.875   7.506 -0.7677  0.5384 -0.0728
  138MOL   C13436028   5.914   4.994   7.568  0.3682  0.0017 -1.3042
  138MOL   O13536029   5.954   5.022   7.682 -0.0986  0.3302  0.0558
  138MOL   C13636030   5.836   5.108   7.494  1.0035  0.6861  0.2509
  138MOL   C13736031   6.102   4.706   7.448  0.4481 -0.2135 -0.3093
  138MOL   H13836032   6.041   4.783   7.652 -0.1739 -1.4220  0.1419
  138MOL   H13936033   5.897   4.874   7.407  0.4261  0.4855 -0.3303
  138MOL   H14036034   5.728   5.097   7.486  1.0932  0.0462 -0.1699
  138MOL   H14136035   5.849   5.203   7.545 -0.7117  0.4849  1.0948
  138MOL   H14236036   5.854   5.098   7.386 -2.1469  3.4892 -0.5939
  138MOL   H14336037   6.164   4.629   7.494  0.5652 -1.6672 -2.8469
  138MOL   H14436038   6.051   4.639   7.379  0.0769 -1.9967  1.6561
  138MOL   C14536039   6.212   4.795   7.386 -0.2486  0.0442 -0.5934
  138MOL   N14636040   6.261   4.727   7.263  0.6405 -0.0965 -0.0816
  138MOL   C14736041   6.293   4.790   7.148 -0.2114  0.0082  0.0287
  138MOL   O14836042   6.277   4.912   7.129 -0.0828 -0.2736  0.2555
  138MOL   C14936043   6.349   4.695   7.042  0.4998  0.6295  0.1752
  138MOL   C15036044   6.335   4.810   7.476  0.1660  0.0071 -0.8099
  138MOL   H15136045   6.165   4.890   7.361 -1.7853 -0.3187  0.8391
  138MOL   H15236046   6.285   4.629   7.270  1.5183  0.2314  1.7598
  138MOL   H15336047   6.277   4.668   6.965  1.0228  2.9991 -1.2062
  138MOL   H15436048   6.419   4.763   6.992 -1.4282  2.3231 -0.2973
  138MOL   H15536049   6.415   4.612   7.067 -1.1372  0.1001  2.9295
  138MOL   H15636050   6.374   4.710   7.490 -0.0433 -0.1991 -1.6412
  138MOL   H15736051   6.404   4.864   7.411 -2.4230  1.5126 -2.4305
  138MOL   C15836052   6.319   4.898   7.604  0.5600 -0.5182 -0.0281
  138MOL   N15936053   6.238   5.020   7.577 -0.1832  0.1588  0.7413
  138MOL   C16036054   6.264   5.136   7.517  0.5394  0.0040 -0.0506
  138MOL   O16136055   6.369   5.164   7.459  0.2110  0.4485 -0.0605
  138MOL   C16236056   6.150   5.238   7.516 -0.1750 -0.2927 -0.2868
  138MOL   C16336057   6.452   4.934   7.673 -0.5681 -0.2350  0.5637
  138MOL   H16436058   6.261   4.850   7.682  0.9517  1.0031  1.2147
  138MOL   H16536059   6.144   5.004   7.611 -0.9978  0.1480 -1.4471
  138MOL   H16636060   6.196   5.336   7.502  2.3980 -0.9964  2.6979
  138MOL   H16736061   6.091   5.217   7.427 -1.5166  0.5740  0.3807
  138MOL   H16836062   6.090   5.234   7.607  1.1358 -0.3284  0.5849
  138MOL   H16936063   6.503   4.957   7.579 -0.2181 -0.5267  0.6803
  138MOL   H17036064   6.463   5.026   7.731 -0.8202  0.1901 -0.0563
  138MOL   C17136065   6.534   4.820   7.744 -0.0289  0.4695 -0.3371
  138MOL   N17236066   6.492   4.817   0.043 -0.0547  0.1874  0.2165
  138MOL   C17336067   6.523   4.720   0.131 -0.4171 -0.2697  0.1573
  138MOL   O17436068   6.608   4.641   0.103  0.1705  0.3157 -0.7734
  138MOL   C17536069   6.457   4.711   0.269  0.8886  0.1320  0.1891
  138MOL   C17636070   6.685   4.841   7.729 -0.0367  0.2632 -0.5897
  138MOL   H17736071   6.509   4.724   7.700 -0.4438  1.9343 -3.4089
  138MOL   H17836072   6.423   4.881   0.077 -1.9252 -1.6021 -0.1023
  138MOL   H17936073   6.396   4.623   0.289  2.1487 -0.2759  2.4707
  138MOL   H18036074   6.534   4.730   0.344 -2.1311 -0.0828  3.5015
  138MOL   H18136075   6.390   4.797   0.279  1.2004  0.4853 -0.7220
  138MOL   H18236076   6.708   4.946   7.747 -1.9080  0.4350  1.0206
  138MOL   H18336077   6.743   4.791   7.806  0.4564  1.5929 -0.0913
  138MOL   C18436078   6.739   4.795   7.595  0.3142 -0.5959  0.2386
  138MOL   N18536079   6.721   4.651   7.593  0.2187 -0.0930 -0.4427
  138MOL   C18636080   6.682   4.584   7.485  0.1097  0.4064  0.4271
  138MOL   O18736081   6.635   4.629   7.379 -1.0472 -0.4589 -0.5147
  138MOL   C18836082   6.695   4.431   7.499 -0.0069 -0.4895  0.5360
  138MOL   C18936083   6.890   4.839   7.573 -0.3132 -0.0203  0.0962
  138MOL   H19036084   6.680   4.838   7.515 -0.2824  0.5032  1.2460
  138MOL   H19136085   6.752   4.594   7.670  1.0634  0.8631 -0.0557
  138MOL   H19236086   6.781   4.404   7.438 -0.2641  0.1883 -0.1484
  138MOL   H19336087   6.729   4.402   7.598 -1.4735 -1.0261  0.9000
  138MOL   H19436088   6.604   4.378   7.470 -0.3992  0.7728 -0.5999
  138MOL   H19536089   6.905   4.808   7.470 -2.4108 -0.6263 -0.0498
  138MOL   H19636090   6.881   4.948   7.565 -1.4895 -0.2668 -2.2662
  138MOL   C19736091   7.006   4.790   7.657 -0.3194 -0.1774 -0.3293
  138MOL   N19836092   6.999   4.842   7.796  0.5245 -0.4721 -0.4725
  138MOL   C19936093   6.994   4.763   0.062 -0.0468  0.1290 -0.0485
  138MOL   O20036094   6.987   4.640   0.062 -0.5583  0.1968 -0.0502
  138MOL   C20136095   6.993   4.832   0.203  0.2281  0.1407  0.1697
  138MOL   C20236096   7.133   4.830   7.586  0.7442 -0.2290  0.0423
  138MOL   H20336097   6.997   4.682   7.665 -3.2457  0.0941  0.6155
  138MOL   H20436098   7.015   4.939   7.819 -0.9750 -0.5407  1.0435
  138MOL   H20536099   7.081   4.801   0.259  0.2550  0.7295  0.4658
  138MOL   H20636100   6.983   4.941   0.203  2.7542  0.3941  0.1408
  138MOL   H20736101   6.901   4.803   0.255  0.2863  1.4702  1.0538
  138MOL   H20836102   7.140   4.769   7.497  0.4177 -0.1329 -0.0487
  138MOL   H20936103   7.126   4.932   7.548  0.0595 -0.3267 -0.0922
  138MOL   C21036104   7.261   4.803   7.673  0.3386 -0.6683 -0.3314
  138MOL   N21136105   7.371   4.892   7.629  0.4624  0.0369 -0.1075
  138MOL   C21236106   7.386   5.016   7.681  0.2937 -0.4670 -0.1590
  138MOL   O21336107   7.308   5.070   7.765  0.4133 -0.5476  0.1060
  138MOL   C21436108   7.498   5.105   7.633  0.5987 -0.2461  0.5276
  138MOL   C21536109   7.301   4.653   7.646 -0.1659  0.3377 -0.9277
  138MOL   H21636110   7.249   4.820   7.780 -0.9912 -0.0469 -0.5662
  138MOL   H21736111   7.425   4.866   7.547  1.8610  3.8062 -0.4902
  138MOL   H21836112   7.588   5.047   7.653 -0.9371 -2.9701 -0.2493
  138MOL   H21936113   7.487   5.126   7.527  0.2354 -1.2044  0.3783
  138MOL   H22036114   7.500   5.197   7.693 -1.0606 -0.5513  1.0645
  138MOL   H22136115   7.226   4.583   7.682  1.3781 -0.5215  0.6710
  138MOL   H22236116   7.307   4.635   7.538 -1.0386  0.0738 -0.9385
  138MOL   C22336117   7.426   4.607   7.712  0.1344 -0.2098 -0.4071
  138MOL   N22436118   7.542   4.643   7.632  0.2773 -0.4245 -0.1512
  138MOL   C22536119   7.651   4.714   7.677  0.5586  0.1590  0.2894
  138MOL   O22636120   7.657   4.753   7.792 -0.3251  0.4003 -0.3536
  138MOL   C22736121   7.770   4.753   7.589  0.4655  0.1460 -0.6014
  138MOL   C22836122   7.419   4.457   7.748  0.6206 -0.1712 -0.0157
  138MOL   H22936123   7.431   4.672   7.799  0.5710 -0.4445 -0.2533
  138MOL   H23036124   7.550   4.608   7.538  0.4462 -0.8433  0.0174
  138MOL   H23136125   7.822   4.667   7.546 -1.8958 -0.1810 -2.9858
  138MOL   H23236126   7.735   4.817   7.507 -0.4709 -1.1155 -1.1969
  138MOL   H23336127   7.838   4.810   7.653 -1.6083  0.9959  0.8940
  138MOL   H23436128   7.356   4.405   7.675  2.1499 -0.1217 -1.3951
  138MOL   H23536129   7.518   4.421   7.721  1.1623  1.2598  0.0349
  138MOL   C23636130   7.391   4.433   0.065 -0.5487 -0.1343  0.0677
  138MOL   N23736131   7.444   4.302   0.115 -0.0655 -0.2577  0.1489
  138MOL   C23836132   7.571   4.293   0.154 -0.6345 -0.0176 -0.3846
  138MOL   O23936133   7.655   4.381   0.144  0.3742 -0.3068  0.0018
  138MOL   C24036134   7.603   4.151   0.209 -0.4313 -0.7751 -0.1201
  138MOL   C24136135   7.249   4.444   0.092 -0.2163  0.6937 -1.1583
  138MOL   H24236136   7.431   4.514   0.125 -0.7550  0.2568 -0.3183
  138MOL   H24336137   7.376   4.230   0.132 -0.1417  0.3583  2.6013
  138MOL   H24436138   7.688   4.136   0.275 -0.7435 -0.1573  0.4338
  138MOL   H24536139   7.527   4.101   0.270  1.0251 -0.3702  2.0737
  138MOL   H24636140   7.626   4.097   0.118 -1.5038 -0.4364 -0.6023
  138MOL   H24736141   7.221   4.544   0.057 -1.6059  0.9708  0.6739
  138MOL   H24836142   7.192   4.377   0.027 -0.7011 -0.6234  0.5919
  138MOL   C24936143   7.207   4.409   0.239 -0.5318  0.9851 -0.1580
  138MOL   N25036144   7.069   4.447   0.255  0.8131 -0.1993  0.1083
  138MOL   C25136145   6.973   4.358   0.262  0.0308 -0.6126 -1.6128
  138MOL   O25236146   6.985   4.240   0.293 -0.6776 -0.0425  0.0530
  138MOL   C25336147   6.834   4.407   0.228 -0.1396 -0.1317  0.5736
  138MOL   C25436148   7.287   4.490   0.338 -0.1887  0.3990 -0.6796
  138MOL   H25536149   7.222   4.303   0.262 -2.3500  0.4306 -1.4852
  138MOL   H25636150   7.036   4.537   0.222 -2.0370 -1.4739 -0.7051
  138MOL   H25736151   6.812   4.371   0.128 -1.8446  1.4889  0.3253
  138MOL   H25836152   6.762   4.367   0.300 -0.2629 -0.4843  0.2533
  138MOL   H25936153   6.843   4.516   0.225  1.3654 -0.2857 -0.8058
  138MOL   H26036154   7.247   4.500   0.438  0.6484  3.5501 -0.6102
  138MOL   H26136155   7.388   4.448   0.345 -1.5495 -2.6318  2.3343
  138MOL   H26236156   7.292   4.594   0.306 -0.6104  0.8009  0.5759
  139MOL     C136157   6.388   1.903   5.374  0.5416 -0.3148  0.1533
  139MOL     N236158   6.462   1.787   5.409  0.5447 -0.1425 -0.0369
  139MOL     C336159   6.555   1.773   5.501 -0.0658 -0.2105 -0.1456
  139MOL     O436160   6.582   1.862   5.574 -0.0608 -0.1574  0.5067
  139MOL     C536161   6.634   1.642   5.508  0.5476  1.0896 -0.2811
  139MOL     C636162   6.284   1.859   5.275  0.1765 -0.1155  0.5248
  139MOL     H736163   6.336   1.946   5.460 -1.3429 -2.1989  0.0009
  139MOL     H836164   6.450   1.707   5.348  3.0106 -1.4392  1.1158
  139MOL     H936165   6.743   1.643   5.497  0.6509  2.4474  0.8347
  139MOL    H1036166   6.601   1.582   5.593 -0.9752  0.0024 -1.6054
  139MOL    H1136167   6.601   1.581   5.424  0.3009 -0.8086  1.1689
  139MOL    H1236168   6.341   1.841   5.184 -0.7470 -1.8760  0.2769
  139MOL    H1336169   6.237   1.765   5.306 -1.5953  1.1451  1.7089
  139MOL    H1436170   6.448   1.982   5.328 -0.1261  1.0277  1.5130
  139MOL    C1536171   6.181   1.966   5.237 -0.4638 -0.4593 -0.0245
  139MOL    N1636172   6.063   1.944   5.321 -0.3166 -0.3601  0.4773
  139MOL    C1736173   6.027   2.015   5.428 -0.2569  0.4487  0.1166
  139MOL    O1836174   6.094   2.117   5.467  0.4204  0.3667 -0.1230
  139MOL    C1936175   5.906   1.975   5.508 -0.4634 -0.0226  0.4046
  139MOL    C2036176   6.143   1.964   5.084  0.1009  0.1642  1.1700
  139MOL    H2136177   6.222   2.061   5.270 -2.7658  0.7052 -0.4687
  139MOL    H2236178   5.999   1.870   5.294 -0.9371  0.9309 -1.6619
  139MOL    H2336179   5.885   2.043   5.591 -2.8943  0.5451 -0.6518
  139MOL    H2436180   5.829   1.956   5.434  0.2242 -0.3321 -0.2456
  139MOL    H2536181   5.935   1.873   5.536 -2.1558 -0.9075 -0.9653
  139MOL    H2636182   6.227   1.997   5.023 -0.2972  0.3902  0.7440
  139MOL    H2736183   6.127   1.861   5.051  0.8576  0.6322 -0.7021
  139MOL    C2836184   6.027   2.045   5.029  0.4130  1.0808  0.5531
  139MOL    N2936185   6.016   2.022   4.887 -0.1920 -0.3823  0.2443
  139MOL    C3036186   5.931   1.936   4.829 -0.4568 -0.0292 -0.4466
  139MOL    O3136187   5.861   1.858   4.890  0.0889  0.5955 -0.5651
  139MOL    C3236188   5.938   1.930   4.683  0.1818  0.0554  0.3596
  139MOL    C3336189   6.049   2.197   5.063 -0.1147  0.1757 -0.5643
  139MOL    H3436190   5.931   2.015   5.072  0.8431 -1.0975  0.0837
  139MOL    H3536191   6.053   2.088   4.820  1.2119 -0.8459  0.5269
  139MOL    H3636192   5.947   2.029   4.638 -0.3380 -1.2523 -2.8314
  139MOL    H3736193   6.024   1.871   4.651  1.5571  2.3515 -0.3279
  139MOL    H3836194   5.850   1.881   4.641 -0.6978  1.4051  0.5922
  139MOL    H3936195   5.988   2.223   5.149 -0.4884 -1.7765 -0.2149
  139MOL    H4036196   6.145   2.212   5.113 -0.4323  0.4166 -0.0285
  139MOL    C4136197   6.050   2.296   4.948 -0.4243 -0.3650 -0.5181
  139MOL    N4236198   6.157   2.281   4.847 -0.6079  0.0608 -0.2102
  139MOL    C4336199   6.141   2.297   4.717  0.3219  0.3445 -0.0023
  139MOL    O4436200   6.032   2.328   4.672 -0.1208  0.2804  0.8441
  139MOL    C4536201   6.255   2.293   4.619  0.0862  0.0139  0.5499
  139MOL    C4636202   6.039   2.443   5.000 -0.3116  0.1909 -0.1740
  139MOL    H4736203   5.948   2.290   4.910 -0.2639 -0.0495 -1.0098
  139MOL    H4836204   6.252   2.273   4.878  0.1948  1.7170 -2.0949
  139MOL    H4936205   6.279   2.189   4.596  1.4094 -0.5366  4.0161
  139MOL    H5036206   6.242   2.364   4.538  2.3212  1.6418  1.5613
  139MOL    H5136207   6.334   2.334   4.682  1.3313 -0.9857 -0.3370
  139MOL    H5236208   5.960   2.458   5.073  2.3025 -1.6920  3.1502
  139MOL    H5336209   6.134   2.456   5.053 -0.8163 -0.5177  0.9071
  139MOL    C5436210   6.008   2.555   4.898  0.4177  0.8970  0.1823
  139MOL    N5536211   6.063   2.679   4.942 -0.3872  0.0361 -0.6871
  139MOL    C5636212   6.026   2.751   5.046  0.2896  0.1661 -1.1798
  139MOL    O5736213   5.940   2.713   5.125 -0.2581  0.1267 -0.2082
  139MOL    C5836214   6.085   2.889   5.046 -0.1601  0.2893 -0.4813
  139MOL    C5936215   5.858   2.555   4.859 -0.7394 -0.1054  0.3448
  139MOL    H6036216   6.081   2.538   4.818 -0.4106 -0.6174 -0.2732
  139MOL    H6136217   6.119   2.721   4.869  0.7816  0.6419  0.5403
  139MOL    H6236218   6.189   2.888   5.080 -0.2816  0.7350 -0.0915
  139MOL    H6336219   6.089   2.934   4.947 -0.8207  1.8996  0.2049
  139MOL    H6436220   6.024   2.949   5.113  0.2484  1.0363 -0.7725
  139MOL    H6536221   5.832   2.458   4.816  1.3070 -0.6323  0.2101
  139MOL    H6636222   5.797   2.565   4.948 -1.8035  0.9971 -0.5011
  139MOL    C6736223   5.808   2.655   4.743  0.0834  0.1788 -0.7490
  139MOL    N6836224   5.659   2.643   4.730 -0.1650  0.0440  0.2343
  139MOL    C6936225   5.594   2.749   4.675  0.9281  0.5994 -0.1843
  139MOL    O7036226   5.644   2.844   4.615  1.1486  0.0981 -0.4076
  139MOL    C7136227   5.441   2.754   4.694  0.1352  0.5593  0.6691
  139MOL    C7236228   5.869   2.631   4.602  0.4444 -0.2023  1.0928
  139MOL    H7336229   5.845   2.756   4.758 -0.8926  0.4579 -0.1521
  139MOL    H7436230   5.609   2.571   4.781  0.3634 -0.3904  0.1471
  139MOL    H7536231   5.405   2.718   4.790  0.4013 -1.7160 -0.0457
  139MOL    H7636232   5.417   2.859   4.676 -1.7398  0.3876  2.0232
  139MOL    H7736233   5.392   2.694   4.616  1.5499  0.6640 -0.3221
  139MOL    H7836234   5.867   2.526   4.575 -1.3473  0.8070 -3.0411
  139MOL    H7936235   5.810   2.685   4.528  0.0532  3.4455  3.8766
  139MOL    C8036236   6.012   2.685   4.570  0.0830 -0.2783  0.2215
  139MOL    N8136237   6.017   2.831   4.562  0.0673  0.3205 -0.1436
  139MOL    C8236238   6.097   2.913   4.634  0.0379 -0.0882  0.0871
  139MOL    O8336239   6.192   2.883   4.706 -0.3035 -0.0193 -0.1006
  139MOL    C8436240   6.058   3.066   4.619  0.5032  0.1741  0.0674
  139MOL    C8536241   6.077   2.605   4.451 -0.2567  0.0892  0.2066
  139MOL    H8636242   6.067   2.656   4.659 -0.3126  0.7467  0.7982
  139MOL    H8736243   5.943   2.877   4.510 -0.2901  2.9377  2.5116
  139MOL    H8836244   6.150   3.119   4.646 -0.1253  1.0011  0.6406
  139MOL    H8936245   6.030   3.082   4.515  1.4029  0.7550 -0.0955
  139MOL    H9036246   5.969   3.080   4.681 -1.0014  0.0842 -2.0199
  139MOL    H9136247   6.185   2.621   4.451 -0.4548  1.9576 -2.7698
  139MOL    H9236248   6.067   2.498   4.470  0.8051 -0.1556 -0.5733
  139MOL    C9336249   6.023   2.639   4.312 -0.5691 -0.3216 -0.4917
  139MOL    N9436250   5.994   2.521   4.230 -0.6736  0.1127  0.4206
  139MOL    C9536251   5.878   2.491   4.169  0.0333  0.0394 -0.1945
  139MOL    O9636252   5.773   2.553   4.194 -0.3678  0.0310  0.2590
  139MOL    C9736253   5.872   2.374   4.071  0.7220  0.1938 -0.2700
  139MOL    C9836254   6.114   2.736   4.240 -0.0637  0.4578  0.3307
  139MOL    H9936255   5.929   2.688   4.337 -0.2327 -0.1791  0.5430
  139MOL   H10036256   6.077   2.478   4.192 -1.5364  0.1954 -1.6000
  139MOL   H10136257   5.839   2.413   3.975  0.1359 -1.3986 -0.7202
  139MOL   H10236258   5.965   2.325   4.044 -0.2700 -0.9716 -1.6630
  139MOL   H10336259   5.802   2.299   4.108 -0.7597  1.8269  0.3521
  139MOL   H10436260   6.137   2.818   4.309 -0.4535  1.0282 -0.2100
  139MOL   H10536261   6.208   2.682   4.234 -0.9918 -1.0084 -1.5569
  139MOL   C10636262   6.070   2.781   4.095 -0.0049  0.1008 -0.4626
  139MOL   N10736263   6.105   2.675   3.996  0.2701  0.3573 -0.2818
  139MOL   C10836264   6.034   2.664   3.880 -0.9596  0.6038  0.9231
  139MOL   O10936265   5.947   2.741   3.847  0.4932 -0.4865 -0.4491
  139MOL   C11036266   6.061   2.535   3.800 -0.3803 -0.2003  0.6199
  139MOL   C11136267   6.134   2.919   4.056  0.9123 -0.9166  1.0669
  139MOL   H11236268   5.963   2.794   4.105  0.1924  3.1531 -1.5598
  139MOL   H11336269   6.175   2.608   4.024  0.0560 -0.8766 -2.6036
  139MOL   H11436270   5.999   2.453   3.837  0.4261 -0.6413  0.9877
  139MOL   H11536271   6.023   2.545   3.698 -0.5244  1.0797  0.7796
  139MOL   H11636272   6.168   2.518   3.789 -0.1793  0.6699  1.1722
  139MOL   H11736273   6.243   2.921   4.061  1.0373 -1.8285 -0.9240
  139MOL   H11836274   6.115   2.925   3.949 -2.0760  0.4879  1.6254
  139MOL   C11936275   6.084   3.043   4.132 -0.6204  0.4081 -0.2263
  139MOL   N12036276   5.933   3.050   4.128 -0.3833  0.1057 -0.0150
  139MOL   C12136277   5.852   3.025   4.231 -0.3597  0.1747  0.6180
  139MOL   O12236278   5.896   2.984   4.345  0.3763  0.2430 -0.3606
  139MOL   C12336279   5.707   3.033   4.210  0.3575  1.0446  0.2315
  139MOL   C12436280   6.148   3.175   4.074  0.5491 -0.3347 -0.4128
  139MOL   H12536281   6.102   3.034   4.239  0.4672  0.3181 -0.4117
  139MOL   H12636282   5.888   3.083   4.043  0.4123  0.3911 -0.3339
  139MOL   H12736283   5.647   2.942   4.210  1.2596  0.4491  1.2726
  139MOL   H12836284   5.670   3.097   4.290 -0.3823  2.1896 -1.0017
  139MOL   H12936285   5.692   3.073   4.110  1.8970  2.3612  0.5161
  139MOL   H13036286   6.137   3.155   3.967  0.4138  1.6185 -0.7689
  139MOL   H13136287   6.089   3.264   4.097  1.8130  0.1634  0.9226
  139MOL   C13236288   6.300   3.199   4.092  0.1152 -0.9811  0.1854
  139MOL   N13336289   6.312   3.259   4.228  0.0414  0.0196  0.0991
  139MOL   C13436290   6.358   3.202   4.340  0.5195  0.6432  0.3023
  139MOL   O13536291   6.392   3.083   4.352  0.0204 -0.2840  0.4020
  139MOL   C13636292   6.362   3.292   4.461 -0.2988 -0.7629  0.5243
  139MOL   C13736293   6.353   3.281   3.973  0.2045 -0.0789 -0.0142
  139MOL   H13836294   6.347   3.101   4.100  1.7259 -0.1854  0.6729
  139MOL   H13936295   6.286   3.356   4.232 -0.5826 -0.1382 -0.1192
  139MOL   H14036296   6.314   3.251   4.550 -2.1470  1.8896  0.8062
  139MOL   H14136297   6.466   3.315   4.482 -0.0605 -1.0451 -0.3093
  139MOL   H14236298   6.305   3.384   4.447  2.1433  0.9246  1.4963
  139MOL   H14336299   6.321   3.243   3.876  0.1665  1.5453 -0.6553
  139MOL   H14436300   6.302   3.377   3.988  1.4374  0.5179  0.4523
  139MOL   C14536301   6.501   3.301   3.977 -0.6157 -0.1768 -0.4734
  139MOL   N14636302   6.544   3.393   3.868 -0.6332  0.2819 -0.3168
  139MOL   C14736303   6.569   3.527   3.882  0.2849 -0.3750 -0.5847
  139MOL   O14836304   6.554   3.592   3.986 -0.4334  0.1662 -0.4598
  139MOL   C14936305   6.631   3.599   3.764 -0.7942  0.1149 -0.8929
  139MOL   C15036306   6.575   3.168   3.969 -0.7811  0.9705 -0.8237
  139MOL   H15136307   6.519   3.352   4.072  0.8221  1.2650 -1.5012
  139MOL   H15236308   6.583   3.343   3.789  0.4153 -1.1924  1.0976
  139MOL   H15336309   6.609   3.706   3.759 -0.4120  0.2197 -0.3689
  139MOL   H15436310   6.739   3.594   3.754 -0.9487 -1.5544 -1.8901
  139MOL   H15536311   6.592   3.559   3.670  0.3117  1.7422 -2.0536
  139MOL   H15636312   6.533   3.101   4.044 -0.1731  0.6003 -0.8104
  139MOL   H15736313   6.554   3.116   3.877 -1.7702 -0.5003  0.2170
  139MOL   C15836314   6.723   3.174   4.017 -0.1406 -0.8901 -0.7006
  139MOL   N15936315   6.805   3.242   3.919  0.8748 -0.5093  0.2648
  139MOL   C16036316   6.903   3.336   3.947 -0.5903  0.9895 -0.0923
  139MOL   O16136317   6.927   3.374   4.063  0.4496  0.3603  0.5672
  139MOL   C16236318   6.989   3.395   3.834 -0.0516  0.0209  0.9124
  139MOL   C16336319   6.778   3.033   4.048 -0.0646 -0.3125  0.0214
  139MOL   H16436320   6.736   3.222   4.114 -0.7164  0.5918 -1.3332
  139MOL   H16536321   6.778   3.221   3.824 -2.6185  1.7492  0.6861
  139MOL   H16636322   7.047   3.481   3.868  0.1639  0.4742 -0.6076
  139MOL   H16736323   7.061   3.327   3.788  0.7580  1.4336  0.0760
  139MOL   H16836324   6.916   3.432   3.762  0.4724  0.5353  0.6417
  139MOL   H16936325   6.769   2.972   3.958  1.7377 -0.9333  0.2368
  139MOL   H17036326   6.885   3.040   4.070  0.0847  0.4365 -0.9037
  139MOL   C17136327   6.700   2.951   4.159  0.2195  0.8559  0.0247
  139MOL   N17236328   6.671   3.028   4.279  0.5339 -0.1528 -0.1240
  139MOL   C17336329   6.762   3.096   4.355  0.2920  0.1475  0.4869
  139MOL   O17436330   6.882   3.103   4.327 -0.3656 -0.0849 -0.6080
  139MOL   C17536331   6.702   3.149   4.484  0.3074 -0.5250 -0.0589
  139MOL   C17636332   6.794   2.824   4.186  0.2987  0.2292 -0.1257
  139MOL   H17736333   6.608   2.909   4.119  1.5426 -1.6827 -0.4357
  139MOL   H17836334   6.582   3.019   4.326  0.0314  1.9050 -0.6093
  139MOL   H17936335   6.620   3.085   4.518 -1.2141  1.6566  0.4792
  139MOL   H18036336   6.778   3.158   4.561 -0.3498  1.4221  0.3919
  139MOL   H18136337   6.668   3.247   4.451  0.8260  0.7493  3.0348
  139MOL   H18236338   6.836   2.801   4.088  0.8160  0.0994  0.1281
  139MOL   H18336339   6.881   2.841   4.248  1.1983 -1.0694 -1.0048
  139MOL   C18436340   6.720   2.700   4.233  0.4806  0.5791  0.2254
  139MOL   N18536341   6.640   2.733   4.350 -0.1636 -0.0595  0.1121
  139MOL   C18636342   6.504   2.711   4.358 -0.7570 -0.2103  0.1642
  139MOL   O18736343   6.438   2.672   4.263  0.2816 -0.0571 -0.0809
  139MOL   C18836344   6.452   2.759   4.493 -0.1088  0.1127  0.6670
  139MOL   C18936345   6.811   2.577   4.254  0.6897 -0.7507 -0.5304
  139MOL   H19036346   6.661   2.681   4.143 -0.1359 -0.0411  0.7509
  139MOL   H19136347   6.688   2.772   4.430 -0.8923  2.8954 -0.8122
  139MOL   H19236348   6.384   2.684   4.533  2.3395 -1.6119  1.7012
  139MOL   H19336349   6.531   2.783   4.565  0.2014 -0.7016  0.5972
  139MOL   H19436350   6.397   2.853   4.484  0.9342  0.6969  0.3269
  139MOL   H19536351   6.858   2.598   4.350 -2.3798 -0.4438  0.9861
  139MOL   H19636352   6.747   2.490   4.272  1.9140 -1.8146 -1.2438
  139MOL   C19736353   6.918   2.535   4.145  0.1033 -0.9353 -0.4454
  139MOL   N19836354   6.853   2.499   4.019 -0.6970  0.3348 -0.0573
  139MOL   C19936355   6.858   2.568   3.902 -0.3400 -0.3877  0.2750
  139MOL   O20036356   6.920   2.674   3.884  0.0250 -0.0812  0.1256
  139MOL   C20136357   6.813   2.492   3.785  0.0627 -0.5482  0.1512
  139MOL   C20236358   7.005   2.417   4.188  0.0049  0.2177 -0.2042
  139MOL   H20336359   6.984   2.622   4.136 -0.2515 -0.4037  1.7459
  139MOL   H20436360   6.809   2.408   4.016  1.0416 -0.4815 -0.9281
  139MOL   H20536361   6.763   2.553   3.710 -0.5114 -0.0415  0.9468
  139MOL   H20636362   6.903   2.451   3.739 -0.5744 -1.6955 -0.0840
  139MOL   H20736363   6.748   2.407   3.807  0.1708 -0.6572  0.0465
  139MOL   H20836364   6.948   2.330   4.220 -0.9839  1.4381  1.4793
  139MOL   H20936365   7.063   2.381   4.103  0.2302 -0.8725  0.4046
  139MOL   C21036366   7.113   2.442   4.293 -0.0118  0.0333  0.1960
  139MOL   N21136367   7.195   2.551   4.241  0.2839  0.6056  0.1615
  139MOL   C21236368   7.256   2.644   4.307  0.0233  0.2006 -0.5684
  139MOL   O21336369   7.274   2.642   4.430  0.3504  0.4049  0.6268
  139MOL   C21436370   7.318   2.756   4.226  0.3130  0.1375  0.0451
  139MOL   C21536371   7.207   2.324   4.316 -0.0168  0.0356  0.2532
  139MOL   H21636372   7.063   2.485   4.380 -1.7549 -2.8166  0.6933
  139MOL   H21736373   7.204   2.551   4.140  0.0968 -1.9239  0.0936
  139MOL   H21836374   7.362   2.716   4.135  0.3727  0.1194  0.0826
  139MOL   H21936375   7.246   2.834   4.202 -0.2549 -0.0600  1.0381
  139MOL   H22036376   7.401   2.794   4.286 -1.4466  2.0519  1.3561
  139MOL   H22136377   7.255   2.288   4.225  0.5317 -1.6807  1.2049
  139MOL   H22236378   7.288   2.371   4.370 -0.3300 -0.3876  1.1005
  139MOL   C22336379   7.153   2.212   4.405  0.2666 -0.5650  0.5924
  139MOL   N22436380   7.265   2.139   4.460  0.0029 -0.6321  0.2908
  139MOL   C22536381   7.356   2.183   4.542 -1.0823  0.0993 -0.1643
  139MOL   O22636382   7.348   2.272   4.624  0.4200 -0.2456  0.2402
  139MOL   C22736383   7.479   2.100   4.549 -0.0667 -0.4561 -0.6242
  139MOL   C22836384   7.058   2.108   4.333  0.2192  0.0032  0.3816
  139MOL   H22936385   7.095   2.255   4.487  1.2935  1.6897  0.1826
  139MOL   H23036386   7.282   2.053   4.411 -1.0993  0.3659 -1.8995
  139MOL   H23136387   7.525   2.116   4.647  0.2387 -0.4780 -0.7622
  139MOL   H23236388   7.445   1.997   4.536 -1.7595  0.2770 -2.1064
  139MOL   H23336389   7.544   2.136   4.470  0.8976  1.7455  1.1002
  139MOL   H23436390   6.962   2.149   4.301 -0.1566 -1.8723 -0.9745
  139MOL   H23536391   7.102   2.079   4.238 -0.3254  3.4710 -1.0046
  139MOL   C23636392   7.017   1.992   4.431 -0.0639 -0.0719  0.5549
  139MOL   N23736393   7.043   1.861   4.372 -0.2422  0.1203  0.5952
  139MOL   C23836394   7.161   1.803   4.353  0.8785  0.1309  0.8410
  139MOL   O23936395   7.265   1.858   4.376  0.1243  0.9319  0.6858
  139MOL   C24036396   7.155   1.664   4.285  0.0835 -0.1284 -0.0869
  139MOL   C24136397   6.870   2.003   4.489 -0.1229  0.2479 -0.4931
  139MOL   H24236398   7.089   2.004   4.511 -0.3162  0.1823  0.7483
  139MOL   H24336399   6.959   1.821   4.333 -0.9941  1.7514  0.4933
  139MOL   H24436400   7.078   1.600   4.329  0.0382  0.3043  0.4637
  139MOL   H24536401   7.128   1.668   4.180  0.3551 -0.3332 -0.1653
  139MOL   H24636402   7.247   1.610   4.308  0.1033  0.9362  2.5145
  139MOL   H24736403   6.864   2.093   4.551 -3.3389 -0.1947 -0.0608
  139MOL   H24836404   6.810   2.020   4.399 -0.1044  0.2154 -0.5104
  139MOL   C24936405   6.797   1.889   4.564 -0.4468  0.5585  0.2208
  139MOL   N25036406   6.655   1.920   4.574 -0.7335 -0.3353  0.3760
  139MOL   C25136407   6.559   1.828   4.579 -0.5045 -0.4330  0.3620
  139MOL   O25236408   6.580   1.708   4.560  0.4761 -0.2433 -0.4736
  139MOL   C25336409   6.411   1.868   4.596 -0.0305 -0.6363  0.1654
  139MOL   C25436410   6.850   1.862   4.709 -0.5570 -0.5578  0.3718
  139MOL   H25536411   6.820   1.801   4.504  0.3391  0.8864  0.0352
  139MOL   H25636412   6.626   2.016   4.582 -1.0357 -0.5761  2.3948
  139MOL   H25736413   6.360   1.799   4.663  0.3288 -1.0987 -0.0305
  139MOL   H25836414   6.408   1.971   4.630  0.4563 -0.7330  0.5051
  139MOL   H25936415   6.355   1.873   4.503  0.6752  0.5497 -0.2020
  139MOL   H26036416   6.806   1.770   4.747 -1.5235  0.5393  1.9671
  139MOL   H26136417   6.958   1.852   4.708 -0.4558  0.4786 -0.7609
  139MOL   H26236418   6.827   1.947   4.772  0.8943 -0.6659  1.0428
  140MOL     C136419   7.426   7.127   4.639  0.0507 -0.1060  0.1494
  140MOL     N236420   7.370   6.993   4.670  0.0521 -0.7342 -0.2937
  140MOL     C336421   7.317   6.945   4.783  0.0976  0.1303 -0.1255
  140MOL     O436422   7.303   7.007   4.890  0.1285 -0.4696 -0.8162
  140MOL     C536423   7.252   6.806   4.768 -0.1873 -0.0549 -0.1759
  140MOL     C636424   7.575   7.138   4.679  0.0885  0.2023  0.4299
  140MOL     H736425   7.415   7.150   4.533  0.5128 -1.1651 -0.1376
  140MOL     H836426   7.366   6.937   4.586 -0.0941 -1.4140  0.1558
  140MOL     H936427   7.240   6.775   4.664 -0.5366 -0.5435  0.0095
  140MOL    H1036428   7.300   6.719   4.812  0.2603 -0.6539 -1.7942
  140MOL    H1136429   7.150   6.832   4.793 -0.1813 -0.2015 -0.0007
  140MOL    H1236430   7.601   7.089   4.773 -2.4759 -1.7641  0.1653
  140MOL    H1336431   7.635   7.080   4.610 -0.2610 -0.6732  0.8448
  140MOL    H1436432   7.374   7.193   4.708 -1.4165 -1.3295  0.2328
  140MOL    C1536433   7.628   7.282   4.676 -1.5449 -0.7991 -0.1890
  140MOL    N1636434   7.775   7.284   4.698 -0.4439  0.8477 -0.6080
  140MOL    C1736435   0.037   7.282   4.607  0.9666  0.9186 -0.2245
  140MOL    O1836436   0.008   7.291   4.486 -0.3729  0.4088 -0.4496
  140MOL    C1936437   0.176   7.248   4.666 -0.0711 -0.3159  0.1997
  140MOL    C2036438   7.554   7.384   4.768  0.3407 -0.2210  0.1603
  140MOL    H2136439   7.609   7.318   4.575 -0.4958  2.2261  0.6346
  140MOL    H2236440   7.795   7.291   4.797 -0.3880 -0.7926 -0.4892
  140MOL    H2336441   0.233   7.187   4.596  0.2856  0.4697 -0.1981
  140MOL    H2436442   0.219   7.347   4.683 -1.6814  0.0599  2.3258
  140MOL    H2536443   0.165   7.198   4.763 -1.5318  1.0706  0.7800
  140MOL    H2636444   7.450   7.390   4.738  0.0180 -1.7026  0.9037
  140MOL    H2736445   7.554   7.329   4.863 -0.6955 -1.0738 -0.3292
  140MOL    C2836446   7.615   7.525   4.782  0.2877 -0.1693  0.1811
  140MOL    N2936447   7.577   7.593   4.905  0.0572  0.6123  0.2562
  140MOL    C3036448   7.660   7.659   4.990 -0.1222  0.2287  0.0042
  140MOL    O3136449   7.770   7.698   4.958  0.3894 -0.2496 -0.1253
  140MOL    C3236450   7.603   7.675   5.136  0.2921 -0.3048  0.1621
  140MOL    C3336451   7.586   7.603   4.654  0.0337  0.3049 -0.2848
  140MOL    H3436452   7.722   7.510   4.793  0.7055  2.1777 -0.4278
  140MOL    H3536453   7.487   7.574   4.946  1.1322  0.8189  2.8325
  140MOL    H3636454   7.533   7.759   5.148  0.2954 -0.5683  2.2355
  140MOL    H3736455   7.538   7.588   5.148  0.4590 -0.2940  1.1821
  140MOL    H3836456   7.686   7.665   5.205  1.5030  1.6682 -0.9411
  140MOL    H3936457   7.603   7.543   4.565  1.6741  1.8018 -1.0057
  140MOL    H4036458   7.482   7.636   4.666  0.4036  0.8198  1.7292
  140MOL    C4136459   7.664   7.733   4.629 -0.0268 -0.0340 -0.0699
  140MOL    N4236460   7.609   7.784   4.503 -0.6455  0.1036 -0.2515
  140MOL    C4336461   7.497   0.012   4.485  0.4018  0.2224 -0.3010
  140MOL    O4436462   7.409   0.031   4.568  0.3575  0.3578  0.0212
  140MOL    C4536463   7.471   0.047   4.345 -0.1437 -0.5763  0.4288
  140MOL    C4636464   7.815   7.724   4.609 -0.4811 -0.3722  0.1300
  140MOL    H4736465   7.653   7.808   4.707  2.5120  0.0412  0.2534
  140MOL    H4836466   7.667   7.768   4.421  0.4000  0.7154  0.3556
  140MOL    H4936467   7.371   0.089   4.358  0.8580  2.6055 -1.7546
  140MOL    H5036468   7.546   0.123   4.323 -2.3472  2.1376  1.8973
  140MOL    H5136469   7.467   7.808   4.270 -0.9549  0.5778 -0.7468
  140MOL    H5236470   0.023   7.639   4.658 -1.1942 -1.1686 -0.5455
  140MOL    H5336471   0.004   7.711   4.505  2.5132  0.4859  0.7745
  140MOL    C5436472   0.060   0.017   4.642  0.2233  0.3352  0.1219
  140MOL    N5536473   0.010   0.136   4.576  0.1711 -0.1228 -0.3999
  140MOL    C5636474   0.038   0.167   4.442  0.0846 -0.8168  0.2629
  140MOL    O5736475   0.096   0.092   4.366 -0.0821  0.5930  0.0556
  140MOL    C5836476   7.832   0.305   4.392 -0.9166 -0.6380  0.3349
  140MOL    C5936477   0.211   0.000   4.627  0.2950 -0.2243  0.3380
  140MOL    H6036478   0.044   0.026   4.749 -0.2103 -3.1180  0.4042
  140MOL    H6136479   7.796   0.203   4.629 -0.2065 -0.5184 -0.2831
  140MOL    H6236480   0.058   0.358   4.324  1.0324 -0.9114  1.9782
  140MOL    H6336481   7.754   0.294   4.317 -0.6656 -0.6115  0.0701
  140MOL    H6436482   7.792   0.368   4.471  1.1109 -0.1835  1.0147
  140MOL    H6536483   0.238   7.736   4.644 -0.4372 -0.4078  0.3862
  140MOL    H6636484   0.246   0.026   4.527 -0.1620  1.2672  0.5508
  140MOL    C6736485   0.299   0.097   4.722 -0.0478  0.7860  0.5055
  140MOL    N6836486   0.437   0.045   4.708 -0.3867 -0.0833 -0.3949
  140MOL    C6936487   0.548   0.108   4.741  0.0001 -0.6776 -0.1128
  140MOL    O7036488   0.545   0.220   4.792  0.5555  0.4408  0.0733
  140MOL    C7136489   0.674   0.030   4.720  0.1517 -0.6251 -0.5771
  140MOL    C7236490   0.245   0.112   4.867 -0.4679  0.4361  0.5149
  140MOL    H7336491   0.288   0.198   4.682 -0.6055  0.8163  0.7318
  140MOL    H7436492   0.451   7.797   4.660  0.7664 -1.3597  2.2374
  140MOL    H7536493   0.676   7.813   4.627  0.0943 -2.5689  0.5916
  140MOL    H7636494   0.762   0.095   4.716 -0.1239 -0.1910  0.1814
  140MOL    H7736495   0.684   7.788   4.791 -1.1705 -1.1283 -0.9571
  140MOL    H7836496   0.302   0.195   4.910  0.2483  0.8186 -1.1022
  140MOL    H7936497   0.145   0.153   4.879 -0.8434 -0.8529  1.8840
  140MOL    C8036498   0.285   0.002   4.962 -0.7376  0.4680 -0.1333
  140MOL    N8136499   0.217   7.721   4.914  0.0689 -0.7598  0.0950
  140MOL    C8236500   0.270   7.596   4.933 -0.0876  0.5402 -0.1531
  140MOL    O8336501   0.386   7.576   4.952 -0.5334 -0.4035  0.1880
  140MOL    C8436502   0.174   7.481   4.915 -0.3214 -0.5043 -0.8220
  140MOL    C8536503   0.247   0.047   5.109 -0.0756 -0.5811 -0.5383
  140MOL    H8636504   0.394   0.001   4.962 -0.7353  0.6766 -0.6924
  140MOL    H8736505   0.118   7.738   4.899  0.5709  1.3582 -0.9706
  140MOL    H8836506   0.223   7.384   4.914  1.7560  0.4113  2.7026
  140MOL    H8936507   0.111   7.487   5.004 -1.0422 -4.1158 -1.0100
  140MOL    H9036508   0.105   7.496   4.832  0.4835  0.5178 -1.3112
  140MOL    H9136509   0.267   0.154   5.121  2.4895 -1.3851  3.0329
  140MOL    H9236510   0.138   0.044   5.112 -0.1327  1.5242  0.2853
  140MOL    C9336511   0.309   7.801   5.217 -0.3535  0.3580  0.6690
  140MOL    N9436512   0.244   7.838   5.337  0.2174  0.5095  0.2691
  140MOL    C9536513   0.130   7.786   5.391 -1.0277 -0.2993 -0.7763
  140MOL    O9636514   0.067   7.706   5.329 -0.4170 -0.7774  0.3622
  140MOL    C9736515   0.095   7.831   5.527 -0.1224  0.4530 -0.5525
  140MOL    C9836516   0.459   7.837   5.246 -0.5153 -0.3219  0.7916
  140MOL    H9936517   0.291   7.696   5.198 -0.5096  0.6963 -1.1478
  140MOL   H10036518   0.280   0.083   5.380 -1.6298  1.0995  0.7104
  140MOL   H10136519   0.184   7.814   5.588  0.5166  1.9121 -1.0570
  140MOL   H10236520   0.073   0.098   5.528  3.2761  1.1840  0.2551
  140MOL   H10336521   0.013   7.777   5.575  1.1042  0.1905  1.2876
  140MOL   H10436522   0.486   0.082   5.184 -0.2645 -1.0455 -0.1060
  140MOL   H10536523   0.476   0.050   5.340 -1.9219 -1.2073  1.5725
  140MOL   C10636524   0.566   7.732   5.209  0.6517  0.0811 -0.0116
  140MOL   N10736525   0.627   7.673   5.331 -0.4359  0.2201  0.2925
  140MOL   C10836526   0.590   7.562   5.394  0.1927 -0.2759 -0.1770
  140MOL   O10936527   0.492   7.498   5.364 -0.1130 -0.8589  0.0140
  140MOL   C11036528   0.662   7.538   5.518 -0.3014  0.4270  0.0341
  140MOL   C11136529   0.676   7.810   5.131 -0.2740  0.2718 -0.5548
  140MOL   H11236530   0.533   7.647   5.149 -0.4481 -1.7797  3.1223
  140MOL   H11336531   0.698   7.727   5.379 -0.7588 -1.3563  2.6528
  140MOL   H11436532   0.677   7.437   5.556  0.9721  1.5976  2.8011
  140MOL   H11536533   0.761   7.580   5.500  0.2698 -0.1256  1.7602
  140MOL   H11636534   0.615   7.596   5.598 -1.4167  0.2196 -0.4537
  140MOL   H11736535   0.626   0.004   5.041 -0.4813  0.8099 -0.2456
  140MOL   H11836536   0.717   0.051   5.193 -0.8599  0.1332  0.0234
  140MOL   C11936537   0.810   7.743   5.084  0.3662 -0.9602 -0.8011
  140MOL   N12036538   0.869   0.006   4.992  0.0508  0.2386  0.0956
  140MOL   C12136539   0.992   0.051   5.002  0.4617  0.4811  0.5576
  140MOL   O12236540   1.069   0.028   5.093  0.3744 -0.5212  0.0967
  140MOL   C12336541   1.035   0.144   4.889  1.1305  0.7450 -0.2858
  140MOL   C12436542   0.782   7.612   5.005  0.1604  0.4181  0.4702
  140MOL   H12536543   0.880   7.738   5.168  0.0081 -2.0514 -0.5601
  140MOL   H12636544   0.812   0.032   4.913 -1.6010 -2.3420  0.3936
  140MOL   H12736545   0.969   0.224   4.857 -1.0706 -0.5432  0.9470
  140MOL   H12836546   1.113   0.198   4.944  0.3070 -0.3854  2.0502
  140MOL   H12936547   1.067   0.085   4.803  0.5571 -0.9764  0.6539
  140MOL   H13036548   0.676   7.616   4.980 -0.1683  0.2301  1.8210
  140MOL   H13136549   0.836   7.607   4.910 -0.2883 -0.2573  0.2508
  140MOL   C13236550   0.815   7.481   5.072 -0.5334  0.0848 -0.3764
  140MOL   N13336551   0.952   7.482   5.127  0.3273  0.0957  0.3112
  140MOL   C13436552   1.060   7.496   5.058  0.0227 -0.0294 -0.2400
  140MOL   O13536553   1.064   7.518   4.937 -0.0704 -0.0082  0.2874
  140MOL   C13636554   1.184   7.474   5.140 -0.3096 -0.5141  0.1185
  140MOL   C13736555   0.796   7.351   4.997 -0.6462  0.0122  0.4089
  140MOL   H13836556   0.757   7.486   5.164  2.5925 -0.7791  1.7089
  140MOL   H13936557   0.948   7.459   5.225 -1.9383 -0.7910  0.0423
  140MOL   H14036558   1.266   7.522   5.088  0.4056 -0.9976  0.7836
  140MOL   H14136559   1.180   7.520   5.239  2.8048 -0.8489  0.4480
  140MOL   H14236560   1.203   7.367   5.154 -2.5859 -1.0248 -0.3728
  140MOL   H14336561   0.866   7.357   4.914 -0.8857  0.6307  0.2466
  140MOL   H14436562   0.831   7.270   5.060 -1.8871  0.3446  1.5396
  140MOL   C14536563   0.653   7.315   4.961 -0.1441  0.9404 -0.4270
  140MOL   N14636564   0.591   7.397   4.856 -0.1252 -0.1447  0.1517
  140MOL   C14736565   0.601   7.370   4.722 -0.3832 -0.1201 -0.1677
  140MOL   O14836566   0.671   7.278   4.672  0.0447 -0.5880 -0.0374
  140MOL   C14936567   0.513   7.459   4.628  0.0421 -0.1309  0.1946
  140MOL   C15036568   0.550   7.320   5.082  0.0989  0.1600  0.4448
  140MOL   H15136569   0.664   7.210   4.932  0.0966  0.5354  1.0984
  140MOL   H15236570   0.517   7.460   4.885  2.9222  2.7214  2.0663
  140MOL   H15336571   0.436   7.520   4.675  0.0535  0.3786 -0.4413
  140MOL   H15436572   0.573   7.530   4.572  1.9215 -1.0840  0.9472
  140MOL   H15536573   0.459   7.411   4.547 -1.2576  2.3516 -0.4802
  140MOL   H15636574   0.618   7.303   5.166 -0.7044 -0.3380  0.9889
  140MOL   H15736575   0.498   7.415   5.097  2.3704  1.5778 -0.3582
  140MOL   C15836576   0.445   7.199   5.091 -0.0951  0.1867  0.0760
  140MOL   N15936577   0.410   7.159   4.947  0.2305  0.2666  0.2956
  140MOL   C16036578   0.408   7.032   4.908  0.4162  0.5111  0.0265
  140MOL   O16136579   0.383   6.939   4.982 -0.5292 -0.4432 -0.0139
  140MOL   C16236580   0.469   7.013   4.764 -0.1614  0.2587  0.3913
  140MOL   C16336581   0.313   7.248   5.164 -0.1496 -0.0119  0.4732
  140MOL   H16436582   0.482   7.117   5.152 -0.8805 -0.4146 -0.2572
  140MOL   H16536583   0.442   7.230   4.882 -2.0120  0.5292 -0.5712
  140MOL   H16636584   0.457   6.911   4.728  0.0201  0.7607 -1.1408
  140MOL   H16736585   0.420   7.079   4.692  0.2833 -0.7529 -0.8503
  140MOL   H16836586   0.576   7.028   4.752  0.1260 -0.7743  1.5611
  140MOL   H16936587   0.338   7.282   5.265 -0.4571  0.3766  0.4183
  140MOL   H17036588   0.300   7.341   5.108  2.4671  0.9970  1.4353
  140MOL   C17136589   0.188   7.154   5.142  0.9167 -0.1108  0.1523
  140MOL   N17236590   0.072   7.230   5.184  0.0448  0.2524 -0.3707
  140MOL   C17336591   7.814   7.274   5.107 -0.6056  0.5458  0.7579
  140MOL   O17436592   7.823   7.276   4.984 -0.2277 -0.7984 -0.1089
  140MOL   C17536593   7.687   7.311   5.174 -1.1582  0.5720  0.1201
  140MOL   C17636594   0.184   7.028   5.231 -0.3001  0.9131 -0.1740
  140MOL   H17736595   0.173   7.120   5.039  0.9586  3.0264 -0.9223
  140MOL   H17836596   0.063   7.246   5.284 -0.8470  0.3403 -0.4596
  140MOL   H17936597   7.594   7.296   5.120 -1.2202  0.3317  0.2941
  140MOL   H18036598   7.681   7.262   5.271  1.8584  0.3974  0.2719
  140MOL   H18136599   7.708   7.416   5.196 -1.8026  1.0428 -1.4870
  140MOL   H18236600   0.269   6.964   5.205 -2.2046 -0.7141 -2.5843
  140MOL   H18336601   0.206   7.051   5.335 -0.0429  3.1238 -0.7021
  140MOL   C18436602   0.044   6.944   5.217 -0.2836 -0.0789  0.2952
  140MOL   N18536603   7.794   6.979   5.327 -0.6985  0.9539  0.8540
  140MOL   C18636604   7.672   6.929   5.343 -0.2776  0.5441 -0.2793
  140MOL   O18736605   7.612   6.847   5.272  0.1682  0.0444 -0.2089
  140MOL   C18836606   7.606   6.995   5.463 -0.4985  0.2603  0.1818
  140MOL   C18936607   0.083   6.799   5.218  0.0167  0.1096 -0.5791
  140MOL   H19036608   7.837   6.980   5.125  1.0816 -0.4993 -0.5720
  140MOL   H19136609   7.822   7.056   5.386 -0.7235  1.4089  0.2836
  140MOL   H19236610   7.589   7.100   5.441  0.8083  0.6755  1.0797
  140MOL   H19336611   7.508   6.949   5.478 -1.8288  3.3363  1.3600
  140MOL   H19436612   7.655   6.974   5.558  1.4270 -1.7663 -1.2163
  140MOL   H19536613   0.168   6.787   5.286 -0.7209  0.1524  0.3685
  140MOL   H19636614   0.005   6.739   5.265  0.9498 -0.0943  0.7171
  140MOL   C19736615   0.101   6.743   5.077 -0.2952 -0.2073  0.2121
  140MOL   N19836616   7.804   6.748   5.015 -0.0536 -0.0374 -0.5918
  140MOL   C19936617   7.774   6.760   4.887  0.4756  0.3875  0.0595
  140MOL   O20036618   0.008   6.766   4.795  0.0864 -0.0030  0.2398
  140MOL   C20136619   7.623   6.755   4.859  0.6134 -0.3778 -0.6245
  140MOL   C20236620   0.163   6.602   5.093  0.4171  0.1421  0.4039
  140MOL   H20336621   0.172   6.807   5.024 -2.3308  0.5792 -1.6461
  140MOL   H20436622   7.725   6.764   5.074 -0.6605  0.0332 -1.4129
  140MOL   H20536623   7.583   6.840   4.804 -0.5657  0.5387  1.5691
  140MOL   H20636624   7.617   6.672   4.789 -0.8866 -0.1270 -0.8035
  140MOL   H20736625   7.558   6.740   4.945  0.6299  1.2511 -0.3196
  140MOL   H20836626   0.254   6.611   5.152  0.2097  1.1312  0.5680
  140MOL   H20936627   0.098   6.555   5.166  1.8793 -0.6718  1.2246
  140MOL   C21036628   0.188   6.518   4.964  0.5090 -0.5654 -0.8047
  140MOL   N21136629   0.231   6.382   5.008 -0.0832  0.2433 -0.1630
  140MOL   C21236630   0.145   6.290   5.055  0.1763  0.0702  0.2208
  140MOL   O21336631   0.021   6.297   5.052  0.0775  0.1461  0.3299
  140MOL   C21436632   0.196   6.149   5.082 -0.5062  0.1443  0.0237
  140MOL   C21536633   0.293   6.588   4.873  0.0924 -0.4531 -0.5610
  140MOL   H21636634   0.092   6.514   4.911 -1.3034 -0.0467  2.3186
  140MOL   H21736635   0.329   6.358   5.001 -0.5770 -1.6223 -0.9500
  140MOL   H21836636   0.116   6.074   5.078  0.1496 -0.5569 -0.1805
  140MOL   H21936637   0.280   6.127   5.017  0.1556  1.6503  0.3691
  140MOL   H22036638   0.240   6.152   5.181 -0.1697  0.2783 -0.1300
  140MOL   H22136639   0.244   6.684   4.856  0.2114 -0.3935 -0.5684
  140MOL   H22236640   0.387   6.606   4.926  0.3473  2.6585 -1.9347
  140MOL   C22336641   0.302   6.514   4.741  0.0113  0.2542 -1.3673
  140MOL   N22436642   0.446   6.481   4.720 -0.0349 -0.0428 -0.4508
  140MOL   C22536643   0.503   6.376   4.776 -0.6114 -0.1499  0.2663
  140MOL   O22636644   0.444   6.304   4.859  0.3558  0.0586 -0.2032
  140MOL   C22736645   0.642   6.338   4.722 -0.0099  0.3164 -0.7467
  140MOL   C22836646   0.255   6.589   4.615  0.5148  0.0081 -0.0318
  140MOL   H22936647   0.256   6.416   4.749  2.4471 -0.7711  1.1515
  140MOL   H23036648   0.500   6.547   4.666 -0.9369 -0.0814 -1.4190
  140MOL   H23136649   0.632   6.285   4.628  0.6732  0.7513 -1.0701
  140MOL   H23236650   0.715   6.416   4.743  2.1882 -1.8360 -0.1748
  140MOL   H23336651   0.677   6.266   4.795  0.3165  1.2017 -0.0174
  140MOL   H23436652   0.151   6.618   4.634  1.2163  2.1258  0.7381
  140MOL   H23536653   0.319   6.676   4.602 -2.3069  2.0785 -0.7148
  140MOL   C23636654   0.254   6.505   4.480  0.0985  0.2485 -0.5960
  140MOL   N23736655   0.191   6.576   4.372  0.3843  0.1629  0.4490
  140MOL   C23836656   0.238   6.618   4.254 -0.6766  0.3275 -0.3575
  140MOL   O23936657   0.359   6.621   4.229  0.0462 -0.4707  0.0604
  140MOL   C24036658   0.134   6.660   4.161 -0.0471 -0.0749 -0.3363
  140MOL   C24136659   0.187   6.374   4.495  0.3088 -0.0353  0.0605
  140MOL   H24236660   0.360   6.499   4.452  0.3934  0.0178  0.5251
  140MOL   H24336661   0.092   6.593   4.367  0.0027 -2.1032 -0.2359
  140MOL   H24436662   0.044   6.605   4.189 -1.5399  1.3637 -2.1976
  140MOL   H24536663   0.108   6.766   4.167 -1.5459 -0.3522 -1.7258
  140MOL   H24636664   0.168   6.655   4.057  0.3312 -1.3767 -0.1533
  140MOL   H24736665   0.216   6.313   4.581  2.2553  2.4188  1.2030
  140MOL   H24836666   0.084   6.401   4.516 -0.3660 -1.6699 -1.0508
  140MOL   C24936667   0.188   6.273   4.380 -0.2376  1.3168  0.1801
  140MOL   N25036668   0.066   6.199   4.379 -0.0717 -0.0293 -0.5622
  140MOL   C25136669   7.786   6.245   4.337  0.3361  0.7707  0.0002
  140MOL   O25236670   7.771   6.351   4.277  0.2952  0.7686 -0.3430
  140MOL   C25336671   7.669   6.151   4.353 -0.3012  0.1064 -0.2677
  140MOL   C25436672   0.312   6.179   4.385 -0.3425  0.0420  0.0283
  140MOL   H25536673   0.191   6.325   4.284 -2.4107  0.1426 -0.5628
  140MOL   H25636674   0.065   6.098   4.378 -0.3588 -0.0313 -0.0880
  140MOL   H25736675   7.668   6.079   4.271  2.9867 -0.8725  0.4676
  140MOL   H25836676   7.679   6.109   4.453  0.0142  0.0699 -0.3130
  140MOL   H25936677   7.576   6.201   4.327 -1.3670 -1.3047  0.7279
  140MOL   H26036678   0.341   6.140   4.483  1.4557  2.8047  0.6480
  140MOL   H26136679   0.284   6.088   4.333 -1.2107  1.0571 -1.3340
  140MOL   H26236680   0.397   6.232   4.343 -0.2707  0.0910  0.2328
  141MOL     C136681   6.442   4.641   6.432 -0.8368 -0.1682 -0.4199
  141MOL     N236682   6.482   4.674   6.571 -0.7990  0.1286 -0.3589
  141MOL     C336683   6.562   4.784   6.590 -0.5709  0.5036 -0.1364
  141MOL     O436684   6.622   4.839   6.501  0.2923 -0.6156 -0.0527
  141MOL     C536685   6.587   4.828   6.731  0.1820 -0.2982  0.4057
  141MOL     C636686   6.338   4.528   6.436  0.7389  0.8071  0.2807
  141MOL     H736687   6.407   4.736   6.391  3.2138  0.2855 -3.2346
  141MOL     H836688   6.445   4.623   6.650  4.2997 -0.8939  1.5708
  141MOL     H936689   6.692   4.820   6.759  0.7388 -0.5831 -1.7022
  141MOL    H1036690   6.541   4.922   6.763 -0.0308 -0.2873  0.0752
  141MOL    H1136691   6.542   4.754   6.797  0.3772  0.6689  1.6382
  141MOL    H1236692   6.388   4.437   6.472 -1.5941 -0.8790 -0.6135
  141MOL    H1336693   6.259   4.548   6.509 -0.3847 -0.3106 -0.6028
  141MOL    H1436694   6.534   4.603   6.386 -1.6875 -0.5350 -1.8564
  141MOL    C1536695   6.267   4.509   6.301  0.3848  0.0536 -0.3865
  141MOL    N1636696   6.158   4.410   6.318  0.3945 -0.2454 -0.5056
  141MOL    C1736697   6.179   4.281   6.335 -0.0261  0.2779 -0.4914
  141MOL    O1836698   6.290   4.225   6.368 -0.0043  0.8504  0.7657
  141MOL    C1936699   6.062   4.190   6.314 -0.0375 -0.5760 -0.0500
  141MOL    C2036700   6.369   4.466   6.194  0.1106  0.2743 -0.5664
  141MOL    H2136701   6.229   4.607   6.270 -0.7029 -0.8509 -1.9871
  141MOL    H2236702   6.064   4.442   6.298  0.9356  1.1846 -0.8843
  141MOL    H2336703   6.106   4.090   6.320  2.0497  0.4237  2.1459
  141MOL    H2436704   5.979   4.199   6.384  0.9711  0.1251  1.0781
  141MOL    H2536705   6.031   4.216   6.212  1.4261  1.8334  0.0824
  141MOL    H2636706   6.451   4.536   6.177 -0.1612  0.7974  0.2922
  141MOL    H2736707   6.422   4.382   6.238  0.1837  1.4794  1.6928
  141MOL    C2836708   6.308   4.446   6.052  0.4869 -0.2175  0.5749
  141MOL    N2936709   6.381   4.344   5.978  0.5127 -0.0798  0.7431
  141MOL    C3036710   6.330   4.226   5.946 -0.2170  0.5472  0.1499
  141MOL    O3136711   6.220   4.189   5.984  0.3072 -0.3499 -0.1491
  141MOL    C3236712   6.402   4.129   5.852 -0.7738 -0.1162 -0.1048
  141MOL    C3336713   6.280   4.572   5.966 -0.5319 -0.4958  1.0055
  141MOL    H3436714   6.211   4.402   6.077  0.8666 -0.4190  1.7215
  141MOL    H3536715   6.467   4.376   5.935  0.5125 -0.9243  0.0946
  141MOL    H3636716   6.369   4.025   5.853  1.6968 -0.9507 -0.6602
  141MOL    H3736717   6.397   4.157   5.746 -1.5369 -1.8305 -0.5462
  141MOL    H3836718   6.504   4.124   5.889 -1.5543 -0.2585  2.0511
  141MOL    H3936719   6.284   4.660   6.030  0.5329  0.9531 -0.9980
  141MOL    H4036720   6.359   4.595   5.894 -1.6748  0.7223  0.1247
  141MOL    C4136721   6.144   4.560   5.896  0.0687  0.1851  0.1024
  141MOL    N4236722   6.144   4.655   5.787  0.0027  0.5788  0.0879
  141MOL    C4336723   6.072   4.640   5.673 -0.0621 -0.1748 -0.7608
  141MOL    O4436724   6.009   4.538   5.652  0.3641  0.0690  0.1311
  141MOL    C4536725   6.079   4.733   5.559  0.0228  0.8414  0.1962
  141MOL    C4636726   6.023   4.571   5.994  0.1682 -0.7827  0.5867
  141MOL    H4736727   6.145   4.460   5.853  0.7536  0.8431 -1.4701
  141MOL    H4836728   6.204   4.736   5.797  0.7596 -0.0637  0.8885
  141MOL    H4936729   6.006   4.811   5.581 -0.0835  0.3856  1.5117
  141MOL    H5036730   6.181   4.764   5.536  0.4462  0.4446  1.4615
  141MOL    H5136731   6.035   4.675   5.477 -0.5698 -0.8822  1.6874
  141MOL    H5236732   6.039   4.539   6.097 -1.7562  0.6939  1.3669
  141MOL    H5336733   6.009   4.677   6.015 -0.0173 -0.7744  0.4222
  141MOL    C5436734   5.888   4.504   5.955 -0.5391 -0.5523 -0.1373
  141MOL    N5536735   5.791   4.532   6.057  0.4659 -0.0904 -0.4410
  141MOL    C5636736   5.783   4.502   6.184  0.0267  0.6046 -0.0016
  141MOL    O5736737   5.871   4.446   6.251 -0.0779 -0.0370  0.3930
  141MOL    C5836738   5.659   4.563   6.253 -0.5652  0.3658  0.2016
  141MOL    C5936739   5.898   4.351   5.932 -0.5602 -0.3535  0.7838
  141MOL    H6036740   5.844   4.540   5.862  0.0845  0.4565 -0.0464
  141MOL    H6136741   5.715   4.596   6.037  1.6450  1.1089 -1.1129
  141MOL    H6236742   5.572   4.528   6.197  1.3484 -1.3828 -1.7864
  141MOL    H6336743   5.657   4.529   6.357 -0.9696  1.7148  0.6516
  141MOL    H6436744   5.668   4.672   6.251  1.2208  0.2135 -1.4870
  141MOL    H6536745   5.975   4.328   5.858 -0.6997 -1.1921  0.8893
  141MOL    H6636746   5.932   4.303   6.024 -1.5823 -0.2887  1.2051
  141MOL    C6736747   5.777   4.280   5.870 -0.1277 -0.5257  0.0623
  141MOL    N6836748   5.789   4.133   5.881  0.0431  0.0597  0.3000
  141MOL    C6936749   5.687   4.048   5.914 -0.5131 -0.5876 -0.2048
  141MOL    O7036750   5.576   4.090   5.930 -0.5285 -0.7020  0.4294
  141MOL    C7136751   5.712   3.905   5.941  0.2510 -0.3509 -0.1145
  141MOL    C7236752   5.716   4.325   5.735 -0.2171 -0.0224  0.2062
  141MOL    H7336753   5.696   4.318   5.934 -0.2995  0.4092 -0.7001
  141MOL    H7436754   5.884   4.103   5.864 -0.7235 -1.4592 -1.4908
  141MOL    H7536755   5.651   3.832   5.889  1.7155 -0.7813 -1.2391
  141MOL    H7636756   5.816   3.891   5.913  1.0427  0.9425  1.9732
  141MOL    H7736757   5.700   3.890   6.049  0.6949 -3.7764 -0.5121
  141MOL    H7836758   5.615   4.284   5.739 -0.1495 -0.1435  0.7027
  141MOL    H7936759   5.730   4.432   5.720 -3.5973  0.1191 -2.4282
  141MOL    C8036760   5.781   4.258   5.608  0.0863  0.0691  0.1272
  141MOL    N8136761   5.927   4.275   5.609 -0.8575 -0.4820  0.0610
  141MOL    C8236762   6.021   4.187   5.569  0.1511 -0.2653  0.2725
  141MOL    O8336763   5.990   4.068   5.542 -0.1622  0.0195 -0.4394
  141MOL    C8436764   6.167   4.240   5.560  0.2707  1.0982 -0.7373
  141MOL    C8536765   5.725   4.305   5.474 -0.0659  0.0070  0.0705
  141MOL    H8636766   5.760   4.151   5.607  2.6937 -0.5112  2.0442
  141MOL    H8736767   5.952   4.367   5.640 -2.6645 -0.0059  0.2015
  141MOL    H8836768   6.192   4.274   5.459  3.1731  1.6447  0.1256
  141MOL    H8936769   6.189   4.321   5.630 -1.2474  1.0373 -0.1677
  141MOL    H9036770   6.231   4.154   5.577 -1.2571  0.1718  0.4622
  141MOL    H9136771   5.748   4.411   5.466  0.3910  0.0285  1.5170
  141MOL    H9236772   5.775   4.257   5.390 -1.5631  0.5385 -1.1486
  141MOL    C9336773   5.572   4.276   5.455 -0.3572 -0.1166  0.2683
  141MOL    N9436774   5.549   4.135   5.469  0.2691 -0.0725  0.3160
  141MOL    C9536775   5.462   4.082   5.551 -0.1090 -1.1681  0.2310
  141MOL    O9636776   5.391   4.142   5.634  0.2850 -0.2286 -0.1232
  141MOL    C9736777   5.437   3.934   5.535  0.0975 -0.4923 -0.0751
  141MOL    C9836778   5.511   4.327   5.321  0.4653 -0.5153 -0.1773
  141MOL    H9936779   5.515   4.334   5.527  1.0481  0.4605  0.9192
  141MOL   H10036780   5.603   4.074   5.409  0.1456 -1.0299  1.1690
  141MOL   H10136781   5.489   3.879   5.613  0.9493 -0.0456 -0.3308
  141MOL   H10236782   5.331   3.910   5.542 -0.0594 -0.4595 -2.0515
  141MOL   H10336783   5.478   3.902   5.439 -1.2652 -1.4138 -0.3728
  141MOL   H10436784   5.580   4.307   5.239  1.8825  0.7086  0.6942
  141MOL   H10536785   5.425   4.270   5.286 -0.8029  0.8848  0.5950
  141MOL   C10636786   5.465   4.477   5.312 -0.4082 -0.0797 -0.0661
  141MOL   N10736787   5.593   4.549   5.349  0.3071  0.7435  0.3256
  141MOL   C10836788   5.644   4.652   5.274 -0.9559  0.8381  0.3785
  141MOL   O10936789   5.579   4.713   5.186 -0.9024 -0.3129  0.1948
  141MOL   C11036790   5.792   4.676   5.294  0.5122 -0.0100 -0.4329
  141MOL   C11136791   5.349   4.528   5.397  0.0357 -0.0621 -0.6347
  141MOL   H11236792   5.446   4.501   5.208 -1.8744  0.0062  0.2145
  141MOL   H11336793   5.657   4.514   5.418  2.3260  3.4947 -0.0556
  141MOL   H11436794   5.819   4.699   5.397  2.2758  0.2517 -0.9458
  141MOL   H11536795   5.858   4.609   5.238  0.8348 -0.9035  0.9956
  141MOL   H11636796   5.802   4.777   5.255  1.5244 -0.6070 -1.7906
  141MOL   H11736797   5.345   4.504   5.503 -2.9265  1.3176 -0.3840
  141MOL   H11836798   5.357   4.636   5.391  2.1788 -0.2509 -1.6602
  141MOL   C11936799   5.215   4.491   5.333  0.3329  0.0597 -0.2847
  141MOL   N12036800   5.102   4.573   5.356  0.2678  0.3730 -0.2385
  141MOL   C12136801   5.078   4.697   5.310 -0.3249  0.1359 -0.8243
  141MOL   O12236802   5.152   4.762   5.237  0.2057 -0.1368  0.2735
  141MOL   C12336803   4.948   4.767   5.352 -0.4441  0.2676 -0.3457
  141MOL   C12436804   5.174   4.346   5.370 -0.0039  0.2319 -0.5131
  141MOL   H12536805   5.228   4.487   5.225  0.5600 -2.3478 -0.1768
  141MOL   H12636806   5.027   4.529   5.407  1.1193 -1.9907 -0.9417
  141MOL   H12736807   4.879   4.748   5.269  0.2734 -0.9662 -0.6744
  141MOL   H12836808   4.892   4.721   5.433  1.1114  1.3400  1.3898
  141MOL   H12936809   4.955   4.875   5.367  0.8020 -0.1819  2.5685
  141MOL   H13036810   5.256   4.284   5.405  0.1734 -0.6933 -2.5052
  141MOL   H13136811   5.116   4.352   5.462  2.2039 -2.3685  1.1013
  141MOL   C13236812   5.090   4.275   5.268  0.0138 -0.2899  0.1699
  141MOL   N13336813   4.974   4.206   5.329  0.1167  0.6954  0.1119
  141MOL   C13436814   4.849   4.258   5.348 -0.0087 -0.6884 -0.6295
  141MOL   O13536815   4.827   4.377   5.341 -0.1404 -0.3481 -0.0769
  141MOL   C13636816   4.746   4.166   5.398  0.0858 -1.1017  0.6628
  141MOL   C13736817   5.176   4.172   5.192 -0.0321 -0.1910 -0.6240
  141MOL   H13836818   5.055   4.344   5.192  0.5476 -1.3304 -1.0346
  141MOL   H13936819   4.976   4.106   5.343 -1.8113  0.5971 -0.2327
  141MOL   H14036820   4.784   4.090   5.467 -0.6122 -1.3868  0.7369
  141MOL   H14136821   4.679   4.224   5.461  1.9510  0.0698  1.6212
  141MOL   H14236822   4.681   4.123   5.321 -1.0449 -0.3798  1.1976
  141MOL   H14336823   5.265   4.226   5.159  0.9152 -2.3914 -1.7973
  141MOL   H14436824   5.206   4.084   5.249 -2.0323  0.5654  1.7103
  141MOL   C14536825   5.124   4.126   5.052 -0.1603 -0.4115  0.3380
  141MOL   N14636826   5.067   4.237   4.973  0.0827 -0.0678 -0.4007
  141MOL   C14736827   5.135   4.336   4.910  0.1319 -0.7650 -0.1608
  141MOL   O14836828   5.258   4.342   4.919  0.2964 -0.2707  0.1273
  141MOL   C14936829   5.045   4.420   4.824  0.2372  0.2850 -0.2146
  141MOL   C15036830   5.023   4.015   5.054  0.0670  0.1174  0.0499
  141MOL   H15136831   5.218   4.088   5.010  0.9905  2.0703  0.5900
  141MOL   H15236832   4.971   4.214   4.950 -0.6091  1.0344  1.3022
  141MOL   H15336833   4.996   4.353   4.753 -1.0759 -1.6443  2.4199
  141MOL   H15436834   4.959   4.452   4.882  0.4189 -0.5395  0.5052
  141MOL   H15536835   5.100   4.506   4.785  0.9157  1.2872  2.8421
  141MOL   H15636836   4.940   4.044   5.118  0.6210 -0.8394  1.2108
  141MOL   H15736837   4.972   4.007   4.958 -0.6939  0.3708  0.4305
  141MOL   C15836838   5.083   3.865   5.069 -0.0874  0.4948 -0.0365
  141MOL   N15936839   5.179   3.832   4.961  0.5463 -0.4405 -0.4720
  141MOL   C16036840   5.266   3.733   4.961 -0.0809  0.2991  0.6373
  141MOL   O16136841   5.253   3.641   5.044  0.2414  0.3232  0.0280
  141MOL   C16236842   5.364   3.713   4.846  0.0739  0.0684  0.3978
  141MOL   C16336843   4.963   3.765   5.057  0.2445  0.4651  0.1724
  141MOL   H16436844   5.134   3.847   5.164  2.2804 -0.8092 -1.4938
  141MOL   H16536845   5.169   3.891   4.880 -1.0931  1.8836  1.3393
  141MOL   H16636846   5.455   3.768   4.870 -0.9639  2.0019  0.0218
  141MOL   H16736847   5.384   3.608   4.830 -1.2843 -0.0195 -0.8080
  141MOL   H16836848   5.325   3.746   4.749 -2.1248 -0.2327  1.1482
  141MOL   H16936849   4.915   3.769   4.959  0.1270 -0.7273  0.1695
  141MOL   H17036850   5.000   3.662   5.055 -1.0105 -0.0040  0.3532
  141MOL   C17136851   4.852   3.769   5.170  0.6471 -0.2917  1.1738
  141MOL   N17236852   4.902   3.729   5.304 -0.2203  0.4355  0.0812
  141MOL   C17336853   4.958   3.808   5.387  0.4766  0.2773 -0.3636
  141MOL   O17436854   4.986   3.926   5.358  0.3405  0.0559 -0.1674
  141MOL   C17536855   4.994   3.755   5.527  0.7845 -0.7920 -0.5651
  141MOL   C17636856   4.744   3.665   5.122 -0.1481 -0.6754 -0.8135
  141MOL   H17736857   4.813   3.871   5.176  1.5902  0.1042  0.7281
  141MOL   H17836858   4.868   3.644   5.346 -1.3032  1.6298  1.6756
  141MOL   H17936859   4.908   3.702   5.568 -0.8791  0.8302 -1.8757
  141MOL   H18036860   5.077   3.684   5.525  4.0224  2.7716  0.9917
  141MOL   H18136861   5.035   3.829   5.595  1.1283 -0.7911 -0.7708
  141MOL   H18236862   4.733   3.673   5.014 -1.3608  0.4775 -0.6191
  141MOL   H18336863   4.800   3.572   5.133  0.6295 -0.1864 -0.5804
  141MOL   C18436864   4.616   3.646   5.211 -1.0946  0.4742  0.4880
  141MOL   N18536865   4.649   3.555   5.324 -0.2388  0.3006 -0.9949
  141MOL   C18636866   4.632   3.596   5.449 -0.5840  0.5493 -0.0489
  141MOL   O18736867   4.597   3.703   5.492  0.2459  0.0017  0.2122
  141MOL   C18836868   4.638   3.479   5.551 -1.0633 -0.7700  0.0610
  141MOL   C18936869   4.509   3.581   5.130  0.2836 -0.0139 -0.4140
  141MOL   H19036870   4.574   3.742   5.240 -2.8831 -0.4620  1.0832
  141MOL   H19136871   4.691   3.463   5.315  2.6982  1.4332  0.4379
  141MOL   H19236872   4.699   3.400   5.506 -0.2330 -0.2697  0.2931
  141MOL   H19336873   4.691   3.519   5.638  0.9890  1.5120 -2.1412
  141MOL   H19436874   4.541   3.440   5.581 -2.9210  0.6049 -3.9039
  141MOL   H19536875   4.483   3.644   5.045  0.2126 -1.1213 -1.2234
  141MOL   H19636876   4.555   3.494   5.082  1.4185  1.0357 -1.2452
  141MOL   C19736877   4.378   3.548   5.207  0.4953  0.6310 -0.3819
  141MOL   N19836878   4.300   3.438   5.132 -0.2698 -0.2260  0.1806
  141MOL   C19936879   4.277   3.314   5.182  0.1390  0.6663 -0.0171
  141MOL   O20036880   4.284   3.284   5.301 -0.0371 -0.5130 -0.7417
  141MOL   C20136881   4.218   3.205   5.096  0.0655 -0.0335 -0.0596
  141MOL   C20236882   4.270   3.655   5.227  0.1190 -0.0570 -0.2940
  141MOL   H20336883   4.399   3.518   5.310  0.0709  1.9064  0.0853
  141MOL   H20436884   4.263   3.467   5.043 -0.9144  1.5306  1.0058
  141MOL   H20536885   4.130   3.154   5.134  0.1892  0.1533  0.4821
  141MOL   H20636886   4.176   3.250   5.006 -0.6838  0.8026  0.7011
  141MOL   H20736887   4.292   3.131   5.065 -2.3516 -2.4087 -0.3584
  141MOL   H20836888   4.251   3.712   5.136  2.1410  0.4555 -0.4155
  141MOL   H20936889   4.175   3.606   5.247  0.2377  0.0005  0.4434
  141MOL   C21036890   4.283   3.758   5.339  0.3352  0.0248  0.8290
  141MOL   N21136891   4.261   3.696   5.468  0.1728  0.0045  0.0399
  141MOL   C21236892   4.145   3.653   5.518 -0.6403 -0.2145 -0.8345
  141MOL   O21336893   4.047   3.621   5.447 -0.3302  0.0125  0.2432
  141MOL   C21436894   4.152   3.631   5.668  0.5489 -0.2291 -0.2704
  141MOL   C21536895   4.197   3.880   5.319 -0.0902 -0.0616  0.3918
  141MOL   H21636896   4.383   3.796   5.357 -0.1330  1.6313  0.2210
  141MOL   H21736897   4.338   3.699   5.533 -0.6836 -1.3552  1.1374
  141MOL   H21836898   4.111   3.534   5.695  1.4293 -0.2392  1.0958
  141MOL   H21936899   4.256   3.627   5.700  0.2897 -1.6062  0.4071
  141MOL   H22036900   4.089   3.701   5.724 -0.1334 -0.4813 -0.7275
  141MOL   H22136901   4.093   3.848   5.323 -0.4542  1.2832  3.2640
  141MOL   H22236902   4.214   3.934   5.412  0.1313 -1.8229  1.3937
  141MOL   C22336903   4.223   3.976   5.203 -0.6915  0.0621 -0.1893
  141MOL   N22436904   4.365   3.990   5.189 -0.4707 -0.4416  0.1007
  141MOL   C22536905   4.443   3.996   5.076  0.1722 -0.1392 -0.1324
  141MOL   O22636906   4.556   4.023   5.089 -0.0200 -0.2281 -0.5833
  141MOL   C22736907   4.397   3.963   4.930  0.0839  0.1171 -0.3613
  141MOL   C22836908   4.176   4.116   5.233 -0.2806  0.6956 -0.1657
  141MOL   H22936909   4.178   3.938   5.111 -2.5449  1.3323  0.1704
  141MOL   H23036910   4.419   4.016   5.270 -0.7167  1.3959 -0.2966
  141MOL   H23136911   4.341   3.870   4.938  0.5248 -0.2089 -1.0659
  141MOL   H23236912   4.339   4.039   4.877  0.2737 -0.5399 -1.5123
  141MOL   H23336913   4.482   3.943   4.864 -0.0297 -1.2813 -0.0874
  141MOL   H23436914   4.207   4.151   5.331  1.7311  1.0724 -0.9110
  141MOL   H23536915   4.227   4.188   5.170  0.5918 -0.2052 -0.5060
  141MOL   C23636916   4.023   4.136   5.207 -0.1448 -0.3701 -0.1756
  141MOL   N23736917   3.947   4.052   5.301 -0.0068 -0.5367  0.1227
  141MOL   C23836918   3.891   4.087   5.414 -0.5195 -0.7419 -0.5153
  141MOL   O23936919   3.868   4.201   5.448  0.3173  1.0714  0.1092
  141MOL   C24036920   3.842   3.985   5.507  0.0365 -0.4724 -0.2148
  141MOL   C24136921   3.977   4.113   5.061  0.1922  0.3087 -0.1531
  141MOL   H24236922   3.996   4.237   5.238 -1.3261 -1.0469  1.0429
  141MOL   H24336923   3.936   3.954   5.278  0.0004 -1.0658  2.2576
  141MOL   H24436924   3.824   4.029   5.605 -2.7888  0.1164 -0.9518
  141MOL   H24536925   3.753   3.937   5.465 -0.3854  0.1829 -0.0649
  141MOL   H24636926   3.923   3.914   5.523 -1.0897 -1.5996  0.6346
  141MOL   H24736927   4.040   4.168   4.990  1.5626  0.6094  1.2560
  141MOL   H24836928   3.980   4.006   5.040  0.4569  0.4085 -0.6444
  141MOL   C24936929   3.828   4.158   5.038 -0.3403 -0.0179  0.3912
  141MOL   N25036930   3.774   4.093   4.917 -0.5184  0.0871 -0.4539
  141MOL   C25136931   3.796   4.147   4.796 -0.0321 -0.2216 -0.3225
  141MOL   O25236932   3.871   4.243   4.774 -0.1556 -0.1047  0.2472
  141MOL   C25336933   3.752   4.063   4.678  0.4463 -0.0348  0.4059
  141MOL   C25436934   3.798   4.312   5.050 -0.1091  0.1333 -0.5525
  141MOL   H25536935   3.766   4.111   5.113 -1.7981  1.2170 -0.0139
  141MOL   H25636936   3.708   4.016   4.924 -0.2499 -0.0957  0.0583
  141MOL   H25736937   3.660   4.112   4.644  0.1356  0.2890  1.6970
  141MOL   H25836938   3.825   4.075   4.598  0.6175 -0.3913  0.5113
  141MOL   H25936939   3.728   3.962   4.713  0.4837  0.1097  0.8419
  141MOL   H26036940   3.693   4.317   5.021 -0.3418 -0.6411  0.1394
  141MOL   H26136941   3.814   4.353   5.150 -0.0713  3.0132 -1.6743
  141MOL   H26236942   3.847   4.378   4.979  1.6792  0.1654  0.6684
  142MOL     C136943   6.230   3.385   0.989  0.8532  0.2423  0.6460
  142MOL     N236944   6.164   3.363   1.114  0.3033  0.1147  0.2321
  142MOL     C336945   6.206   3.394   1.238 -0.2322 -0.6131  0.6118
  142MOL     O436946   6.308   3.469   1.254 -0.6344  0.2447  0.1808
  142MOL     C536947   6.117   3.355   1.350 -0.7719  0.6363  0.4343
  142MOL     C636948   6.358   3.304   0.975  0.2877  0.2543  0.7941
  142MOL     H736949   6.158   3.352   0.914  0.0811 -1.4655  2.1228
  142MOL     H836950   6.074   3.318   1.101  0.5054  0.0224 -0.9015
  142MOL     H936951   6.066   3.261   1.329 -1.0340  0.9380 -0.2997
  142MOL    H1036952   6.161   3.319   1.443 -3.0530 -0.9003  0.9622
  142MOL    H1136953   6.030   3.419   1.365 -1.6217 -0.4197  0.0579
  142MOL    H1236954   6.400   3.320   0.876  0.2049  0.8867  0.8553
  142MOL    H1336955   6.431   3.345   1.045 -1.2572  3.9039  0.3867
  142MOL    H1436956   6.257   3.491   0.981  2.3139 -0.0920  1.0151
  142MOL    C1536957   6.337   3.152   0.984  0.9088 -0.0986 -0.5921
  142MOL    N1636958   6.472   3.099   1.001 -0.4230  0.4372 -0.2891
  142MOL    C1736959   6.507   3.002   1.088 -0.2687  0.2653 -0.2380
  142MOL    O1836960   6.424   2.951   1.166 -0.1421  0.0442  0.8109
  142MOL    C1936961   6.658   2.960   1.088 -0.2572 -0.0618 -0.0445
  142MOL    C2036962   6.270   3.086   0.858  0.1462  0.3523  0.0231
  142MOL    H2136963   6.286   3.138   1.079  1.9451  2.4918  0.3861
  142MOL    H2236964   6.536   3.114   0.924 -0.2783 -1.2552 -0.5305
  142MOL    H2336965   6.672   2.949   1.195 -2.5978  3.6290  0.7552
  142MOL    H2436966   6.666   2.866   1.033  2.9243  0.3097 -0.2801
  142MOL    H2536967   6.727   3.030   1.040  1.6070 -0.3139  2.2017
  142MOL    H2636968   6.187   3.145   0.819  0.2153 -0.2274 -1.0195
  142MOL    H2736969   6.338   3.082   0.773  2.8843 -0.8324  2.1796
  142MOL    C2836970   6.223   2.942   0.891  0.1480  0.5036  0.0453
  142MOL    N2936971   6.199   2.887   0.757  0.7292 -0.6981 -0.3178
  142MOL    C3036972   6.275   2.798   0.689 -0.3348 -0.6561 -0.2491
  142MOL    O3136973   6.381   2.754   0.739  0.0800  0.1293 -0.1639
  142MOL    C3236974   6.225   2.762   0.547 -0.4305 -0.3723  0.7053
  142MOL    C3336975   6.099   2.954   0.979 -0.0778 -0.4447 -0.8961
  142MOL    H3436976   6.294   2.880   0.948 -0.9151 -0.4206  0.3826
  142MOL    H3536977   6.115   2.925   0.717 -0.4052 -2.6496  0.1194
  142MOL    H3636978   6.179   2.847   0.497 -1.0596 -1.1332 -0.0275
  142MOL    H3736979   6.297   2.714   0.480 -0.1090 -0.4055  1.0745
  142MOL    H3836980   6.146   2.688   0.556  0.4127 -1.7877 -2.7541
  142MOL    H3936981   6.135   2.984   1.078  0.1571 -2.0039 -0.4853
  142MOL    H4036982   6.031   3.032   0.945 -0.1795 -0.4773 -0.7715
  142MOL    C4136983   6.007   2.831   0.989  0.2521  0.1782 -0.3350
  142MOL    N4236984   5.924   2.807   0.870  0.3553  0.3224 -0.4719
  142MOL    C4336985   5.904   2.693   0.812 -0.6751  0.8902  0.1329
  142MOL    O4436986   5.965   2.588   0.839  0.0339 -0.5721 -0.0794
  142MOL    C4536987   5.794   2.691   0.713  0.0827  0.5830 -0.3581
  142MOL    C4636988   5.927   2.819   1.121 -0.5024 -0.2918 -1.4060
  142MOL    H4736989   6.074   2.745   0.991 -1.8015 -1.4446  0.3545
  142MOL    H4836990   5.855   2.877   0.850 -0.3905 -0.2339  0.1480
  142MOL    H4936991   5.732   2.606   0.740  0.8146  0.9782  2.8238
  142MOL    H5036992   5.727   2.777   0.707  0.8881  1.3428  1.2431
  142MOL    H5136993   5.825   2.677   0.610  0.4891  0.4127 -0.2141
  142MOL    H5236994   5.897   2.719   1.153 -3.2733  0.5494 -1.2325
  142MOL    H5336995   5.993   2.836   1.207  0.5835 -0.6737 -2.1598
  142MOL    C5436996   5.799   2.906   1.137  0.5022  0.6324 -0.2416
  142MOL    N5536997   5.706   2.878   1.024 -0.5409  0.3735  0.2532
  142MOL    C5636998   5.602   2.796   1.040  0.3241 -0.4978 -0.0828
  142MOL    O5736999   5.568   2.737   1.142 -0.1822 -0.1076  0.1718
  142MOL    C5837000   5.503   2.791   0.926 -0.9322  0.3213 -0.4787
  142MOL    C5937001   5.818   3.059   1.143  1.0129  0.0236 -0.2871
  142MOL    H6037002   5.746   2.877   1.227  0.2632  3.2210  0.4884
  142MOL    H6137003   5.713   2.912   0.929 -1.7524 -1.0659 -0.3749
  142MOL    H6237004   5.561   2.797   0.833 -1.4737  0.2671 -0.8256
  142MOL    H6337005   5.440   2.703   0.918 -1.5749  0.6975  0.3779
  142MOL    H6437006   5.442   2.881   0.937  0.8603  1.5277 -0.2732
  142MOL    H6537007   5.885   3.090   1.223 -0.5911  2.4742  0.1680
  142MOL    H6637008   5.859   3.092   1.048  1.9859  1.4754  0.6100
  142MOL    C6737009   5.690   3.139   1.173 -0.0923  0.3556 -0.3521
  142MOL    N6837010   5.671   3.262   1.093 -0.0974  0.5890 -0.2416
  142MOL    C6937011   5.743   3.372   1.094 -0.5750  0.4009  0.2529
  142MOL    O7037012   5.854   3.381   1.147  0.6512  0.4581  0.2999
  142MOL    C7137013   5.678   3.492   1.033  0.0947  0.0212  0.3700
  142MOL    C7237014   5.659   3.161   1.316  1.1509  0.1653 -0.4896
  142MOL    H7337015   5.618   3.079   1.117  1.7430 -0.1000 -2.3028
  142MOL    H7437016   5.580   3.270   1.049  0.4968 -0.0977 -1.6176
  142MOL    H7537017   5.609   3.531   1.107  0.3852 -0.9949  1.1813
  142MOL    H7637018   5.752   3.566   1.001  1.0137 -0.7410  0.7098
  142MOL    H7737019   5.614   3.468   0.948 -1.0243  0.1668  1.1577
  142MOL    H7837020   5.657   3.061   1.359  2.6218 -1.2374 -3.5168
  142MOL    H7937021   5.739   3.220   1.361  1.3515  0.8274 -1.7099
  142MOL    C8037022   5.523   3.228   1.338  1.0620 -0.0235 -0.0100
  142MOL    N8137023   5.515   3.291   1.471  0.5419 -0.1548  0.1912
  142MOL    C8237024   5.486   3.417   1.493 -0.3729  0.2454 -0.5950
  142MOL    O8337025   5.441   3.495   1.408 -1.0268 -0.5348  0.0625
  142MOL    C8437026   5.488   3.466   1.637  0.2448 -0.7413 -0.5511
  142MOL    C8537027   5.396   3.138   1.330 -0.2104 -0.1391  0.0579
  142MOL    H8637028   5.502   3.302   1.261 -0.7535 -1.1368 -0.6154
  142MOL    H8737029   5.537   3.231   1.549 -3.5284 -0.8384  0.9301
  142MOL    H8837030   5.590   3.461   1.675 -1.0407 -1.1372  3.0042
  142MOL    H8937031   5.468   3.573   1.647 -1.5287 -0.9865 -1.1717
  142MOL    H9037032   5.440   3.400   1.710 -0.7711 -1.1245 -1.5511
  142MOL    H9137033   5.426   3.058   1.398 -0.1858  2.1242  2.7965
  142MOL    H9237034   5.316   3.185   1.387  1.5632 -0.7449  3.1483
  142MOL    C9337035   5.355   3.091   1.187  0.0028 -0.0110  0.0334
  142MOL    N9437036   5.317   3.202   1.094  0.5096 -0.1178  0.0349
  142MOL    C9537037   5.368   3.224   0.971  0.0793 -0.5323  0.4001
  142MOL    O9637038   5.441   3.150   0.916  0.0698 -0.3103 -0.6765
  142MOL    C9737039   5.314   3.344   0.894 -0.1654 -0.2280 -0.0362
  142MOL    C9837040   5.236   2.982   1.196  0.4011  0.5609  0.1099
  142MOL    H9937041   5.433   3.035   1.135 -0.6601 -1.6489  0.7585
  142MOL   H10037042   5.265   3.277   1.137 -0.0611 -0.8640  0.6728
  142MOL   H10137043   5.373   3.433   0.917 -2.4530  1.3641 -0.1998
  142MOL   H10237044   5.314   3.332   0.785 -0.9189  3.6534 -0.5366
  142MOL   H10337045   5.211   3.353   0.929 -0.1572  0.7939 -0.2778
  142MOL   H10437046   5.248   2.905   1.119 -0.0466 -0.7066  1.2781
  142MOL   H10537047   5.248   2.938   1.295 -0.8438 -0.8350 -0.3301
  142MOL   C10637048   5.086   3.037   1.193  0.6981 -0.4559 -0.1724
  142MOL   N10737049   5.075   3.129   1.307  0.2795  0.5393 -0.6226
  142MOL   C10837050   5.069   3.263   1.305  0.3701  0.5470  0.1145
  142MOL   O10937051   5.056   3.328   1.200  0.4655  0.3353 -0.0246
  142MOL   C11037052   5.069   3.344   1.430 -0.3047  0.3753 -0.0712
  142MOL   C11137053   4.993   2.918   1.204  0.5086  0.6160 -0.3358
  142MOL   H11237054   5.078   3.098   1.103 -0.9627 -0.4284 -0.0223
  142MOL   H11337055   5.100   3.085   1.394 -0.3441  0.6724 -0.3722
  142MOL   H11437056   5.172   3.362   1.458 -0.0407  0.2468 -0.9496
  142MOL   H11537057   5.011   3.433   1.406  1.8561  1.4968 -1.2239
  142MOL   H11637058   5.011   3.299   1.511 -2.0924  0.1166 -1.4625
  142MOL   H11737059   5.007   2.866   1.109 -0.3042 -0.8678  0.3401
  142MOL   H11837060   5.025   2.861   1.291 -0.9723  0.1932 -0.0511
  142MOL   C11937061   4.844   2.951   1.251  0.1867  0.2883 -0.2442
  142MOL   N12037062   4.787   2.826   1.289  0.3424 -0.1783 -0.4259
  142MOL   C12137063   4.690   2.803   1.379 -0.0550  0.2090  0.3377
  142MOL   O12237064   4.648   2.892   1.455 -0.1182 -0.1768  0.0616
  142MOL   C12337065   4.648   2.658   1.390  0.2535  0.0333 -0.4134
  142MOL   C12437066   4.755   3.029   1.150 -0.6720  0.2580  0.4738
  142MOL   H12537067   4.850   3.010   1.342  1.5850  0.5394 -0.4944
  142MOL   H12637068   4.822   2.747   1.237  1.4395  0.7498 -1.0941
  142MOL   H12737069   4.735   2.593   1.396  0.0814 -0.3730 -2.0826
  142MOL   H12837070   4.581   2.646   1.476 -1.2892  0.6023 -1.5177
  142MOL   H12937071   4.579   2.639   1.308 -0.5091  1.1997 -0.0542
  142MOL   H13037072   4.813   3.097   1.088 -0.3460 -1.0285 -0.6591
  142MOL   H13137073   4.716   2.954   1.082  0.1167 -1.1314  1.5444
  142MOL   C13237074   4.634   3.115   1.200  0.5313 -0.7276  0.3145
  142MOL   N13337075   4.550   3.149   1.083  1.3028  0.2222 -0.1485
  142MOL   C13437076   4.415   3.142   1.078 -0.1536 -0.1243 -0.0876
  142MOL   O13537077   4.352   3.091   1.169 -0.1345  0.7520 -0.2516
  142MOL   C13637078   4.346   3.207   0.962 -0.5149 -0.0801  0.4680
  142MOL   C13737079   4.664   3.246   1.272 -0.2227 -0.5789 -0.3087
  142MOL   H13837080   4.589   3.048   1.273 -0.2907 -2.7185 -1.9357
  142MOL   H13937081   4.592   3.186   0.999 -1.3856 -0.6149 -1.9629
  142MOL   H14037082   4.237   3.207   0.959 -0.6194 -1.8258  2.9969
  142MOL   H14137083   4.395   3.302   0.943 -1.8333  0.6918  0.8510
  142MOL   H14237084   4.381   3.139   0.884 -0.2746 -0.1426  0.6298
  142MOL   H14337085   4.573   3.259   1.332 -0.1197  1.6249 -0.6127
  142MOL   H14437086   4.746   3.225   1.340  0.3625 -0.3904 -0.9553
  142MOL   C14537087   4.684   3.377   1.188  0.0736  0.3844  0.0005
  142MOL   N14637088   4.793   3.360   1.095 -0.0587 -0.4445  0.4461
  142MOL   C14737089   4.778   3.359   0.964 -1.2075 -0.1601  0.3416
  142MOL   O14837090   4.674   3.381   0.912  0.0110  0.3733  0.2726
  142MOL   C14937091   4.904   3.328   0.886 -0.2428  0.1259  0.0213
  142MOL   C15037092   4.712   3.504   1.261 -0.2542 -0.2618 -0.6526
  142MOL   H15137093   4.594   3.392   1.128  0.3154 -0.3867 -0.5810
  142MOL   H15237094   4.890   3.358   1.123  0.3729  0.3648 -0.9546
  142MOL   H15337095   4.899   3.222   0.861  1.6352 -0.5528  2.3258
  142MOL   H15437096   4.891   3.391   0.798 -0.7741  2.8792  2.0214
  142MOL   H15537097   5.003   3.336   0.933  0.1919  0.8612 -0.9954
  142MOL   H15637098   4.812   3.491   1.301 -1.0924 -0.0507  1.5966
  142MOL   H15737099   4.718   3.579   1.182 -2.6657  1.7164  0.9664
  142MOL   C15837100   4.609   3.539   1.367  0.7768  0.1190  0.3719
  142MOL   N15937101   4.479   3.547   1.304 -0.0181 -0.4242  0.3876
  142MOL   C16037102   4.416   3.645   1.243  0.0654 -0.4794 -0.3721
  142MOL   O16137103   4.457   3.762   1.241  0.1103 -0.1980  0.2229
  142MOL   C16237104   4.284   3.609   1.181 -1.0317  0.2677 -0.1480
  142MOL   C16337105   4.656   3.663   1.442 -0.5565  0.2510 -0.0096
  142MOL   H16437106   4.604   3.455   1.436 -3.0355 -0.0993 -0.0918
  142MOL   H16537107   4.414   3.470   1.314 -2.5887  1.9842  3.1514
  142MOL   H16637108   4.207   3.613   1.258 -1.3056 -1.9764 -0.2708
  142MOL   H16737109   4.258   3.687   1.110 -0.2829 -0.2033 -0.9619
  142MOL   H16837110   4.299   3.516   1.126  2.8513  0.7228 -0.0605
  142MOL   H16937111   4.682   3.747   1.377  2.1186 -0.2679  0.3298
  142MOL   H17037112   4.573   3.711   1.494 -0.6386 -0.8650  0.8965
  142MOL   C17137113   4.776   3.642   1.538  0.6249 -0.1190 -0.2164
  142MOL   N17237114   4.731   3.569   1.662 -0.6479 -0.7510 -0.8619
  142MOL   C17337115   4.754   3.437   1.673  0.0316 -0.3823  0.1365
  142MOL   O17437116   4.799   3.371   1.580  0.1202  0.0850  0.6467
  142MOL   C17537117   4.717   3.363   1.796  1.1811 -0.2003 -0.3419
  142MOL   C17637118   4.831   3.777   1.577 -0.0695  0.4702 -0.6529
  142MOL   H17737119   4.856   3.589   1.487  0.0248 -0.5575 -0.7165
  142MOL   H17837120   4.696   3.620   1.742  0.0794 -0.3431 -0.7914
  142MOL   H17937121   4.716   3.434   1.879 -0.4440  0.2839 -0.7418
  142MOL   H18037122   4.613   3.331   1.787  1.0765 -0.0116  0.1450
  142MOL   H18137123   4.774   3.276   1.827  2.8713  1.2501  0.7157
  142MOL   H18237124   4.747   3.837   1.611  1.3407  0.1055  3.8596
  142MOL   H18337125   4.889   3.764   1.669 -0.3301 -2.0964 -0.8247
  142MOL   C18437126   4.910   3.859   1.472  0.8043 -0.1401  0.7918
  142MOL   N18537127   5.020   3.777   1.425  0.3285 -0.1063 -0.6185
  142MOL   C18637128   5.052   3.737   1.300 -0.5024  0.4972 -0.0245
  142MOL   O18737129   4.979   3.751   1.207  0.0174 -0.0078  0.2628
  142MOL   C18837130   5.192   3.678   1.270  0.6109 -0.2122  0.2984
  142MOL   C18937131   4.966   3.992   1.533 -0.4480  0.2028 -0.0463
  142MOL   H19037132   4.839   3.889   1.396  1.1038 -2.3658 -0.3953
  142MOL   H19137133   5.079   3.742   1.499 -0.7620  0.8356  0.7373
  142MOL   H19237134   5.257   3.764   1.287  0.1320 -0.0068  1.1175
  142MOL   H19337135   5.234   3.606   1.340 -1.6073 -1.0192  0.8253
  142MOL   H19437136   5.213   3.645   1.168 -1.6727 -0.6193 -0.0603
  142MOL   H19537137   4.884   4.042   1.584  0.1525  0.2335  0.8964
  142MOL   H19637138   5.035   3.965   1.613  0.5662  0.1273 -0.9530
  142MOL   C19737139   5.023   4.096   1.430 -0.9148  0.2610 -0.3284
  142MOL   N19837140   5.053   4.223   1.497 -0.2352  0.5394  0.2609
  142MOL   C19937141   5.169   4.267   1.540 -0.3818 -0.2592  0.5017
  142MOL   O20037142   5.273   4.211   1.519  0.8926 -0.7806 -0.0507
  142MOL   C20137143   5.155   4.394   1.624 -0.5465  0.0509 -0.0520
  142MOL   C20237144   4.938   4.137   1.313 -0.4646 -0.2229 -0.0132
  142MOL   H20337145   5.121   4.065   1.394 -1.1082 -1.1613  0.3489
  142MOL   H20437146   4.974   4.277   1.530 -0.6097 -0.4736  1.0662
  142MOL   H20537147   5.058   4.441   1.640  0.6022  2.4564 -0.0168
  142MOL   H20637148   5.194   4.359   1.719  0.2489 -2.5016 -1.2724
  142MOL   H20737149   5.216   4.473   1.581  0.4968  0.3967  2.0089
  142MOL   H20837150   4.906   4.051   1.253  3.1437 -0.4755 -1.7152
  142MOL   H20937151   4.846   4.173   1.359 -0.1618  0.5026  0.0244
  142MOL   C21037152   5.000   4.233   1.203  0.4750  0.5501  0.1268
  142MOL   N21137153   4.898   4.276   1.105  0.0200 -0.0710 -0.9864
  142MOL   C21237154   4.817   4.379   1.114 -0.3126  0.1693  0.4069
  142MOL   O21337155   4.836   4.468   1.199 -0.3914 -0.0285 -0.0291
  142MOL   C21437156   4.702   4.393   1.017 -0.3095  0.1143  0.0475
  142MOL   C21537157   5.126   4.169   1.131  0.8812 -0.0505 -0.4718
  142MOL   H21637158   5.026   4.324   1.258  2.4698 -1.3231  2.3983
  142MOL   H21737159   4.890   4.214   1.026  1.1962 -1.4179 -0.0964
  142MOL   H21837160   4.715   4.487   0.963 -0.7367  0.2646  0.1947
  142MOL   H21937161   4.699   4.309   0.948 -0.3464 -0.5372  0.8286
  142MOL   H22037162   4.607   4.408   1.070 -1.4714 -1.6138 -1.5032
  142MOL   H22137163   5.184   4.254   1.096  0.2760 -0.1645 -1.7362
  142MOL   H22237164   5.186   4.111   1.202  0.4741  0.3030  0.1638
  142MOL   C22337165   5.106   4.080   1.011  0.7705  0.0998 -0.5260
  142MOL   N22437166   4.999   3.974   1.033 -0.1127 -0.6140 -0.0110
  142MOL   C22537167   4.890   3.972   0.973  0.6552  0.1024  0.8349
  142MOL   O22637168   4.846   4.072   0.910  0.5208  0.2655 -0.6930
  142MOL   C22737169   4.817   3.838   0.978  0.2140 -0.5004  0.0042
  142MOL   C22837170   5.243   4.003   0.978 -0.1310  0.4699 -0.4236
  142MOL   H22937171   5.081   4.142   0.925 -0.8814 -1.5502 -1.2621
  142MOL   H23037172   5.029   3.892   1.084 -2.1398 -1.8976 -0.8228
  142MOL   H23137173   4.749   3.839   1.063 -1.3535 -0.0987 -1.2278
  142MOL   H23237174   4.763   3.818   0.885  0.1579  0.6324 -0.2129
  142MOL   H23337175   4.883   3.754   0.996  0.0011 -0.9747 -1.4201
  142MOL   H23437176   5.317   4.082   0.990  0.1993  0.1019 -0.0415
  142MOL   H23537177   5.252   3.919   1.046 -3.4627  1.0575  0.8408
  142MOL   C23637178   5.254   3.957   0.827  0.1125  0.1917 -0.0745
  142MOL   N23737179   5.183   3.836   0.794 -0.0427  0.2080 -0.1322
  142MOL   C23837180   5.212   3.712   0.824  0.6746  0.0853 -0.2352
  142MOL   O23937181   5.308   3.685   0.898  0.3387 -0.3186  0.5377
  142MOL   C24037182   5.115   3.606   0.786 -0.2808  0.2580 -0.2463
  142MOL   C24137183   5.401   3.952   0.790  0.1961  0.5188  0.2366
  142MOL   H24237184   5.222   4.043   0.769 -1.9654 -1.1402 -0.9421
  142MOL   H24337185   5.103   3.856   0.736  0.8604  1.0216 -1.1300
  142MOL   H24437186   5.013   3.644   0.784  0.6103  2.7024 -1.2384
  142MOL   H24537187   5.136   3.553   0.693 -1.8107  1.6173 -1.3839
  142MOL   H24637188   5.102   3.540   0.872 -1.2804 -0.4844 -0.9607
  142MOL   H24737189   5.467   3.969   0.875 -0.5729 -1.3424  1.2600
  142MOL   H24837190   5.425   3.849   0.762 -0.4779 -0.5406  3.2783
  142MOL   C24937191   5.455   4.050   0.677  0.6996 -0.4534  0.2523
  142MOL   N25037192   5.591   4.022   0.631 -0.6152  0.5200  0.4187
  142MOL   C25137193   5.615   3.985   0.503  0.2188  0.4929 -0.4888
  142MOL   O25237194   5.529   3.952   0.421 -0.7340  0.7800 -0.6476
  142MOL   C25337195   5.757   3.994   0.452  0.3755  0.5357 -0.4274
  142MOL   C25437196   5.437   4.203   0.715  0.0614 -0.6017 -0.0854
  142MOL   H25537197   5.386   4.027   0.596  0.1455 -1.6876  1.0430
  142MOL   H25637198   5.667   4.058   0.687  0.4588 -0.5016 -0.3745
  142MOL   H25737199   5.788   4.061   0.371 -2.3070  0.1321 -1.8538
  142MOL   H25837200   5.830   4.006   0.532  0.1582  1.2327 -0.3329
  142MOL   H25937201   5.772   3.895   0.409  0.0569 -0.2931  1.3287
  142MOL   H26037202   5.333   4.231   0.730  0.2722  1.4255 -2.0968
  142MOL   H26137203   5.486   4.234   0.807 -0.0251  0.9652 -0.5555
  142MOL   H26237204   5.477   4.262   0.632  0.5612 -1.8840 -0.7721
  143MOL     C137205   6.458   6.772   6.607  0.0730 -1.2295  0.5414
  143MOL     N237206   6.317   6.743   6.581 -0.6911 -0.4737 -0.2746
  143MOL     C337207   6.263   6.620   6.580 -0.0354 -0.1648 -0.6482
  143MOL     O437208   6.330   6.517   6.577 -0.4372 -0.4980 -0.2197
  143MOL     C537209   6.109   6.603   6.579 -0.3182 -0.0218 -0.3199
  143MOL     C637210   6.491   6.916   6.569 -0.5298  0.1125 -0.0477
  143MOL     H737211   6.464   6.762   6.716 -2.2476  2.2734  1.0672
  143MOL     H837212   6.254   6.821   6.568 -1.0573 -0.8134 -0.5547
  143MOL     H937213   6.072   6.654   6.667 -0.7020  0.6079 -0.8466
  143MOL    H1037214   6.060   6.647   6.493  0.0018  2.0288  0.5211
  143MOL    H1137215   6.078   6.498   6.581 -1.0976  0.1727 -1.9278
  143MOL    H1237216   6.510   6.913   6.461  0.7467  2.6350  0.0685
  143MOL    H1337217   6.412   6.990   6.582  1.3150  2.2845 -0.8474
  143MOL    H1437218   6.532   6.711   6.556  1.0014  0.0433  0.3655
  143MOL    C1537219   6.605   6.978   6.658 -0.0841 -0.0046 -0.1349
  143MOL    N1637220   6.634   7.117   6.624  0.0843 -0.4036  0.0526
  143MOL    C1737221   6.683   7.176   6.511  0.5925  0.7395  0.4820
  143MOL    O1837222   6.678   7.105   6.409 -0.3876  0.2578  0.1157
  143MOL    C1937223   6.733   7.323   6.505 -0.8430  0.2350  0.5315
  143MOL    C2037224   6.734   6.886   6.668  0.0552 -0.4151  0.8840
  143MOL    H2137225   6.564   6.984   6.758  0.9529  0.2847  0.2744
  143MOL    H2237226   6.639   7.170   6.710  1.7153  1.0858 -0.9402
  143MOL    H2337227   6.833   7.333   6.549  0.3760  1.3690 -2.3597
  143MOL    H2437228   6.741   7.366   6.405 -2.3083  1.9625  1.1375
  143MOL    H2537229   6.669   7.389   6.563 -0.3006  0.3223  1.0475
  143MOL    H2637230   6.717   6.790   6.617 -1.5458  0.9883 -1.3193
  143MOL    H2737231   6.822   6.933   6.623 -2.0296  2.7065 -0.0254
  143MOL    C2837232   6.780   6.861   6.814  0.0532  0.1472 -0.3020
  143MOL    N2937233   6.817   6.995   6.876 -0.1558  0.7117 -0.5249
  143MOL    C3037234   6.925   7.075   6.875  0.0405  0.2437  0.4630
  143MOL    O3137235   6.932   7.176   6.942  0.4614 -0.5391 -0.2544
  143MOL    C3237236   7.051   7.048   6.792 -0.0896  0.3711  0.4725
  143MOL    C3337237   6.892   6.750   6.826 -0.3069  0.1288 -0.3734
  143MOL    H3437238   6.702   6.829   6.883  0.3134  2.9150  1.3671
  143MOL    H3537239   6.747   7.038   6.935  1.7797 -0.5564  2.7890
  143MOL    H3637240   7.020   7.012   6.694  1.6171  0.4354 -0.0910
  143MOL    H3737241   7.106   7.141   6.788  0.8735 -0.0691  2.4989
  143MOL    H3837242   7.115   6.977   6.845 -1.3161 -1.1414 -0.0163
  143MOL    H3937243   6.986   6.798   6.797 -0.0736  0.0148  0.1797
  143MOL    H4037244   6.892   6.739   6.935  0.9117 -0.4628 -0.4238
  143MOL    C4137245   6.876   6.613   6.747 -0.4509  0.6209 -0.0362
  143MOL    N4237246   6.755   6.533   6.789  0.0837  0.3451  0.2369
  143MOL    C4337247   6.670   6.472   6.711  0.9977 -0.0392  0.2655
  143MOL    O4437248   6.682   6.487   6.587 -0.2113  0.2298  0.1912
  143MOL    C4537249   6.577   6.377   6.773 -0.1139  0.9817  0.7561
  143MOL    C4637250   6.991   6.518   6.774 -0.0818  0.6571 -0.3221
  143MOL    H4737251   6.872   6.633   6.640 -0.4057 -1.4075 -0.4417
  143MOL    H4837252   6.746   6.508   6.887  0.1949 -2.2757 -0.3911
  143MOL    H4937253   6.620   6.293   6.828 -1.5666  1.1953  2.2597
  143MOL    H5037254   6.519   6.425   6.851  0.4406 -0.8208  2.3166
  143MOL    H5137255   6.511   6.343   6.693  0.1165  0.5727  0.7377
  143MOL    H5237256   7.003   6.514   6.882  0.0488  1.2097 -0.3137
  143MOL    H5337257   6.963   6.418   6.742  0.5967  0.4433 -0.2596
  143MOL    C5437258   7.129   6.547   6.705  0.5650  0.7856 -0.0330
  143MOL    N5537259   7.223   6.451   6.765 -0.5072 -0.0817  0.8973
  143MOL    C5637260   7.253   6.325   6.730  0.1892  1.1692 -0.0483
  143MOL    O5737261   7.189   6.256   6.649 -0.6189  0.1911  0.4650
  143MOL    C5837262   7.387   6.268   6.779 -0.5426  0.6124 -0.1087
  143MOL    C5937263   7.193   6.682   6.699 -0.2184 -0.1588  0.1615
  143MOL    H6037264   7.113   6.514   6.603  0.8145  0.1206  0.1398
  143MOL    H6137265   7.284   6.490   6.835 -2.1052  0.1492  2.1898
  143MOL    H6237266   7.376   6.181   6.844 -1.0214  0.3487 -0.5342
  143MOL    H6337267   7.445   6.230   6.695 -0.6188 -0.2091  0.2030
  143MOL    H6437268   7.450   6.344   6.823 -2.2917  2.2803 -0.4250
  143MOL    H6537269   7.120   6.739   6.642  0.0899  1.2207  1.1107
  143MOL    H6637270   7.206   6.731   6.796 -2.7127 -0.1307  0.5031
  143MOL    C6737271   7.327   6.692   6.611 -0.2503  0.3323 -0.1452
  143MOL    N6837272   7.446   6.710   6.699 -0.4256  0.1615  0.4768
  143MOL    C6937273   7.474   6.807   6.789 -0.0328  0.3514  0.4466
  143MOL    O7037274   7.397   6.908   6.802  0.4705 -0.3409 -0.1943
  143MOL    C7137275   7.593   6.773   6.874 -0.2622 -0.5100  0.5613
  143MOL    C7237276   7.307   6.784   6.492  0.3526 -0.3852 -0.2674
  143MOL    H7337277   7.341   6.595   6.563 -2.1056 -0.7862  1.5127
  143MOL    H7437278   7.514   6.637   6.683  0.3626  0.9438  0.1925
  143MOL    H7537279   7.572   6.768   6.981 -1.7658  0.1655  0.3016
  143MOL    H7637280   7.629   6.673   6.848 -0.1105 -0.2328 -0.2918
  143MOL    H7737281   7.671   6.843   6.845  0.1148 -1.1302  0.0650
  143MOL    H7837282   7.401   6.780   6.438 -0.5601 -0.7792 -1.8628
  143MOL    H7937283   7.239   6.729   6.426  0.3617  0.6908 -1.1805
  143MOL    C8037284   7.279   6.935   6.502 -0.4771 -0.2886  0.0426
  143MOL    N8137285   7.196   6.978   6.391 -0.7706 -0.5882 -0.4026
  143MOL    C8237286   7.066   6.956   6.365 -0.6233  0.0067  0.2089
  143MOL    O8337287   6.996   6.865   6.413  0.1313 -0.3488  0.2635
  143MOL    C8437288   6.996   7.046   6.271 -0.0335 -0.1811  0.3795
  143MOL    C8537289   7.410   7.020   6.501 -0.1226  0.5970 -0.6325
  143MOL    H8637290   7.228   6.947   6.597  0.6525 -0.7812  0.7164
  143MOL    H8737291   7.216   7.066   6.345 -0.0263 -0.3046  0.4581
  143MOL    H8837292   6.994   7.145   6.315  0.8799 -0.8369  1.9465
  143MOL    H8937293   7.051   7.046   6.177 -1.1170 -4.4621 -0.3459
  143MOL    H9037294   6.895   7.008   6.253 -1.0950  2.7115  0.0367
  143MOL    H9137295   7.476   6.962   6.566 -1.6191  0.8412  1.1629
  143MOL    H9237296   7.450   7.023   6.400 -1.0882 -0.4967 -1.0642
  143MOL    C9337297   7.390   7.156   6.575 -0.5740  0.2624  0.1594
  143MOL    N9437298   7.332   7.246   6.474  0.5858  0.0721  0.1693
  143MOL    C9537299   7.213   7.316   6.485 -0.1716  0.7512 -0.1878
  143MOL    O9637300   7.139   7.302   6.578 -0.0432 -0.6215  0.1472
  143MOL    C9737301   7.173   7.398   6.362 -0.2975 -0.6515 -0.2106
  143MOL    C9837302   7.527   7.203   6.633 -0.3098 -0.0022  0.2186
  143MOL    H9937303   7.324   7.136   6.659 -2.1529 -3.3593 -1.8384
  143MOL   H10037304   7.389   7.276   6.396 -0.4316  1.1939 -0.1402
  143MOL   H10137305   7.117   7.337   6.291 -0.8074  0.4592 -0.7889
  143MOL   H10237306   7.123   7.491   6.390  1.1010  0.9149 -2.6811
  143MOL   H10337307   7.254   7.442   6.304  0.5870  0.7128  1.9797
  143MOL   H10437308   7.576   7.118   6.678 -0.5368  0.3710  1.1926
  143MOL   H10537309   7.582   7.243   6.547 -1.2486  1.0339  0.0807
  143MOL   C10637310   7.523   7.317   6.742  0.1738  0.3653 -0.3113
  143MOL   N10737311   7.434   7.291   6.860  0.4940 -0.2072  0.2395
  143MOL   C10837312   7.471   7.332   6.986 -0.4569 -0.0692 -0.1334
  143MOL   O10937313   7.569   7.408   7.008  0.4043 -0.1172  0.2686
  143MOL   C11037314   7.398   7.277   7.107  0.4868 -0.1268 -0.3986
  143MOL   C11137315   7.492   7.461   6.687  1.2312  0.9693  0.3983
  143MOL   H11237316   7.624   7.317   6.783  0.7418 -1.0054 -1.6872
  143MOL   H11337317   7.353   7.231   6.851 -0.9342  1.8454 -0.7668
  143MOL   H11437318   7.339   7.356   7.154 -0.3513  0.2239 -2.0127
  143MOL   H11537319   7.335   7.190   7.090 -0.3915  1.0249 -3.3432
  143MOL   H11637320   7.467   7.237   7.182  1.1361  0.4990 -0.6501
  143MOL   H11737321   7.412   7.444   6.614  1.3072 -0.4622  0.6194
  143MOL   H11837322   7.449   7.527   6.762  1.2824  0.0527  1.2495
  143MOL   C11937323   7.616   7.527   6.615 -0.2379 -0.3850  0.1819
  143MOL   N12037324   7.720   7.536   6.717 -0.1682 -0.4022 -0.0557
  143MOL   C12137325   7.829   7.464   6.725 -0.1841  0.3021  0.2217
  143MOL   O12237326   0.001   7.364   6.651 -0.5035  0.2615 -0.6655
  143MOL   C12337327   0.095   7.509   6.827 -0.0147 -0.0571  0.4629
  143MOL   C12437328   7.589   7.667   6.548  0.2768 -0.2132  0.9840
  143MOL   H12537329   7.653   7.455   6.541  1.2600  0.1710  0.3869
  143MOL   H12637330   7.715   7.618   6.776  2.2796 -0.5099  0.3479
  143MOL   H12737331   0.171   7.438   6.857  0.3647  0.2409  0.2102
  143MOL   H12837332   0.148   7.599   6.798  1.0301 -0.9822 -0.5036
  143MOL   H12937333   0.037   7.527   6.918 -0.7970  1.4882 -0.3145
  143MOL   H13037334   7.523   7.724   6.614 -1.2868  0.6418 -1.2693
  143MOL   H13137335   7.685   7.719   6.545  1.2137 -1.9468 -0.2757
  143MOL   C13237336   7.516   7.661   6.408 -0.9056  0.3365 -0.4205
  143MOL   N13337337   7.606   7.598   6.314 -0.0676 -0.6798 -0.4664
  143MOL   C13437338   7.611   7.471   6.272 -0.4691 -0.5402  0.5465
  143MOL   O13537339   7.549   7.378   6.322  0.1058  0.0976 -0.2549
  143MOL   C13637340   7.710   7.443   6.158  0.5378 -0.3217  0.6672
  143MOL   C13737341   7.491   7.798   6.356  0.5071 -1.3372  0.3416
  143MOL   H13837342   7.417   7.617   6.414 -0.7923 -0.8323 -5.1854
  143MOL   H13937343   7.686   7.651   6.283 -0.1123 -0.2578  0.1327
  143MOL   H14037344   7.751   7.344   6.178 -0.8805 -1.3193 -1.2176
  143MOL   H14137345   7.658   7.428   6.063  0.6407  0.2477  0.5146
  143MOL   H14237346   7.789   7.518   6.153 -0.3054  0.6146  1.2931
  143MOL   H14337347   7.584   0.013   6.339 -1.7926  1.9333 -2.4280
  143MOL   H14437348   7.451   7.794   6.255  2.8082 -3.3532 -0.5378
  143MOL   C14537349   7.394   0.057   6.436  0.2088 -0.7891 -0.4525
  143MOL   N14637350   7.253   0.002   6.430  0.3176  0.5927  0.5723
  143MOL   C14737351   7.192   7.783   6.530  0.0456  0.5645 -0.0122
  143MOL   O14837352   7.250   7.746   6.630 -0.0984 -0.3094 -0.0153
  143MOL   C14937353   7.045   7.758   6.515  0.1112  0.0155 -0.0458
  143MOL   C15037354   7.392   0.202   6.369  0.4528 -0.0960 -0.4717
  143MOL   H15137355   7.435   0.074   6.536  0.7021 -2.2636 -0.3905
  143MOL   H15237356   7.209   0.017   6.341 -0.7018  0.5110  1.0514
  143MOL   H15337357   7.009   7.698   6.599 -0.3138  0.9922  0.4842
  143MOL   H15437358   6.999   0.016   6.530 -1.6516 -0.7546 -0.2800
  143MOL   H15537359   7.037   7.709   6.418  0.4130 -1.0203  0.4395
  143MOL   H15637360   7.494   0.220   6.338  0.0013  2.0122 -0.7668
  143MOL   H15737361   7.354   0.213   6.267 -2.0541 -3.3788  0.0062
  143MOL   C15837362   7.339   0.311   6.466  0.2235  0.9404 -0.6444
  143MOL   N15937363   7.187   0.306   6.451  1.0233  0.4128 -0.1444
  143MOL   C16037364   7.095   0.383   6.504 -0.5618 -0.1261  0.3242
  143MOL   O16137365   7.118   0.468   6.582 -0.2121  0.3276 -0.7205
  143MOL   C16237366   6.947   0.352   6.459  0.2490 -0.2887  0.4422
  143MOL   C16337367   7.394   0.452   6.431 -0.5398  0.0278  0.7342
  143MOL   H16437368   7.384   0.292   6.564 -2.8177 -0.1362  0.6037
  143MOL   H16537369   7.149   0.230   6.396  0.4959  1.2080 -0.8829
  143MOL   H16637370   6.941   0.248   6.425 -1.7773 -0.2616  0.6895
  143MOL   H16737371   6.870   0.362   6.535  0.9582  1.9035  0.8944
  143MOL   H16837372   6.918   0.410   6.372  1.1450 -0.4186  0.0481
  143MOL   H16937373   7.361   0.486   6.333 -1.5648  0.2813  1.1628
  143MOL   H17037374   7.350   0.531   6.492  0.0310 -0.3818  1.6884
  143MOL   C17137375   7.548   0.478   6.440  0.3584 -0.5116 -0.4604
  143MOL   N17237376   7.584   0.465   6.581  0.5475 -0.1257 -0.4712
  143MOL   C17337377   7.629   0.349   6.638 -0.2405 -0.0033  0.7623
  143MOL   O17437378   7.641   0.246   6.581 -0.6107  0.2262 -0.1371
  143MOL   C17537379   7.664   0.361   6.793  0.2067 -0.2763  0.1819
  143MOL   C17637380   7.579   0.629   6.391 -0.6223  0.3090  0.9386
  143MOL   H17737381   7.601   0.400   6.386 -0.1994 -1.2679  0.0679
  143MOL   H17837382   7.584   0.552   6.632  1.8260 -0.6208  0.4076
  143MOL   H17937383   7.772   0.363   6.808  0.0676 -0.3177  1.2325
  143MOL   H18037384   7.614   0.444   6.842  2.3879  0.8431  0.5698
  143MOL   H18137385   7.633   0.277   6.856  1.1828 -1.2121 -0.5701
  143MOL   H18237386   7.542   0.640   6.289 -0.7836  1.3824  1.1084
  143MOL   H18337387   7.519   0.705   6.442 -0.8222  0.4255  0.5295
  143MOL   C18437388   7.730   0.666   6.395  0.3894 -0.0329 -0.7109
  143MOL   N18537389   7.752   0.810   6.380 -0.0013 -0.9022 -0.2696
  143MOL   C18637390   7.700   0.891   6.290  0.5218 -0.2104  0.8099
  143MOL   O18737391   7.603   0.858   6.222  0.4740  0.3046 -0.1768
  143MOL   C18837392   7.748   1.037   6.270  0.0987 -0.3899  0.1847
  143MOL   C18937393   7.807   0.586   6.289 -0.5754  0.3565 -0.6759
  143MOL   H19037394   7.781   0.647   6.489 -0.7097 -0.9881 -0.3090
  143MOL   H19137395   7.832   0.851   6.426 -0.3355 -0.8892  0.3003
  143MOL   H19237396   7.806   1.058   6.181  0.4595  0.3601  0.5971
  143MOL   H19337397   7.659   1.099   6.258 -0.7072 -2.0505 -3.0425
  143MOL   H19437398   7.791   1.083   6.359 -0.4256  1.0657 -0.3033
  143MOL   H19537399   7.776   0.482   6.300 -0.4958 -0.0652 -3.8366
  143MOL   H19637400   7.780   0.617   6.188  0.6613 -0.1995 -1.1901
  143MOL   C19737401   0.125   0.588   6.298  0.4015 -0.7263  0.2277
  143MOL   N19837402   0.180   0.721   6.298 -0.2125 -0.6517  0.5669
  143MOL   C19937403   0.270   0.771   6.377  0.2512 -0.2255 -0.4084
  143MOL   O20037404   0.294   0.715   6.479 -0.2178  0.2907  0.2176
  143MOL   C20137405   0.348   0.897   6.330 -0.5461  0.6314 -0.0669
  143MOL   C20237406   0.196   0.488   6.197 -0.0794  0.1463 -0.2951
  143MOL   H20337407   0.135   0.542   6.396 -1.8434 -2.4005 -0.2683
  143MOL   H20437408   0.176   0.766   6.207 -0.5263  1.7677  1.7470
  143MOL   H20537409   0.392   0.875   6.233 -1.8469  0.0511 -0.5393
  143MOL   H20637410   0.290   0.989   6.332 -0.2806  0.8660 -2.3134
  143MOL   H20737411   0.423   0.925   6.404  1.4480  0.3340 -1.9359
  143MOL   H20837412   0.134   0.399   6.185  0.4091 -0.2700  0.2424
  143MOL   H20937413   0.197   0.532   6.097  0.3821 -0.4873 -0.5819
  143MOL   C21037414   0.345   0.444   6.229  0.4163 -0.5061  0.4610
  143MOL   N21137415   0.361   0.445   6.378 -0.2219 -0.0381 -0.4636
  143MOL   C21237416   0.391   0.338   6.457 -0.0838 -0.1702 -0.0623
  143MOL   O21337417   0.443   0.231   6.413  0.2720 -0.3219  1.2153
  143MOL   C21437418   0.360   0.362   6.608  0.0859  0.2356  0.3733
  143MOL   C21537419   0.451   0.525   6.145  0.1239  0.0058  0.1975
  143MOL   H21637420   0.355   0.338   6.203 -0.1840 -0.2854 -0.7182
  143MOL   H21737421   0.345   0.531   6.429  0.1285 -0.1598 -0.1485
  143MOL   H21837422   0.325   0.463   6.629 -1.5948 -0.7371  2.3700
  143MOL   H21937423   0.291   0.293   6.655 -1.4693  0.4943 -1.4695
  143MOL   H22037424   0.450   0.341   6.667  0.4345 -1.1501 -0.6221
  143MOL   H22137425   0.447   0.487   6.042  2.2940  0.5080 -0.0901
  143MOL   H22237426   0.419   0.629   6.148  0.3145  0.0108  2.6333
  143MOL   C22337427   0.602   0.512   6.190  0.3171 -0.1297 -0.5204
  143MOL   N22437428   0.629   0.369   6.205  0.1472  0.4572 -0.1102
  143MOL   C22537429   0.744   0.307   6.173  0.1290  0.5053 -0.1599
  143MOL   O22637430   0.832   0.368   6.118 -0.0954 -0.1967 -0.0015
  143MOL   C22737431   0.756   0.160   6.204 -0.9791 -0.5587 -0.4961
  143MOL   C22837432   0.623   0.597   6.315  0.8299  0.0934 -0.0584
  143MOL   H22937433   0.658   0.554   6.107  1.9758  0.0953  0.7025
  143MOL   H23037434   0.557   0.319   6.256 -1.2540 -0.1546 -2.5748
  143MOL   H23137435   0.864   0.146   6.203 -1.1216 -1.7427 -0.0317
  143MOL   H23237436   0.722   0.124   6.301  0.4664  1.5927  0.8465
  143MOL   H23337437   0.708   0.102   6.125 -0.6215  0.7067 -1.6648
  143MOL   H23437438   0.562   0.686   6.298 -0.2919 -0.3042  1.7389
  143MOL   H23537439   0.579   0.546   6.401  1.0044  2.3799  1.4388
  143MOL   C23637440   0.772   0.627   6.359  0.4827 -0.4116  0.2396
  143MOL   N23737441   0.779   0.647   6.503  0.8028 -0.9287  0.0661
  143MOL   C23837442   0.782   0.546   6.594  0.5050 -0.4849 -0.1397
  143MOL   O23937443   0.794   0.577   6.714  0.2899 -0.5350 -0.3258
  143MOL   C24037444   0.780   0.391   6.571  1.2532 -0.2632 -0.4056
  143MOL   C24137445   0.829   0.736   6.268 -0.1549 -0.3800  0.7143
  143MOL   H24237446   0.826   0.534   6.342  0.7833 -0.6618  2.4593
  143MOL   H24337447   0.802   0.737   6.543 -1.9529 -1.0659  2.0656
  143MOL   H24437448   0.863   0.340   6.621  2.5896  0.4048 -1.9206
  143MOL   H24537449   0.679   0.363   6.601  0.4921  1.7481 -1.0211
  143MOL   H24637450   0.783   0.364   6.466  0.5742 -0.4220 -0.3894
  143MOL   H24737451   0.822   0.712   6.162  3.6000  2.4953 -0.2804
  143MOL   H24837452   0.782   0.834   6.278  3.9784  1.9488 -1.4132
  143MOL   C24937453   0.981   0.774   6.282  0.3346 -0.4350 -1.3462
  143MOL   N25037454   1.026   0.850   6.398 -0.1656  0.4949 -0.0513
  143MOL   C25137455   0.980   0.973   6.440  0.0855 -0.8012  0.3925
  143MOL   O25237456   0.890   1.032   6.380 -0.1217 -0.1125  0.2569
  143MOL   C25337457   1.051   1.036   6.559 -0.1028  0.8063 -0.5661
  143MOL   C25437458   1.027   0.851   6.160  0.1771 -0.4108 -0.0103
  143MOL   H25537459   1.031   0.677   6.270  2.5373  0.5763 -0.5811
  143MOL   H25637460   1.118   0.828   6.434  0.4554  0.1673 -1.8063
  143MOL   H25737461   1.096   1.131   6.532  0.7741  0.0785 -1.7097
  143MOL   H25837462   0.983   1.054   6.642  0.0148  0.5996 -0.4254
  143MOL   H25937463   1.129   0.969   6.595 -0.8007  1.2090  1.7440
  143MOL   H26037464   1.048   0.799   6.067  2.0359 -0.8109  0.6166
  143MOL   H26137465   0.950   0.926   6.143  0.3595  0.3025  2.0677
  143MOL   H26237466   1.115   0.913   6.174 -0.4428  0.0670  1.9949
  144MOL     C137467   5.145   2.102   2.960  0.8315  0.1416 -0.0745
  144MOL     N237468   5.193   2.197   2.856  0.1017 -0.3695 -0.5129
  144MOL     C337469   5.316   2.186   2.802  0.6182 -0.4092  0.4729
  144MOL     O437470   5.404   2.106   2.828 -0.2250  0.3232  0.2055
  144MOL     C537471   5.346   2.291   2.691  0.3218  0.2988  0.2877
  144MOL     C637472   5.198   2.139   3.102 -0.7572 -0.0762  0.4473
  144MOL     H737473   5.036   2.108   2.959  0.7067 -1.9369 -0.8998
  144MOL     H837474   5.127   2.263   2.816 -0.4793 -0.0274  0.9824
  144MOL     H937475   5.447   2.286   2.652  0.5044 -0.3023  0.8265
  144MOL    H1037476   5.285   2.279   2.601  1.7429  3.0538 -1.0972
  144MOL    H1137477   5.318   2.391   2.723  2.6301  0.9308  0.4002
  144MOL    H1237478   5.281   2.072   3.122  0.1765  0.6058 -1.0879
  144MOL    H1337479   5.231   2.242   3.093  1.7408 -0.9811 -1.1748
  144MOL    H1437480   5.167   1.998   2.939  1.2974 -0.0125  1.1271
  144MOL    C1537481   5.095   2.132   3.219 -0.2783  0.1066 -0.3453
  144MOL    N1637482   5.131   2.228   3.319  0.4772 -0.3630  0.4375
  144MOL    C1737483   5.062   2.340   3.349 -0.6571 -0.9507  0.8320
  144MOL    O1837484   4.953   2.376   3.300  0.1146  0.1204  0.3417
  144MOL    C1937485   5.120   2.426   3.459  0.4132  0.7775  0.2528
  144MOL    C2037486   5.093   1.992   3.280 -0.4569 -0.1062  0.3837
  144MOL    H2137487   4.992   2.147   3.186  0.1610  0.9140 -1.3910
  144MOL    H2237488   5.217   2.226   3.371 -0.2406 -0.3056  1.6245
  144MOL    H2337489   5.204   2.382   3.512  0.1915 -0.6490 -0.5533
  144MOL    H2437490   5.154   2.524   3.425  2.0889  0.8518  2.0715
  144MOL    H2537491   5.040   2.459   3.526  0.5086  0.9527  0.2814
  144MOL    H2637492   5.127   1.919   3.207  2.6204 -1.4833  3.0609
  144MOL    H2737493   5.177   1.993   3.349  0.2385  1.1318 -0.4604
  144MOL    C2837494   4.971   1.936   3.359  0.5651  0.7081 -0.7442
  144MOL    N2937495   4.912   2.042   3.433 -0.2237  0.6339  0.2348
  144MOL    C3037496   4.783   2.089   3.423 -0.2469 -0.4287  0.0147
  144MOL    O3137497   4.694   2.042   3.357 -0.0797  0.3840 -0.2115
  144MOL    C3237498   4.743   2.202   3.516 -0.4767 -0.1301 -0.2330
  144MOL    C3337499   5.005   1.813   3.448 -0.4596 -0.1175  0.0997
  144MOL    H3437500   4.894   1.897   3.292 -0.9018  1.8702  0.2191
  144MOL    H3537501   4.980   2.108   3.466  0.3649  1.0327 -1.7004
  144MOL    H3637502   4.693   2.278   3.455 -0.3342 -0.6666 -1.0263
  144MOL    H3737503   4.677   2.157   3.590  1.4350 -1.3717  0.7428
  144MOL    H3837504   4.829   2.239   3.572 -0.2767 -0.4152 -0.3568
  144MOL    H3937505   5.016   1.727   3.381 -2.5432  1.7279 -2.7539
  144MOL    H4037506   5.104   1.831   3.489 -0.3218  0.3509 -0.4319
  144MOL    C4137507   4.916   1.769   3.563  0.2953  0.8988  0.4072
  144MOL    N4237508   4.980   1.664   3.644 -0.2890 -0.0468 -0.0417
  144MOL    C4337509   5.069   1.686   3.737  0.0555  0.8289  0.0809
  144MOL    O4437510   5.110   1.796   3.770  0.4608  0.7028  0.3638
  144MOL    C4537511   5.120   1.562   3.815  0.6927 -0.4739 -0.4688
  144MOL    C4637512   4.780   1.725   3.512 -0.2160  0.7437 -0.3634
  144MOL    H4737513   4.903   1.857   3.626 -0.2681 -0.1455  1.7852
  144MOL    H4837514   4.954   1.568   3.629 -1.8619  0.0051  2.2073
  144MOL    H4937515   5.212   1.592   3.865 -0.5881 -0.1349  1.7269
  144MOL    H5037516   5.039   1.536   3.883  1.5058 -0.6653  0.4341
  144MOL    H5137517   5.151   1.479   3.751 -2.4264 -1.3662 -0.8885
  144MOL    H5237518   4.737   1.813   3.464  0.5873  1.2304 -0.2103
  144MOL    H5337519   4.790   1.653   3.431 -0.1515 -0.7618  0.9751
  144MOL    C5437520   4.674   1.687   3.617  0.1405 -0.4241 -0.6208
  144MOL    N5537521   4.562   1.615   3.549 -0.2396  0.5610 -0.0151
  144MOL    C5637522   4.549   1.480   3.540  0.2263  0.5862  0.5081
  144MOL    O5737523   4.626   1.408   3.597  0.2620  0.3378 -0.7315
  144MOL    C5837524   4.434   1.414   3.467  0.2531 -0.1098 -0.0873
  144MOL    C5937525   4.615   1.808   3.700  0.3972  0.0218 -0.7225
  144MOL    H6037526   4.725   1.624   3.689  0.1072  0.1076 -0.1292
  144MOL    H6137527   4.486   1.673   3.516  0.1210  0.7750 -0.4696
  144MOL    H6237528   4.344   1.445   3.519 -0.7402 -1.0729 -1.2013
  144MOL    H6337529   4.430   1.440   3.361  1.6697  0.1194 -0.0914
  144MOL    H6437530   4.457   1.308   3.476  1.4100  0.1740  0.4657
  144MOL    H6537531   4.700   1.857   3.747 -1.7795  2.0203  1.2721
  144MOL    H6637532   4.594   1.880   3.621 -3.3271 -1.3324 -1.0886
  144MOL    C6737533   4.480   1.781   3.776  0.2900  0.6280  0.2522
  144MOL    N6837534   4.413   1.910   3.792  0.6541  0.3964 -0.4261
  144MOL    C6937535   4.457   2.020   3.856 -0.8048  0.4172  0.1954
  144MOL    O7037536   4.551   2.020   3.934 -0.8619  0.3538 -0.1274
  144MOL    C7137537   4.382   2.145   3.834 -0.3442  0.6298  0.0079
  144MOL    C7237538   4.488   1.694   3.909  0.0856  0.2277  0.2764
  144MOL    H7337539   4.418   1.728   3.703 -0.9047 -0.2024  1.8508
  144MOL    H7437540   4.331   1.936   3.739  0.7684  0.4292 -0.5860
  144MOL    H7537541   4.276   2.124   3.826 -0.2659  0.1023  0.3589
  144MOL    H7637542   4.412   2.226   3.902  0.6660  0.9282 -0.7803
  144MOL    H7737543   4.400   2.178   3.732 -2.4183  1.0614 -0.2488
  144MOL    H7837544   4.559   1.614   3.889 -0.7288  0.0004 -1.8269
  144MOL    H7937545   4.541   1.751   3.985  1.0508  1.2241 -1.1207
  144MOL    C8037546   4.350   1.637   3.940 -0.2450 -0.0586  0.4030
  144MOL    N8137547   4.334   1.620   4.088 -1.0388  0.1108 -0.0569
  144MOL    C8237548   4.211   1.635   4.145 -0.2457  0.3287 -0.7208
  144MOL    O8337549   4.107   1.615   4.088 -0.4705 -0.3148 -0.0174
  144MOL    C8437550   4.211   1.669   4.294  0.2534 -0.0159 -0.3726
  144MOL    C8537551   4.317   1.500   3.867 -0.0131 -0.7152 -0.0730
  144MOL    H8637552   4.271   1.700   3.900  1.1232 -0.3541 -2.9397
  144MOL    H8737553   4.415   1.643   4.144 -0.1563  0.4619 -1.4638
  144MOL    H8837554   4.236   1.773   4.315 -0.0421 -0.2535  1.1933
  144MOL    H8937555   4.108   1.660   4.327  1.0873  2.5817  3.1824
  144MOL    H9037556   4.259   1.593   4.355 -0.4168 -1.4314 -1.5707
  144MOL    H9137557   4.210   1.484   3.876 -0.1899  0.5680  0.1713
  144MOL    H9237558   4.335   1.505   3.760  0.9241  3.4476  0.2043
  144MOL    C9337559   4.382   1.373   3.927  0.5547  0.4207 -0.5217
  144MOL    N9437560   4.521   1.358   3.888 -0.0560 -0.1091  0.6310
  144MOL    C9537561   4.619   1.340   3.975 -0.1014  0.0812  1.1987
  144MOL    O9637562   4.602   1.315   4.096  0.0759 -0.6879 -0.0980
  144MOL    C9737563   4.758   1.357   3.918  0.6999  0.1346  0.1806
  144MOL    C9837564   4.299   1.247   3.895 -0.8630 -0.1455 -0.2718
  144MOL    H9937565   4.370   1.377   4.035 -0.2889 -0.0403 -0.5871
  144MOL   H10037566   4.541   1.357   3.789 -0.5583 -1.1960  0.5335
  144MOL   H10137567   4.769   1.466   3.918 -0.9421  0.3075 -0.3077
  144MOL   H10237568   4.843   1.326   3.979  1.7933  0.5388 -1.1119
  144MOL   H10337569   4.773   1.319   3.817 -0.9515  1.7899 -0.7050
  144MOL   H10437570   4.291   1.239   3.786  1.9920 -0.4297 -0.5061
  144MOL   H10537571   4.358   1.157   3.913 -0.0092  0.4011 -0.2912
  144MOL   C10637572   4.168   1.230   3.978 -0.3143  0.3595  0.0369
  144MOL   N10737573   4.202   1.166   4.108  0.4950  0.8148 -0.1096
  144MOL   C10837574   4.218   1.238   4.223  0.7378 -0.8362  0.7433
  144MOL   O10937575   4.175   1.349   4.252 -0.2977  0.3710 -0.9171
  144MOL   C11037576   4.275   1.157   4.332  0.4360 -0.1393 -0.4806
  144MOL   C11137577   4.055   1.145   3.902 -0.5480 -0.5151 -0.5955
  144MOL   H11237578   4.122   1.326   4.003  1.9605  1.8832 -1.4572
  144MOL   H11337579   4.243   1.074   4.097  0.3117  0.3764  2.6611
  144MOL   H11437580   4.369   1.110   4.304 -0.2191 -0.3225 -2.4459
  144MOL   H11537581   4.305   1.218   4.417 -0.9905 -0.4715  0.2844
  144MOL   H11637582   4.200   1.080   4.350  2.4531 -2.2481 -0.9325
  144MOL   H11737583   4.109   1.057   3.867 -0.6887 -0.7622 -0.1929
  144MOL   H11837584   3.979   1.105   3.968  1.2485 -2.9845  0.0795
  144MOL   C11937585   4.003   1.218   3.773 -0.2319 -0.5661 -0.9879
  144MOL   N12037586   3.939   1.338   3.823 -0.3927  0.1068  0.0415
  144MOL   C12137587   3.820   1.350   3.892  0.3790 -0.2387 -0.2397
  144MOL   O12237588   3.774   1.251   3.944 -0.0706 -0.2507  0.8322
  144MOL   C12337589   3.766   1.489   3.919  0.5745  0.1900 -0.6083
  144MOL   C12437590   3.916   1.143   3.665  0.4405 -0.3360  0.1952
  144MOL   H12537591   4.086   1.258   3.714  0.4335  1.3724  1.1639
  144MOL   H12637592   3.976   1.429   3.801  0.5196  0.0373  1.1856
  144MOL   H12737593   3.663   1.471   3.950  0.3552  1.5283 -0.5387
  144MOL   H12837594   3.813   1.548   3.998 -0.7191 -0.4794  0.6839
  144MOL   H12937595   3.755   1.545   3.826 -0.6215  1.5507  0.3232
  144MOL   H13037596   3.820   1.126   3.712  0.1227 -1.0148 -0.6976
  144MOL   H13137597   3.900   1.210   3.581 -3.9101 -3.2735 -1.4975
  144MOL   C13237598   3.963   1.004   3.607  0.1887 -0.3409  0.3907
  144MOL   N13337599   4.105   1.003   3.574 -0.0795 -0.4920  0.2149
  144MOL   C13437600   4.197   0.934   3.631 -0.4495  0.2716  0.1484
  144MOL   O13537601   4.184   0.871   3.738 -0.0401  0.9476 -0.3577
  144MOL   C13637602   4.337   0.945   3.575  0.2324 -0.5853 -0.1819
  144MOL   C13737603   3.886   0.981   3.474  0.4668  0.1426 -0.0070
  144MOL   H13837604   3.940   0.929   3.682 -0.3916  1.7445  2.3608
  144MOL   H13937605   4.133   1.040   3.485 -2.4853 -0.8567 -0.7254
  144MOL   H14037606   4.356   0.901   3.477 -0.7060 -0.5441 -0.3882
  144MOL   H14137607   4.363   1.051   3.571 -0.8232 -0.3610 -1.3556
  144MOL   H14237608   4.397   0.894   3.650  2.6975 -0.2777 -1.8748
  144MOL   H14337609   3.785   1.001   3.508 -0.2775 -0.7946 -1.6345
  144MOL   H14437610   3.911   1.054   3.397  3.1372 -0.7000 -0.0093
  144MOL   C14537611   3.891   0.850   3.405 -0.4277  0.9814 -0.6544
  144MOL   N14637612   3.798   0.854   3.289  0.2760  0.4762 -0.2700
  144MOL   C14737613   3.830   0.842   3.164 -0.3074  0.4656  0.3899
  144MOL   O14837614   3.947   0.830   3.129  0.1839  0.3199  0.4052
  144MOL   C14937615   3.711   0.833   3.069 -0.5788  0.0898 -0.3818
  144MOL   C15037616   3.856   0.727   3.493 -0.2467  0.0991 -0.0565
  144MOL   H15137617   3.992   0.831   3.370 -1.2649  0.8449 -3.0575
  144MOL   H15237618   3.707   0.890   3.312 -0.6461 -0.8968 -1.6790
  144MOL   H15337619   3.619   0.806   3.121 -0.6740  4.6741  2.0803
  144MOL   H15437620   3.692   0.927   3.018 -0.5396 -0.4962 -1.4967
  144MOL   H15537621   3.746   0.759   2.997  3.3158  1.6934 -0.2678
  144MOL   H15637622   3.943   0.729   3.560 -1.1194  0.7042  1.0641
  144MOL   H15737623   3.767   0.745   3.553  0.8702  0.4828  1.5244
  144MOL   C15837624   3.848   0.586   3.420 -0.2122 -0.8774  0.3410
  144MOL   N15937625   3.805   0.489   3.524 -0.0212 -0.3377  0.1233
  144MOL   C16037626   3.677   0.473   3.575 -0.3473 -0.0856  0.3714
  144MOL   O16137627   3.576   0.533   3.528  0.3943  0.3935  0.5232
  144MOL   C16237628   3.676   0.369   3.692  0.5506 -0.6503 -0.1557
  144MOL   C16337629   3.974   0.532   3.332  0.2134 -0.2534 -0.0608
  144MOL   H16437630   3.770   0.595   3.345 -0.4269  0.6847  0.7339
  144MOL   H16537631   3.871   0.419   3.554  1.2918  1.8809  2.7045
  144MOL   H16637632   3.575   0.347   3.725  0.1634  0.2370 -0.7445
  144MOL   H16737633   3.715   0.272   3.661 -2.9019 -2.3664  0.6707
  144MOL   H16837634   3.737   0.403   3.776  2.4126  0.6178 -1.9714
  144MOL   H16937635   4.023   0.611   3.275 -0.5917 -0.0919 -0.5323
  144MOL   H17037636   4.051   0.496   3.400  1.7159  0.8040 -1.1775
  144MOL   C17137637   3.937   0.408   3.243 -0.5472 -0.6562 -1.0568
  144MOL   N17237638   4.057   0.322   3.224  0.5105  0.4412  0.0504
  144MOL   C17337639   4.059   0.184   3.236  0.6207  0.2490 -0.1771
  144MOL   O17437640   3.984   0.118   3.308 -0.2941  0.0367  0.2881
  144MOL   C17537641   4.164   0.119   3.155 -0.7353 -0.7769 -0.4472
  144MOL   C17637642   3.874   0.443   3.104  0.1924  0.3755 -0.3428
  144MOL   H17737643   3.869   0.345   3.300 -0.5536  1.0949  0.9310
  144MOL   H17837644   4.129   0.360   3.164  0.6474  1.0623  0.6031
  144MOL   H17937645   4.158   0.012   3.173  0.0072 -0.6682  0.4741
  144MOL   H18037646   4.153   0.143   3.049  1.5038 -0.6728 -0.6776
  144MOL   H18137647   4.262   0.157   3.184 -1.4699  0.4723  0.4526
  144MOL   H18237648   3.841   0.546   3.111  2.4726  1.0884  0.3592
  144MOL   H18337649   3.951   0.440   3.027  0.0214  1.0283 -0.5460
  144MOL   C18437650   3.755   0.347   3.067  0.0577 -0.2408 -0.0583
  144MOL   N18537651   3.756   0.322   2.927  0.3844  0.1011  0.1026
  144MOL   C18637652   3.844   0.248   2.862 -0.0490  0.0294  1.1781
  144MOL   O18737653   3.918   0.168   2.912 -0.4253 -0.1278  0.4569
  144MOL   C18837654   3.829   0.247   2.706 -0.3057 -0.0068 -0.2874
  144MOL   C18937655   3.625   0.414   3.109  0.8192  0.3656  0.4844
  144MOL   H19037656   3.763   0.248   3.111  1.4824  0.3398  1.0353
  144MOL   H19137657   3.693   0.382   2.875  0.3294 -0.5889 -0.6186
  144MOL   H19237658   3.807   0.145   2.676 -0.9686  0.1634 -0.3757
  144MOL   H19337659   3.749   0.312   2.671 -1.1245 -0.0143  1.5371
  144MOL   H19437660   3.929   0.271   2.669  0.1707 -1.0091  0.3170
  144MOL   H19537661   3.621   0.457   3.209  3.2576 -0.2115  0.8571
  144MOL   H19637662   3.610   0.493   3.036  2.6029 -0.9108 -1.3294
  144MOL   C19737663   3.499   0.327   3.095  0.8538  0.0935  0.6730
  144MOL   N19837664   3.379   0.403   3.130  0.0294  0.2329 -0.0033
  144MOL   C19937665   3.338   0.509   3.058 -0.2582 -0.5950 -0.3982
  144MOL   O20037666   3.404   0.570   2.971 -0.1409  0.3579  0.4176
  144MOL   C20137667   3.193   0.553   3.090  0.3514  0.7837 -0.4045
  144MOL   C20237668   3.514   0.184   3.168  0.0183 -0.8058  0.3687
  144MOL   H20337669   3.492   0.307   2.988  2.3376 -2.4401  1.0005
  144MOL   H20437670   3.323   0.372   3.208  1.9832 -1.8680  0.6173
  144MOL   H20537671   3.172   0.659   3.076  1.1403  0.8513 -1.0807
  144MOL   H20637672   3.126   0.488   3.033  3.3136 -1.2885 -1.6228
  144MOL   H20737673   3.168   0.534   3.195  0.4307  1.9302 -0.1635
  144MOL   H20837674   3.586   0.185   3.249  1.2089 -0.7554 -0.6667
  144MOL   H20937675   3.416   0.157   3.207 -1.3686  4.6735  0.9952
  144MOL   C21037676   3.553   0.070   3.066 -0.4369  0.0970 -0.0251
  144MOL   N21137677   3.439   0.057   2.973  0.2066  0.3957 -0.4048
  144MOL   C21237678   3.438   0.080   2.843 -0.2741 -0.4737  0.1152
  144MOL   O21337679   3.536   0.106   2.777 -0.3660  0.3358  0.3667
  144MOL   C21437680   3.311   0.053   2.770 -0.5859 -0.2295  0.1699
  144MOL   C21537681   3.566   7.772   3.138 -0.1061 -0.2367  0.3367
  144MOL   H21637682   3.646   0.090   3.012 -0.8254  0.6047 -0.5198
  144MOL   H21737683   3.351   0.038   3.018  0.9423  1.6444  1.6483
  144MOL   H21837684   3.305   7.784   2.777  1.8930 -0.5146 -1.4382
  144MOL   H21937685   3.219   0.085   2.819 -0.4610  0.5648 -0.1123
  144MOL   H22037686   3.310   0.077   2.663  1.7009 -1.4920 -0.1641
  144MOL   H22137687   3.482   7.758   3.206  0.5148  0.9395  1.3591
  144MOL   H22237688   3.555   7.691   3.065  1.5475 -0.2312  0.0612
  144MOL   C22337689   3.701   7.734   3.204 -0.0709 -0.4588  0.4898
  144MOL   N22437690   3.727   7.808   3.325  0.3901  0.2687  0.2062
  144MOL   C22537691   3.663   7.783   3.440  0.1863 -0.5454 -0.9141
  144MOL   O22637692   3.565   7.709   3.438  0.0620  0.5020 -0.6588
  144MOL   C22737693   3.686   0.025   3.558  0.2311  0.5822 -0.4891
  144MOL   C22837694   3.823   7.730   3.109 -0.2149  0.5299 -0.4006
  144MOL   H22937695   3.678   7.635   3.244  2.4571  0.0128  3.2143
  144MOL   H23037696   3.809   0.027   3.315 -0.3340  1.4672  1.3403
  144MOL   H23137697   3.764   0.098   3.533  1.9068 -0.2880  2.0285
  144MOL   H23237698   3.585   0.062   3.575  1.1655  2.0378  2.1872
  144MOL   H23337699   3.726   7.802   3.638 -0.5958  0.3363 -0.2690
  144MOL   H23437700   3.846   7.827   3.065  2.0535 -0.6919 -2.0184
  144MOL   H23537701   3.914   7.701   3.162 -0.8499  0.0700  0.4580
  144MOL   C23637702   3.819   7.633   2.985 -0.7026 -0.3833 -0.6557
  144MOL   N23737703   3.760   7.503   3.009  0.0714  0.1193 -0.0325
  144MOL   C23837704   3.789   7.413   3.104  0.9994 -0.8738 -0.3171
  144MOL   O23937705   3.886   7.424   3.176  0.1461  0.2781 -0.1870
  144MOL   C24037706   3.690   7.299   3.122 -0.1906 -0.2008 -0.7704
  144MOL   C24137707   3.948   7.650   2.908 -0.3436  0.2185  0.1732
  144MOL   H24237708   3.740   7.673   2.923 -0.7644  0.2928 -0.1458
  144MOL   H24337709   3.688   7.478   2.943 -0.7798 -0.1613  0.9721
  144MOL   H24437710   3.589   7.335   3.144 -0.5479 -1.7514  0.1756
  144MOL   H24537711   3.673   7.242   3.031 -2.1958 -0.6505 -0.1490
  144MOL   H24637712   3.732   7.221   3.186  0.7273 -1.9322 -3.4389
  144MOL   H24737713   3.947   7.756   2.886  0.4856  0.2219  0.1445
  144MOL   H24837714   4.032   7.629   2.975  0.5018  2.9718  0.0088
  144MOL   C24937715   3.961   7.575   2.770 -0.5530  0.6106 -0.1563
  144MOL   N25037716   4.108   7.573   2.736 -0.3385 -0.0757 -0.0501
  144MOL   C25137717   4.174   7.490   2.644 -0.0309 -0.6665 -0.4030
  144MOL   O25237718   4.128   7.389   2.590  0.5053 -0.2828  0.3765
  144MOL   C25337719   4.313   7.545   2.614  0.0186  0.1599  0.1562
  144MOL   C25437720   3.886   7.649   2.659 -0.0128 -0.4897 -0.6692
  144MOL   H25537721   3.921   7.474   2.766 -0.3778  0.5364 -0.0454
  144MOL   H25637722   4.170   7.640   2.778  0.9137 -1.0500 -0.3104
  144MOL   H25737723   4.374   7.527   2.702  0.1231 -1.2336 -0.1963
  144MOL   H25837724   4.347   7.500   2.521  1.3213 -0.0820  0.7528
  144MOL   H25937725   4.298   7.653   2.605  0.8892  0.1462 -1.6586
  144MOL   H26037726   3.943   7.739   2.638  0.9643 -1.0995 -0.6478
  144MOL   H26137727   3.862   7.590   2.571  1.2148 -0.4055 -1.0727
  144MOL   H26237728   3.787   7.672   2.699 -0.1467  1.3404 -2.0218
  145MOL     C137729   1.540   3.386   3.941 -0.3402 -0.6051  0.8109
  145MOL     N237730   1.671   3.366   3.875 -0.0941 -0.0967  0.9459
  145MOL     C337731   1.708   3.243   3.836  0.1271 -0.5792 -0.2204
  145MOL     O437732   1.652   3.133   3.867 -0.2507 -0.1292  0.5487
  145MOL     C537733   1.838   3.237   3.756 -0.2052  0.3449  0.3432
  145MOL     C637734   1.555   3.407   4.091 -0.3549  0.4824  0.3353
  145MOL     H737735   1.490   3.473   3.898  1.4990 -0.8594 -1.9868
  145MOL     H837736   1.718   3.444   3.831 -1.6646  0.6226  0.5231
  145MOL     H937737   1.818   3.240   3.649  1.7118 -3.1852 -0.1722
  145MOL    H1037738   1.905   3.320   3.777  0.9002 -0.7589  1.2012
  145MOL    H1137739   1.892   3.148   3.787  0.8720  0.7314 -0.3929
  145MOL    H1237740   1.594   3.318   4.141 -3.2469 -1.4825 -0.8204
  145MOL    H1337741   1.628   3.486   4.111  0.0191 -0.2057  1.7103
  145MOL    H1437742   1.483   3.293   3.937  1.0120 -1.4273  0.1233
  145MOL    C1537743   1.426   3.428   4.172  0.3416 -1.0899  0.7291
  145MOL    N1637744   1.362   3.549   4.128 -0.9909 -0.1346  0.6392
  145MOL    C1737745   1.239   3.552   4.083 -0.5184  0.2866  0.7207
  145MOL    O1837746   1.171   3.444   4.077 -0.6855 -0.9289  0.4797
  145MOL    C1937747   1.182   3.688   4.035  0.0936  0.5421 -0.0730
  145MOL    C2037748   1.462   3.444   4.326 -0.5148 -0.2630 -0.3440
  145MOL    H2137749   1.362   3.341   4.155  2.4272 -2.3838 -0.7811
  145MOL    H2237750   1.423   3.630   4.118 -2.8668  1.1101 -1.1770
  145MOL    H2337751   1.239   3.716   3.946  2.3616 -0.5998  0.9553
  145MOL    H2437752   1.077   3.674   4.011  0.2721  0.3825 -0.8100
  145MOL    H2537753   1.191   3.758   4.117  1.2979 -2.6492  2.6605
  145MOL    H2637754   1.532   3.372   4.368  0.1388 -0.6524 -2.0969
  145MOL    H2737755   1.518   3.536   4.339 -0.8848 -0.1428  0.4979
  145MOL    C2837756   1.336   3.459   4.417  1.0018  0.1286 -0.3636
  145MOL    N2937757   1.224   3.380   4.377  0.3919 -0.1714 -0.0690
  145MOL    C3037758   1.107   3.366   4.440  0.0548 -0.3983 -1.1234
  145MOL    O3137759   1.078   3.409   4.555  0.2750 -0.1607  0.0047
  145MOL    C3237760   1.000   3.306   4.352 -0.1926  0.5092  0.2404
  145MOL    C3337761   1.307   3.613   4.423  0.3316 -0.5209 -0.0627
  145MOL    H3437762   1.361   3.412   4.512  0.8043 -2.1754 -1.4117
  145MOL    H3537763   1.218   3.364   4.278 -0.3058 -0.2411 -0.0126
  145MOL    H3637764   0.976   3.381   4.277 -2.0370 -0.7055 -0.4252
  145MOL    H3737765   1.021   3.217   4.293  0.2808  0.9625 -0.2802
  145MOL    H3837766   0.912   3.292   4.414 -2.8391  0.6216 -3.3788
  145MOL    H3937767   1.353   3.662   4.338  0.2488  0.4796  0.4599
  145MOL    H4037768   1.202   3.625   4.394  0.0932 -2.9545 -0.3189
  145MOL    C4137769   1.340   3.691   4.554 -0.6779 -0.4220  0.2222
  145MOL    N4237770   1.232   3.657   4.642 -0.4333 -0.5061 -0.5193
  145MOL    C4337771   1.222   3.686   4.775  0.0097 -0.1842  0.4627
  145MOL    O4437772   1.307   3.754   4.832  0.8131 -0.3622  0.3527
  145MOL    C4537773   1.112   3.614   4.851 -0.3777  0.6080  0.6177
  145MOL    C4637774   1.342   3.843   4.534 -0.1272 -0.2541 -0.1866
  145MOL    H4737775   1.435   3.662   4.600  0.5969  2.8447 -0.2260
  145MOL    H4837776   1.182   3.575   4.611 -2.8202  0.0209  1.7838
  145MOL    H4937777   1.169   3.575   4.936 -0.0140 -0.9158 -0.3180
  145MOL    H5037778   1.056   3.695   4.897  0.3607  0.4775  1.7856
  145MOL    H5137779   1.051   3.540   4.800 -2.4791  1.4799  1.8134
  145MOL    H5237780   1.252   3.874   4.480  1.0411 -0.5548 -2.3840
  145MOL    H5337781   1.326   3.887   4.632  0.4948  1.2252 -0.7416
  145MOL    C5437782   1.473   3.900   4.483 -0.1051 -0.6497 -0.7297
  145MOL    N5537783   1.559   3.939   4.598  0.1531 -0.6064  0.1102
  145MOL    C5637784   1.657   3.870   4.656 -0.0307 -0.4175 -0.5591
  145MOL    O5737785   1.688   3.756   4.620 -0.5729 -0.4478 -0.3024
  145MOL    C5837786   1.735   3.942   4.768  0.7198  0.1749 -0.4601
  145MOL    C5937787   1.435   4.016   4.384  0.3740  0.5317 -0.1485
  145MOL    H6037788   1.531   3.822   4.434 -0.6541 -1.2720 -0.4092
  145MOL    H6137789   1.537   4.030   4.636 -0.0551  0.5335 -2.5960
  145MOL    H6237790   1.713   3.891   4.861  2.0884 -1.6204 -1.0952
  145MOL    H6337791   1.843   3.930   4.755  0.4973 -2.2167 -0.2772
  145MOL    H6437792   1.713   4.049   4.773  1.9916  0.3970  0.5987
  145MOL    H6537793   1.340   3.995   4.334 -0.6251  1.5177  1.3195
  145MOL    H6637794   1.406   4.093   4.455  0.6169 -0.3179  0.8777
  145MOL    C6737795   1.545   4.044   4.273  0.3556  0.4004 -0.5354
  145MOL    N6837796   1.578   3.931   4.190 -0.1326  0.6484  0.0239
  145MOL    C6937797   1.517   3.900   4.072 -0.2718  0.4572 -0.5723
  145MOL    O7037798   1.413   3.954   4.032 -0.5781  0.1118 -0.2969
  145MOL    C7137799   1.592   3.798   3.980  0.5107  0.3094  0.2346
  145MOL    C7237800   1.677   4.095   4.336  0.7728 -0.2400  0.9763
  145MOL    H7337801   1.508   4.129   4.215 -1.2037 -0.4602 -0.8326
  145MOL    H7437802   1.664   3.881   4.208 -0.0584 -0.3183 -2.6769
  145MOL    H7537803   1.567   3.820   3.876  0.6733  1.0709  0.3568
  145MOL    H7637804   1.700   3.786   3.993  0.3836 -1.0259  0.0905
  145MOL    H7737805   1.542   3.701   3.985  0.1287  0.4000 -1.5971
  145MOL    H7837806   1.644   4.147   4.426  0.0601 -0.5005  0.8711
  145MOL    H7937807   1.725   4.004   4.371 -0.5987 -1.4889 -0.3051
  145MOL    C8037808   1.761   4.189   4.240 -0.0163  0.6613 -0.6670
  145MOL    N8137809   1.901   4.187   4.288 -0.3128 -0.1901  0.0413
  145MOL    C8237810   2.001   4.105   4.251 -0.0212  0.1550 -0.2635
  145MOL    O8337811   1.989   4.006   4.174  0.0686 -0.1768 -0.1455
  145MOL    C8437812   2.134   4.141   4.312 -0.2778 -0.6231 -0.7547
  145MOL    C8537813   1.706   4.335   4.220 -0.2376  1.1228  0.0329
  145MOL    H8637814   1.760   4.147   4.140  0.4739  0.1849 -0.4788
  145MOL    H8737815   1.933   4.268   4.340 -1.5489 -0.3556  1.0873
  145MOL    H8837816   2.196   4.165   4.226  1.4226  3.3249  1.4249
  145MOL    H8937817   2.131   4.236   4.365 -0.9816 -0.1596 -1.6355
  145MOL    H9037818   2.180   4.061   4.371 -0.3418 -0.3112 -0.2777
  145MOL    H9137819   1.782   4.393   4.166 -1.3389  0.3111 -2.4661
  145MOL    H9237820   1.635   4.342   4.137  0.3363  3.0261 -0.3376
  145MOL    C9337821   1.646   4.408   4.351 -0.4640 -0.0754 -0.3885
  145MOL    N9437822   1.502   4.367   4.377  0.4244  0.3255 -0.2850
  145MOL    C9537823   1.391   4.369   4.304 -0.3269 -0.1813  0.6570
  145MOL    O9637824   1.383   4.394   4.186 -0.0267  0.0862 -0.4506
  145MOL    C9737825   1.258   4.359   4.382 -0.4310  0.3614 -0.4208
  145MOL    C9837826   1.651   4.557   4.351 -0.3303 -0.6052  0.2687
  145MOL    H9937827   1.706   4.374   4.435 -0.5623  0.7966  0.0405
  145MOL   H10037828   1.477   4.341   4.472  2.0222 -0.7999 -0.1652
  145MOL   H10137829   1.210   4.457   4.383  1.6262  1.3966  2.1333
  145MOL   H10237830   1.183   4.299   4.330 -1.5411 -0.4439  2.0284
  145MOL   H10337831   1.266   4.313   4.481 -1.2090  2.0861  0.4673
  145MOL   H10437832   1.612   4.591   4.255  1.5464  2.2927  0.4618
  145MOL   H10537833   1.585   4.600   4.426 -1.0723  0.7794 -1.1527
  145MOL   C10637834   1.800   4.625   4.347 -0.0641 -0.1281  0.1464
  145MOL   N10737835   1.849   4.631   4.484  0.1729  0.5959 -0.0677
  145MOL   C10837836   1.939   4.540   4.529 -0.3343  0.2498 -0.2714
  145MOL   O10937837   1.971   4.437   4.468 -0.3221  0.7686  0.2293
  145MOL   C11037838   2.002   4.574   4.667  0.5160 -0.2175  0.0863
  145MOL   C11137839   1.804   4.771   4.291  0.3145  0.3563  1.2834
  145MOL   H11237840   1.867   4.566   4.284 -0.2333 -0.2276  0.0560
  145MOL   H11337841   1.830   4.707   4.547  0.4625  1.0421 -0.5176
  145MOL   H11437842   2.002   4.478   4.719  0.1280 -0.2194  0.0839
  145MOL   H11537843   2.106   4.606   4.660  0.5689 -0.3332  0.3603
  145MOL   H11637844   1.949   4.654   4.718 -1.6886 -2.0594  0.7327
  145MOL   H11737845   1.735   4.822   4.358  0.4217  0.7868  1.0708
  145MOL   H11837846   1.906   4.804   4.308  1.1847 -1.7431  0.3479
  145MOL   C11937847   1.767   4.788   4.140  0.2686 -0.0883  0.1514
  145MOL   N12037848   1.837   4.696   4.046 -0.5801  0.0756 -0.3090
  145MOL   C12137849   1.975   4.686   4.033  0.3855  0.2516 -0.3105
  145MOL   O12237850   2.059   4.730   4.109 -0.6252 -0.1251  0.1070
  145MOL   C12337851   2.023   4.600   3.917  0.2031 -0.6546  0.0139
  145MOL   C12437852   1.796   4.931   4.101 -0.3817  0.3573  0.0165
  145MOL   H12537853   1.662   4.759   4.144  0.0976  0.5480  0.2519
  145MOL   H12637854   1.794   4.656   3.964 -1.9376 -0.3707  0.6116
  145MOL   H12737855   1.948   4.598   3.839 -1.4630  1.4268  1.5098
  145MOL   H12837856   2.117   4.630   3.871  0.4329 -1.8294 -0.3027
  145MOL   H12937857   2.039   4.496   3.947 -0.4697 -0.8372 -0.2421
  145MOL   H13037858   1.773   4.991   4.188 -0.5878 -2.8236  2.2536
  145MOL   H13137859   1.904   4.946   4.090 -0.4927  0.6223 -0.6833
  145MOL   C13237860   1.732   4.992   3.975  0.0977 -0.0111 -0.1198
  145MOL   N13337861   1.588   4.995   3.992  0.0205 -0.3083 -0.0643
  145MOL   C13437862   1.526   5.091   4.066  0.1058  0.0269  1.2314
  145MOL   O13537863   1.583   5.169   4.140  0.3577 -0.1360  0.5886
  145MOL   C13637864   1.375   5.102   4.047 -0.7339  0.4276  0.4357
  145MOL   C13737865   1.768   4.932   3.845  0.5866  0.5641  0.0904
  145MOL   H13837866   1.765   5.095   3.981 -1.2890  0.3903  0.8843
  145MOL   H13937867   1.534   4.927   3.941  1.6803 -3.1395  1.8021
  145MOL   H14037868   1.370   5.153   3.951 -0.7491  2.3349  1.4231
  145MOL   H14137869   1.326   5.007   4.024 -2.4814  0.8408  2.3076
  145MOL   H14237870   1.327   5.154   4.130  1.2217  0.6681  1.4484
  145MOL   H14337871   1.876   4.919   3.855  0.6443  1.6555  0.9029
  145MOL   H14437872   1.725   4.832   3.844  1.2723  0.2718 -0.6518
  145MOL   C14537873   1.713   4.999   3.719  0.7105 -0.0943  0.5478
  145MOL   N14637874   1.571   4.991   3.693  0.5604 -0.7290 -0.7095
  145MOL   C14737875   1.493   5.087   3.643 -0.0789  0.1819  0.7297
  145MOL   O14837876   1.540   5.193   3.604 -0.5278  0.0411  1.0204
  145MOL   C14937877   1.339   5.061   3.638  0.0612 -0.4029  0.1553
  145MOL   C15037878   1.806   4.973   3.594  0.3271  0.8087 -0.0915
  145MOL   H15137879   1.722   5.105   3.743 -1.1913  0.3717 -0.6372
  145MOL   H15237880   1.527   4.913   3.739 -1.1283  0.7690  0.2790
  145MOL   H15337881   1.288   5.069   3.734 -2.2022  1.7356 -1.1553
  145MOL   H15437882   1.297   5.151   3.591  1.5690 -0.3040 -1.0194
  145MOL   H15537883   1.302   4.968   3.595 -0.5395  1.1494 -2.8646
  145MOL   H15637884   1.754   5.006   3.504  0.4387 -0.1133 -0.4985
  145MOL   H15737885   1.897   5.032   3.608  1.1057 -0.8016  1.9459
  145MOL   C15837886   1.833   4.821   3.562  0.2788 -0.0491  0.3006
  145MOL   N15937887   1.927   4.808   3.457  0.1939 -0.5366  0.4750
  145MOL   C16037888   2.041   4.740   3.467  0.1178  0.4881 -0.0142
  145MOL   O16137889   2.072   4.672   3.563 -0.6382  0.3324  1.1544
  145MOL   C16237890   2.141   4.755   3.357  0.0988  0.8934  0.1882
  145MOL   C16337891   1.702   4.749   3.508 -0.8767 -0.3361 -0.2013
  145MOL   H16437892   1.854   4.779   3.661 -2.8794 -0.5711  0.8044
  145MOL   H16537893   1.909   4.868   3.378 -1.6565 -2.2342 -0.4362
  145MOL   H16637894   2.236   4.768   3.409  1.2537 -1.5246 -1.2153
  145MOL   H16737895   2.153   4.663   3.299 -2.6775  1.5606 -1.5168
  145MOL   H16837896   2.127   4.842   3.293  1.7511  0.0175 -1.4428
  145MOL   H16937897   1.618   4.816   3.523 -1.7153 -0.9300 -2.0795
  145MOL   H17037898   1.709   4.739   3.400 -0.0453  0.8510 -0.2658
  145MOL   C17137899   1.667   4.619   3.590  0.3813  0.2978  0.3643
  145MOL   N17237900   1.765   4.511   3.559 -0.0701 -0.1812  0.0098
  145MOL   C17337901   1.803   4.427   3.657 -0.3683 -0.7217 -0.3009
  145MOL   O17437902   1.763   4.437   3.773 -0.0568  0.0013  0.1720
  145MOL   C17537903   1.907   4.321   3.631 -0.3237  0.1677 -0.3195
  145MOL   C17637904   1.521   4.569   3.573  0.1411  0.4003  0.8260
  145MOL   H17737905   1.668   4.633   3.698 -0.4319  0.2487  0.3831
  145MOL   H17837906   1.812   4.517   3.470 -0.4845  0.1883 -0.1860
  145MOL   H17937907   1.874   4.218   3.619  2.9799 -0.9840  0.0875
  145MOL   H18037908   1.950   4.335   3.532  0.2881 -3.3992 -0.6239
  145MOL   H18137909   1.982   4.309   3.709  0.7916 -0.8858 -1.5555
  145MOL   H18237910   1.507   4.555   3.466  2.1778 -0.1197  0.6175
  145MOL   H18337911   1.521   4.465   3.606  1.7997 -0.0801 -0.6344
  145MOL   C18437912   1.402   4.641   3.639  0.0106 -0.5181 -0.2338
  145MOL   N18537913   1.400   4.601   3.778 -0.3086  0.4081 -0.3430
  145MOL   C18637914   1.443   4.670   3.879 -0.2973  0.3298  0.0096
  145MOL   O18737915   1.491   4.784   3.862  0.0538 -0.0403  0.1540
  145MOL   C18837916   1.422   4.622   4.024  0.1224  0.2051 -0.3646
  145MOL   C18937917   1.261   4.604   3.582 -0.4825  0.4157  0.3327
  145MOL   H19037918   1.413   4.748   3.618  0.1252 -0.8928 -2.1490
  145MOL   H19137919   1.354   4.512   3.790  0.8088  0.0559  1.5120
  145MOL   H19237920   1.331   4.563   4.039 -0.6722  1.0596 -1.6748
  145MOL   H19337921   1.509   4.563   4.051 -0.2793 -0.0136  0.4830
  145MOL   H19437922   1.427   4.700   4.099 -1.1337 -0.4547  0.4363
  145MOL   H19537923   1.246   4.498   3.599  1.8342 -0.0206 -0.1462
  145MOL   H19637924   1.190   4.670   3.631  0.4668  1.0071  0.9242
  145MOL   C19737925   1.233   4.614   3.430  0.6854  0.3585 -0.8604
  145MOL   N19837926   1.240   4.750   3.387  0.2978 -0.9564  0.3916
  145MOL   C19937927   1.345   4.809   3.324  0.2910 -0.8286  0.0542
  145MOL   O20037928   1.457   4.764   3.314  0.5401  0.3135  0.4042
  145MOL   C20137929   1.317   4.950   3.275 -0.8062 -0.3698 -0.2505
  145MOL   C20237930   1.082   4.563   3.417 -0.6358 -0.4693  0.0526
  145MOL   H20337931   1.306   4.557   3.373  1.3107  0.3861 -0.0814
  145MOL   H20437932   1.150   4.790   3.366  0.6247 -0.1685  0.4566
  145MOL   H20537933   1.263   4.948   3.180 -3.7314 -1.3398  1.3748
  145MOL   H20637934   1.259   5.003   3.350  0.9916  3.1089 -1.2278
  145MOL   H20737935   1.415   4.995   3.286 -0.5946 -0.8723 -0.0520
  145MOL   H20837936   1.013   4.620   3.479  0.5539  1.4582 -0.3347
  145MOL   H20937937   1.046   4.609   3.325 -1.3235 -0.9868  0.0609
  145MOL   C21037938   1.054   4.409   3.418  0.2058  1.3572  0.6793
  145MOL   N21137939   1.112   4.345   3.299  1.2281 -0.4372 -0.6602
  145MOL   C21237940   1.220   4.263   3.287  0.9584 -0.3910 -0.4791
  145MOL   O21337941   1.237   4.199   3.184  0.4274 -0.1549  0.4968
  145MOL   C21437942   1.309   4.225   3.403  0.0650 -0.1207 -0.5106
  145MOL   C21537943   0.897   4.378   3.425 -0.7517  0.2135  0.8100
  145MOL   H21637944   1.095   4.370   3.511 -1.1367 -0.3939  0.5684
  145MOL   H21737945   1.063   4.362   3.212  1.7238 -0.8895 -1.0374
  145MOL   H21837946   1.382   4.147   3.381 -1.2560 -1.1488 -1.4171
  145MOL   H21937947   1.354   4.310   3.453 -0.5753 -0.5127  0.7589
  145MOL   H22037948   1.247   4.177   3.479  2.5230 -1.6615  0.5915
  145MOL   H22137949   0.855   4.453   3.493 -0.2517  1.0675  0.1806
  145MOL   H22237950   0.858   4.392   3.324 -1.0354 -1.4175  0.6811
  145MOL   C22337951   0.850   4.243   3.482 -0.1285  0.0404  0.2304
  145MOL   N22437952   0.896   4.147   3.385 -0.0797  0.2251  0.0889
  145MOL   C22537953   0.966   4.038   3.401 -0.2077 -0.1536 -0.1906
  145MOL   O22637954   0.998   3.999   3.510  0.1245  0.0516  0.3371
  145MOL   C22737955   1.006   3.961   3.281  0.0707 -0.0555 -0.3605
  145MOL   C22837956   0.697   4.225   3.486 -0.7109 -0.6060  0.0085
  145MOL   H22937957   0.893   4.226   3.580  0.8075  0.6799 -0.0622
  145MOL   H23037958   0.874   4.177   3.291 -2.6614  0.6435  0.7912
  145MOL   H23137959   0.932   3.881   3.270 -0.4573  0.4730 -0.6505
  145MOL   H23237960   1.004   4.033   3.199 -1.0395  0.1183 -0.1862
  145MOL   H23337961   1.106   3.918   3.287  0.4638  0.6735 -1.5967
  145MOL   H23437962   0.641   4.242   3.394  2.4499  1.0510 -1.7094
  145MOL   H23537963   0.673   4.123   3.517  1.4559 -0.1874  3.2812
  145MOL   C23637964   0.625   4.339   3.561 -0.6058 -0.5720 -0.4756
  145MOL   N23737965   0.677   4.355   3.697  0.0262  0.3800  0.1841
  145MOL   C23837966   0.723   4.463   3.754 -0.1627  0.2486  0.4172
  145MOL   O23937967   0.710   4.571   3.703  0.7548  0.3475  0.1253
  145MOL   C24037968   0.804   4.438   3.881 -0.9901 -0.0470  0.9366
  145MOL   C24137969   0.470   4.343   3.545 -0.0589 -0.6008  0.2433
  145MOL   H24237970   0.657   4.433   3.515 -2.2496  0.0417 -0.4088
  145MOL   H24337971   0.696   4.272   3.751  0.5205  0.6946  0.5001
  145MOL   H24437972   0.891   4.375   3.861 -1.1619  0.4224 -1.4364
  145MOL   H24537973   0.848   4.532   3.915 -1.8836  0.5372  0.5111
  145MOL   H24637974   0.731   4.389   3.946 -3.5031  1.6704 -0.4984
  145MOL   H24737975   0.438   4.445   3.570  0.5003 -0.6019  0.9489
  145MOL   H24837976   0.448   4.346   3.438 -1.4451 -0.2501  0.5214
  145MOL   C24937977   0.399   4.226   3.612 -0.6339  0.4178 -0.0454
  145MOL   N25037978   0.272   4.201   3.553 -0.0959  0.1013  0.0678
  145MOL   C25137979   0.156   4.257   3.578  0.1618 -0.2827  0.4017
  145MOL   O25237980   0.136   4.336   3.669 -0.0793 -0.0485  0.0322
  145MOL   C25337981   0.039   4.219   3.485  0.1006 -0.1827 -0.3248
  145MOL   C25437982   0.387   4.233   3.771  0.6931 -0.1714 -1.1645
  145MOL   H25537983   0.468   4.145   3.588 -0.8474 -0.0084  0.7734
  145MOL   H25637984   0.277   4.146   3.468 -2.0799  0.1423 -0.0974
  145MOL   H25737985   0.057   4.264   3.388 -1.4086 -2.1465 -1.5644
  145MOL   H25837986   0.041   4.111   3.471  1.7802 -0.1795 -0.2016
  145MOL   H25937987   7.782   4.251   3.523  0.0902 -0.5421 -0.0453
  145MOL   H26037988   0.478   4.214   3.828 -0.1242  1.2042  0.6339
  145MOL   H26137989   0.353   4.331   3.805 -1.3356 -1.3779  0.4112
  145MOL   H26237990   0.319   4.153   3.799  0.2821  0.9211  1.0674
  146MOL     C137991   4.464   6.759   2.016  0.2341  0.0997 -0.6387
  146MOL     N237992   4.519   6.890   2.048  0.8800 -0.0523  0.2885
  146MOL     C337993   4.637   6.929   2.006  0.0018  0.2932  0.4793
  146MOL     O437994   4.696   6.880   1.912 -0.7960 -0.1536 -0.3311
  146MOL     C537995   4.695   7.051   2.078  0.1055  0.4148  0.1055
  146MOL     C637996   4.414   6.671   2.135 -0.5509 -0.5118 -0.4410
  146MOL     H737997   4.374   6.790   1.962 -0.8771 -2.3565 -0.3020
  146MOL     H837998   4.462   6.946   2.110 -0.9262 -2.9335  1.3424
  146MOL     H937999   4.630   7.131   2.044 -1.8566 -0.5858  1.3821
  146MOL    H1038000   4.697   7.038   2.186 -0.2078  1.2860  0.2147
  146MOL    H1138001   4.796   7.073   2.043  0.6101 -1.1642  0.5192
  146MOL    H1238002   4.331   6.734   2.168 -1.1267 -1.5539  0.1279
  146MOL    H1338003   4.368   6.586   2.084  0.0697 -0.7514 -0.6016
  146MOL    H1438004   4.536   6.698   1.962  1.1526 -1.3416  2.1367
  146MOL    C1538005   4.512   6.614   2.239 -0.6934 -0.6801  0.1389
  146MOL    N1638006   4.485   6.476   2.277  0.6463  0.3588  0.8209
  146MOL    C1738007   4.550   6.367   2.255  0.2632  0.2364  0.0738
  146MOL    O1838008   4.513   6.261   2.313  0.3318 -0.1880 -0.6177
  146MOL    C1938009   4.667   6.354   2.154  0.7766 -0.7322  0.2405
  146MOL    C2038010   4.533   6.710   2.368 -0.3289  0.0362 -0.5643
  146MOL    H2138011   4.608   6.612   2.187 -1.0110  2.6234 -0.6985
  146MOL    H2238012   4.402   6.460   2.333 -2.0283  3.6163 -1.9597
  146MOL    H2338013   4.644   6.262   2.101 -2.9683 -0.0050  0.4892
  146MOL    H2438014   4.678   6.439   2.086  0.9674 -0.3381  0.7544
  146MOL    H2538015   4.763   6.338   2.203  1.2203  0.9009 -0.0771
  146MOL    H2638016   4.527   6.812   2.330  0.8291  0.3620  0.1252
  146MOL    H2738017   4.440   6.689   2.421 -0.8518 -0.0786 -1.5033
  146MOL    C2838018   4.654   6.673   2.460 -0.3829 -0.6087 -1.2117
  146MOL    N2938019   4.624   6.737   2.592  0.1476 -0.1569  0.7861
  146MOL    C3038020   4.625   6.682   2.714  0.0956  0.0145  0.7774
  146MOL    O3138021   4.656   6.564   2.734 -0.1276  0.1548 -0.9968
  146MOL    C3238022   4.573   6.766   2.833  0.2826  0.1540 -0.7467
  146MOL    C3338023   4.789   6.736   2.399 -0.0956  0.9725 -0.2587
  146MOL    H3438024   4.662   6.565   2.466  0.8143 -0.5182 -1.1908
  146MOL    H3538025   4.605   6.836   2.586  0.8010 -0.1749 -2.4883
  146MOL    H3638026   4.494   6.836   2.806  0.6619  1.0236  0.3512
  146MOL    H3738027   4.528   6.702   2.909  0.1401 -0.2206 -1.1496
  146MOL    H3838028   4.661   6.816   2.875 -0.2822  0.4581  0.0954
  146MOL    H3938029   4.777   6.685   2.303  3.1903 -1.0525  0.3593
  146MOL    H4038030   4.776   6.841   2.370  1.4279  0.7402 -1.8269
  146MOL    C4138031   4.931   6.706   2.456  0.1713  0.6245  0.3983
  146MOL    N4238032   4.949   6.565   2.503 -0.0922 -0.3409 -0.7190
  146MOL    C4338033   4.960   6.456   2.415 -0.4158 -0.3596  0.2403
  146MOL    O4438034   4.981   6.477   2.293  0.2567 -0.1413 -0.0607
  146MOL    C4538035   4.946   6.318   2.470  0.1272 -0.4290 -0.2845
  146MOL    C4638036   4.972   6.805   2.571  0.5221 -0.6425  0.8822
  146MOL    H4738037   5.004   6.716   2.376 -1.8286  0.4363 -1.4903
  146MOL    H4838038   4.925   6.542   2.598  1.8682 -1.0766 -0.3697
  146MOL    H4938039   4.972   6.257   2.383  0.5312 -0.5575 -0.0758
  146MOL    H5038040   5.014   6.317   2.555  0.7774 -3.4275 -0.7800
  146MOL    H5138041   4.841   6.308   2.497 -0.5048 -0.4421 -2.6240
  146MOL    H5238042   4.889   6.807   2.642  2.1472  3.3149  2.8177
  146MOL    H5338043   5.064   6.775   2.622  1.2124 -0.6223 -0.3327
  146MOL    C5438044   4.992   6.952   2.526 -0.3476 -0.4088  0.2565
  146MOL    N5538045   5.094   6.968   2.423  0.1819 -0.5616  0.1500
  146MOL    C5638046   5.103   7.072   2.335 -0.1915  0.2356  0.4052
  146MOL    O5738047   5.035   7.176   2.346 -0.1716  0.0894  0.0730
  146MOL    C5838048   5.220   7.080   2.242  0.5035 -0.0159  0.9008
  146MOL    C5938049   5.016   7.037   2.647 -0.2644 -0.7589  0.3052
  146MOL    H6038050   4.893   6.982   2.491  0.1976  0.8909 -0.1696
  146MOL    H6138051   5.173   6.905   2.426  1.1824  0.6685  0.3572
  146MOL    H6238052   5.261   6.980   2.228  0.3569  0.2265 -1.3364
  146MOL    H6338053   5.178   7.102   2.144 -1.9181 -1.9541  1.4679
  146MOL    H6438054   5.296   7.150   2.278  0.4297  0.1031  0.8229
  146MOL    H6538055   5.097   6.986   2.700  0.3184 -0.0668  0.0967
  146MOL    H6638056   5.064   7.132   2.620 -0.2725 -0.1330  2.3413
  146MOL    C6738057   4.900   7.067   2.736 -0.4478  0.9823  0.1651
  146MOL    N6838058   4.802   7.151   2.668  0.3112  0.3226  0.8368
  146MOL    C6938059   4.672   7.120   2.642 -0.6738  0.5034 -0.3074
  146MOL    O7038060   4.621   7.016   2.680  0.1955  0.4521  0.2941
  146MOL    C7138061   4.579   7.219   2.564 -0.5075 -0.2607 -0.0086
  146MOL    C7238062   4.953   7.132   2.870  0.3876 -0.1879  0.4929
  146MOL    H7338063   4.859   6.967   2.755 -0.0578  0.2649 -2.5775
  146MOL    H7438064   4.827   7.245   2.640  2.8655  0.0799  2.1269
  146MOL    H7538065   4.623   7.314   2.593  0.8577 -0.7430 -0.4759
  146MOL    H7638066   4.600   7.202   2.458 -0.1842  1.3098 -0.2092
  146MOL    H7738067   4.474   7.213   2.592 -0.6478 -0.8595 -0.6296
  146MOL    H7838068   4.880   7.106   2.947  0.9096 -0.1778  0.9877
  146MOL    H7938069   5.046   7.086   2.902  0.2445 -0.8326  0.0067
  146MOL    C8038070   4.946   7.290   2.868 -0.4324  0.3953  0.1066
  146MOL    N8138071   5.037   7.342   2.765  0.2152 -0.7590 -0.5089
  146MOL    C8238072   5.009   7.409   2.654  0.0851  0.2722 -0.1471
  146MOL    O8338073   4.897   7.427   2.607  0.3973 -0.0391 -0.6059
  146MOL    C8438074   5.127   7.446   2.568  0.0978  0.0440  0.6607
  146MOL    C8538075   4.983   7.352   3.005 -0.6201  0.4919  0.2728
  146MOL    H8638076   4.848   7.324   2.835  0.8329  1.1689 -3.0317
  146MOL    H8738077   5.131   7.351   2.801 -0.2457  0.6005  0.3723
  146MOL    H8838078   5.181   7.517   2.631  1.1511  0.9489 -1.2372
  146MOL    H8938079   5.191   7.365   2.532 -0.0536  0.5999 -0.8954
  146MOL    H9038080   5.097   7.497   2.477  1.1649  0.8039  0.7200
  146MOL    H9138081   5.082   7.314   3.031 -0.8895 -0.3491  0.0830
  146MOL    H9238082   4.990   7.459   2.987  0.9310  0.3370 -0.0826
  146MOL    C9338083   4.892   7.340   3.122  0.2325 -0.1586  0.2434
  146MOL    N9438084   4.752   7.360   3.085 -0.0313 -0.2892 -0.1767
  146MOL    C9538085   4.665   7.257   3.065  0.1368 -0.2998 -0.1007
  146MOL    O9638086   4.677   7.139   3.100  0.5505 -0.3670 -0.1114
  146MOL    C9738087   4.540   7.299   2.988 -0.0026  0.6272 -0.0837
  146MOL    C9838088   4.939   7.419   3.235 -0.4556 -0.3314  0.0983
  146MOL    H9938089   4.903   7.237   3.158  1.2943  0.0506  0.5419
  146MOL   H10038090   4.724   7.457   3.071 -0.0764 -0.1209  1.0150
  146MOL   H10138091   4.521   7.406   3.001  0.6908  0.4378  3.0317
  146MOL   H10238092   4.540   7.293   2.879  0.4636 -0.8886 -0.0176
  146MOL   H10338093   4.454   7.241   3.022 -0.2426  1.7314  1.2313
  146MOL   H10438094   5.010   7.357   3.290 -0.0029 -0.0190 -0.1184
  146MOL   H10538095   5.007   7.496   3.198  1.8322 -2.3113  0.0409
  146MOL   C10638096   4.828   7.489   3.325  0.0798 -0.1294 -0.6945
  146MOL   N10738097   4.907   7.581   3.412 -0.3383 -0.5514 -0.0212
  146MOL   C10838098   4.959   7.697   3.377  0.0866  0.1024 -0.3072
  146MOL   O10938099   4.940   7.750   3.266  0.3377 -0.0526 -0.2330
  146MOL   C11038100   5.027   7.784   3.480 -0.1873 -0.6724 -0.2503
  146MOL   C11138101   4.748   7.390   3.419  0.4010  0.9741 -0.4513
  146MOL   H11238102   4.756   7.553   3.274 -1.4238 -4.1492 -3.8825
  146MOL   H11338103   4.931   7.541   3.502 -0.0933  0.6503  0.4554
  146MOL   H11438104   4.996   7.751   3.579 -1.9244  1.4792 -0.0331
  146MOL   H11538105   5.134   7.763   3.481 -0.4708 -2.2073  0.0450
  146MOL   H11638106   5.001   0.048   3.462  0.0002 -0.7191 -0.8030
  146MOL   H11738107   4.689   7.323   3.357 -0.4096  1.4640 -0.2359
  146MOL   H11838108   4.814   7.316   3.462 -1.0394 -0.4313 -0.6197
  146MOL   C11938109   4.649   7.459   3.517 -0.1909  0.4249  0.8301
  146MOL   N12038110   4.712   7.484   3.639 -0.0352  0.2099 -0.3263
  146MOL   C12138111   4.732   7.603   3.697 -0.4958 -0.0177  0.2442
  146MOL   O12238112   4.708   7.712   3.636 -0.3615  0.8417  0.9498
  146MOL   C12338113   4.784   7.599   3.841  0.0035  0.2918  0.1183
  146MOL   C12438114   4.515   7.389   3.545  0.5936  0.5302  0.3384
  146MOL   H12538115   4.632   7.555   3.469 -3.4483 -0.1619  0.7186
  146MOL   H12638116   4.748   7.406   3.692 -1.6345 -0.7511 -0.6164
  146MOL   H12738117   4.771   7.701   3.878  0.0959  0.2742  0.1997
  146MOL   H12838118   4.720   7.529   3.895 -1.8813  3.2370  1.8250
  146MOL   H12938119   4.886   7.559   3.845 -0.1655 -0.2002 -0.3923
  146MOL   H13038120   4.544   7.289   3.578  2.0836  1.0536  0.6705
  146MOL   H13138121   4.478   7.448   3.628 -2.2986 -1.6767  0.6973
  146MOL   C13238122   4.407   7.378   3.438  0.0754 -0.6115  0.1253
  146MOL   N13338123   4.367   7.508   3.392 -0.5192 -0.0817 -0.2068
  146MOL   C13438124   4.415   7.571   3.283  0.5545  0.0396 -0.0312
  146MOL   O13538125   4.495   7.525   3.210 -0.5971 -0.3011 -0.3932
  146MOL   C13638126   4.332   7.697   3.241  0.3552  0.1589  0.2097
  146MOL   C13738127   4.289   7.311   3.498 -0.1809 -0.4955 -0.0107
  146MOL   H13838128   4.452   7.316   3.360  1.9563 -1.2349  1.6711
  146MOL   H13938129   4.296   7.556   3.445  0.9244  0.1871  1.5471
  146MOL   H14038130   4.407   7.764   3.199  0.6783 -0.3857 -0.0976
  146MOL   H14138131   4.256   7.682   3.165 -0.5673 -0.5236  1.2556
  146MOL   H14238132   4.275   7.739   3.323  0.6989 -0.7880  0.9352
  146MOL   H14338133   4.331   7.214   3.527 -3.6592 -1.5456  1.8685
  146MOL   H14438134   4.265   7.368   3.587  0.4654  0.2270 -0.2931
  146MOL   C14538135   4.162   7.272   3.415 -0.3032  0.2968  0.2856
  146MOL   N14638136   4.065   7.386   3.405 -0.1849 -0.2281 -0.1168
  146MOL   C14738137   3.996   7.450   3.504 -1.3544  0.3413  0.5285
  146MOL   O14838138   3.996   7.410   3.622 -0.1882  0.0616 -0.9569
  146MOL   C14938139   3.911   7.570   3.464 -0.1772  0.2110  0.1080
  146MOL   C15038140   4.096   7.146   3.479  0.6820 -0.8730  0.6401
  146MOL   H15138141   4.184   7.255   3.310 -1.5242 -0.0334  0.0766
  146MOL   H15238142   4.071   7.425   3.312 -2.0909 -0.1428 -0.2375
  146MOL   H15338143   3.861   7.604   3.555  0.6324  2.0377 -0.1177
  146MOL   H15438144   3.962   7.655   3.419 -1.8935  0.3264 -1.6766
  146MOL   H15538145   3.833   7.527   3.401  1.8114 -2.1219 -0.8506
  146MOL   H15638146   4.174   7.074   3.504  1.3777 -0.7155 -0.9921
  146MOL   H15738147   4.052   7.175   3.574  1.5525  0.1783  0.7297
  146MOL   C15838148   3.995   7.074   3.387 -0.7018 -0.1497  0.6234
  146MOL   N15938149   3.915   6.984   3.466  0.1284 -0.3612  0.2465
  146MOL   C16038150   3.788   7.000   3.494 -0.1733  0.1354 -0.1128
  146MOL   O16138151   3.730   7.104   3.455 -0.2870  0.0688  0.3091
  146MOL   C16238152   3.700   6.893   3.563  0.3850  0.6778  0.3645
  146MOL   C16338153   4.082   6.983   3.287  0.4383 -0.0903  0.2009
  146MOL   H16438154   3.924   7.140   3.338 -1.1336 -0.7922  0.3712
  146MOL   H16538155   3.959   6.905   3.512 -0.9941 -0.2705  1.5316
  146MOL   H16638156   3.735   6.866   3.663 -0.1200 -0.3228  0.2705
  146MOL   H16738157   3.596   6.926   3.571  0.4883  1.2408 -0.6100
  146MOL   H16838158   3.701   6.807   3.496 -1.1611  0.7758  0.1810
  146MOL   H16938159   4.144   7.051   3.229 -0.6146  0.9234  0.2342
  146MOL   H17038160   4.151   6.923   3.347  0.4072  0.0957  0.4219
  146MOL   C17138161   4.002   6.904   3.191  0.2922 -0.0128  0.2205
  146MOL   N17238162   4.092   6.819   3.114 -0.5552 -0.2404  0.3323
  146MOL   C17338163   4.050   6.732   3.019  1.1622 -0.2780  0.6983
  146MOL   O17438164   3.935   6.695   3.021 -0.3304 -0.3976 -0.5315
  146MOL   C17538165   4.156   6.682   2.918 -0.2724  0.2751  0.2295
  146MOL   C17638166   3.927   7.003   3.090 -0.5553  0.0212 -0.4512
  146MOL   H17738167   3.922   6.847   3.239  0.2297 -1.8599 -1.9900
  146MOL   H17838168   4.191   6.835   3.131  0.0132 -3.2731  0.2297
  146MOL   H17938169   4.156   6.740   2.826 -0.8061 -0.1300 -0.0282
  146MOL   H18038170   4.258   6.689   2.956  0.1065  0.3673 -0.7696
  146MOL   H18138171   4.138   6.577   2.893  0.4166  0.3011 -0.3871
  146MOL   H18238172   3.852   6.944   3.038  0.4468 -1.1585 -0.6078
  146MOL   H18338173   3.871   7.078   3.146  1.1979 -0.0574  1.4956
  146MOL   C18438174   4.005   7.069   2.976  0.0379  0.0704 -0.5645
  146MOL   N18538175   4.072   7.190   3.028 -0.4079  0.3058  0.1600
  146MOL   C18638176   4.175   7.251   2.968  0.3729 -0.6790 -0.1803
  146MOL   O18738177   4.227   7.220   2.857 -0.1977 -0.3104 -0.1738
  146MOL   C18838178   4.214   7.378   3.042 -0.1634  0.1142 -0.3233
  146MOL   C18938179   3.909   7.117   2.866 -0.2410 -0.0828 -0.6903
  146MOL   H19038180   4.080   6.997   2.942 -1.1123 -1.7674  0.6842
  146MOL   H19138181   4.030   7.242   3.103  1.2272  1.4931  0.2738
  146MOL   H19238182   4.272   7.441   2.974  2.4242 -0.7979  1.0018
  146MOL   H19338183   4.125   7.431   3.078 -0.5099 -1.4090  1.1000
  146MOL   H19438184   4.280   7.348   3.123  0.9380  3.0456 -0.0588
  146MOL   H19538185   3.807   7.109   2.904  0.1966  4.0946  1.6847
  146MOL   H19638186   3.923   7.223   2.846 -0.3982 -0.0886 -0.8247
  146MOL   C19738187   3.913   7.039   2.732 -0.0413 -0.1951 -0.2302
  146MOL   N19838188   4.052   7.052   2.677  0.0102  0.0876 -0.4193
  146MOL   C19938189   4.118   6.954   2.617  0.2387  0.4784 -0.1127
  146MOL   O20038190   4.068   6.837   2.594  0.0736 -0.0633 -0.6631
  146MOL   C20138191   4.260   6.984   2.575  0.3320 -0.6655  0.2933
  146MOL   C20238192   3.809   7.091   2.629  0.7708  0.2798  0.1977
  146MOL   H20338193   3.906   6.934   2.761 -2.1603  0.2797  1.0743
  146MOL   H20438194   4.100   7.140   2.690  1.7134 -0.6837 -1.3304
  146MOL   H20538195   4.290   7.079   2.620  0.6691  0.1064 -1.5164
  146MOL   H20638196   4.323   6.901   2.606  1.3470  0.1297  0.3780
  146MOL   H20738197   4.265   6.986   2.467  1.5779  0.4458  0.3576
  146MOL   H20838198   3.826   7.199   2.621 -0.0901  0.5981  2.3043
  146MOL   H20938199   3.834   7.048   2.532  0.5197  0.1988  0.1714
  146MOL   C21038200   3.662   7.071   2.670  0.0343  0.3579  0.2098
  146MOL   N21138201   3.648   6.936   2.714  0.3965  0.2822  0.3103
  146MOL   C21238202   3.594   6.892   2.834 -0.1195  0.8281  0.1080
  146MOL   O21338203   3.581   6.957   2.935  0.2427  0.1722 -0.0353
  146MOL   C21438204   3.567   6.742   2.839  0.6637 -0.2106  0.1488
  146MOL   C21538205   3.563   7.102   2.549 -1.1696  0.4137 -0.0324
  146MOL   H21638206   3.638   7.143   2.748 -0.2711  0.3943  0.0824
  146MOL   H21738207   3.672   6.867   2.644  1.6989  0.6333  0.4074
  146MOL   H21838208   3.643   6.693   2.899  0.8466 -0.7718 -0.5410
  146MOL   H21938209   3.469   6.722   2.883  1.2151 -0.9816  1.0544
  146MOL   H22038210   3.575   6.691   2.743  0.3265  0.3814 -0.1983
  146MOL   H22138211   3.597   7.066   2.452 -0.0103  2.4477 -0.4118
  146MOL   H22238212   3.468   7.054   2.570 -2.3885  1.9463 -1.9167
  146MOL   C22338213   3.551   7.259   2.531  1.0258 -0.0689  0.8143
  146MOL   N22438214   3.445   7.304   2.623  0.1138  0.9244 -0.5143
  146MOL   C22538215   3.459   7.374   2.736  0.1190 -0.2888  0.0218
  146MOL   O22638216   3.573   7.406   2.786 -0.1845 -0.3926 -0.4682
  146MOL   C22738217   3.332   7.429   2.801 -0.4403  0.2767  0.6932
  146MOL   C22838218   3.508   7.295   2.388  0.3103  0.1761 -0.2040
  146MOL   H22938219   3.642   7.317   2.549 -0.5483  2.6287  0.2509
  146MOL   H23038220   3.354   7.282   2.583 -0.2362 -1.6716  1.6285
  146MOL   H23138221   3.259   7.351   2.822  0.9473 -1.2900 -0.1541
  146MOL   H23238222   3.344   7.489   2.892  1.1175 -1.2860  1.5770
  146MOL   H23338223   3.284   7.495   2.729 -1.8018 -2.6259 -1.1224
  146MOL   H23438224   3.584   7.259   2.320 -0.5788 -2.4692  0.1583
  146MOL   H23538225   3.423   7.227   2.380  0.3599 -0.1256  1.6498
  146MOL   C23638226   3.467   7.444   2.372  0.3241 -0.6497  0.3791
  146MOL   N23738227   3.423   7.462   2.225  0.4183  0.1095 -0.1790
  146MOL   C23838228   3.336   7.545   2.169 -0.4913  0.0055  0.4950
  146MOL   O23938229   3.285   7.626   2.235  0.1131 -0.9501 -0.4351
  146MOL   C24038230   3.305   7.533   2.024 -0.1678  0.1791 -0.1727
  146MOL   C24138231   3.589   7.540   2.410 -0.6721 -0.0386 -0.3110
  146MOL   H24238232   3.388   7.477   2.440  0.1338  1.0727 -0.6517
  146MOL   H24338233   3.462   7.393   2.162  2.6297 -0.6353  1.9712
  146MOL   H24438234   3.388   7.503   1.960  0.0139  1.9795 -0.8193
  146MOL   H24538235   3.216   7.470   2.019 -0.1844  0.1067  0.9694
  146MOL   H24638236   3.263   7.629   1.991  0.1514 -0.2599 -1.9188
  146MOL   H24738237   3.609   7.525   2.516 -0.6345  0.1646 -0.2890
  146MOL   H24838238   3.680   7.509   2.358  0.4274 -0.4072  1.8131
  146MOL   C24938239   3.573   7.695   2.399  0.0369  0.2794  0.4379
  146MOL   N25038240   3.700   7.763   2.408  0.0248 -0.5016  0.3917
  146MOL   C25138241   3.753   7.837   2.304  0.1545 -0.4088 -0.8525
  146MOL   O25238242   3.712   7.837   2.186 -0.0505  0.3363  0.0538
  146MOL   C25338243   3.866   0.099   2.339 -0.0631  0.1334 -0.0633
  146MOL   C25438244   3.489   7.743   2.520 -0.4767  0.1027  0.0061
  146MOL   H25538245   3.526   7.720   2.304  2.4509 -1.9731 -1.4432
  146MOL   H25638246   3.735   7.776   2.502  1.0943 -2.3000  0.2833
  146MOL   H25738247   3.817   0.192   2.367 -0.2663 -0.1203  0.4234
  146MOL   H25838248   3.925   0.070   2.427  1.3747 -0.4919 -1.2059
  146MOL   H25938249   3.927   0.115   2.250 -0.5317  0.2039 -0.3689
  146MOL   H26038250   3.474   0.011   2.533  0.3502  0.2283 -0.0946
  146MOL   H26138251   3.386   7.706   2.517 -0.5722  0.3069  0.5954
  146MOL   H26238252   3.540   7.708   2.610 -0.2256 -0.2654 -0.2834
  147MOL     C138253   5.614   5.467   3.008  0.0256  0.1475  0.8468
  147MOL     N238254   5.624   5.486   3.152  0.4077 -0.1973 -0.0118
  147MOL     C338255   5.659   5.385   3.233 -0.6894 -1.0023 -0.8941
  147MOL     O438256   5.720   5.282   3.208 -0.6144  0.1452  0.3098
  147MOL     C538257   5.638   5.407   3.380  0.4496 -0.2537  0.2848
  147MOL     C638258   5.508   5.554   2.946  0.2109 -0.3520 -0.4423
  147MOL     H738259   5.711   5.485   2.960 -1.2503  1.2901 -1.3864
  147MOL     H838260   5.573   5.570   3.174 -0.3633 -0.9064  0.9501
  147MOL     H938261   5.549   5.465   3.403  0.8004  0.6968 -0.7112
  147MOL    H1038262   5.654   5.316   3.437  0.5979  0.7420  1.8462
  147MOL    H1138263   5.726   5.469   3.397  1.3798 -0.8832 -1.9722
  147MOL    H1238264   5.439   5.575   3.028  1.1095  0.3439  0.1464
  147MOL    H1338265   5.554   5.641   2.900  0.5922  0.0098  0.6022
  147MOL    H1438266   5.600   5.360   2.992  0.2154  0.5104 -2.1568
  147MOL    C1538267   5.429   5.469   2.841 -0.6906 -0.5276 -0.7895
  147MOL    N1638268   5.510   5.415   2.734  0.2717 -0.6646 -0.5023
  147MOL    C1738269   5.517   5.288   2.696  0.2278  0.0843  0.4647
  147MOL    O1838270   5.474   5.192   2.766 -0.4847  0.1647  0.3444
  147MOL    C1938271   5.591   5.266   2.565  0.3022  0.0243 -0.0739
  147MOL    C2038272   5.300   5.539   2.792  0.0424  0.4312  0.1247
  147MOL    H2138273   5.396   5.381   2.897 -0.0904  0.5482  1.3069
  147MOL    H2238274   5.543   5.487   2.671  1.1554 -0.5610  0.0666
  147MOL    H2338275   5.641   5.169   2.562 -0.3772 -0.3430  0.2580
  147MOL    H2438276   5.525   5.285   2.481  0.3051 -1.3582 -0.4087
  147MOL    H2538277   5.678   5.330   2.552 -0.1117  0.6765  0.3258
  147MOL    H2638278   5.250   5.591   2.873 -0.7566 -1.5739  0.9509
  147MOL    H2738279   5.331   5.621   2.728 -1.4686  0.7368 -0.2411
  147MOL    C2838280   5.195   5.448   2.733 -0.0895 -0.4676  0.5712
  147MOL    N2938281   5.102   5.538   2.670  0.3426 -0.5860  0.1254
  147MOL    C3038282   5.093   5.568   2.536 -0.2620  0.1328 -0.3896
  147MOL    O3138283   4.994   5.629   2.487 -0.2778 -0.2388  0.1552
  147MOL    C3238284   5.216   5.539   2.447  0.0662  0.6251 -0.7828
  147MOL    C3338285   5.127   5.351   2.834  0.3899 -0.2630  0.4985
  147MOL    H3438286   5.234   5.379   2.658 -2.6687 -2.3068  0.8514
  147MOL    H3538287   5.020   5.576   2.714  0.8502 -0.4578  0.9738
  147MOL    H3638288   5.204   5.439   2.405  2.1068 -0.6157  1.5062
  147MOL    H3738289   5.233   5.605   2.362  0.0070  0.3047 -1.0456
  147MOL    H3838290   5.304   5.538   2.511 -0.4290 -0.1206 -0.1110
  147MOL    H3938291   5.196   5.301   2.902  1.8812  2.0008  0.7127
  147MOL    H4038292   5.065   5.414   2.898 -1.3264 -2.8287  1.4127
  147MOL    C4138293   5.034   5.242   2.776 -0.5581  0.0842  0.2014
  147MOL    N4238294   4.971   5.176   2.891  0.3725 -0.0156 -0.1286
  147MOL    C4338295   4.855   5.219   2.945 -0.3756  0.2696  0.5010
  147MOL    O4438296   4.783   5.301   2.901  0.1701  0.3594  0.3877
  147MOL    C4538297   4.829   5.160   3.084  0.9094 -0.3450 -0.3043
  147MOL    C4638298   5.095   5.129   2.687 -0.3716  0.4059  1.0567
  147MOL    H4738299   4.951   5.287   2.722 -0.8015 -0.2214  0.3198
  147MOL    H4838300   5.036   5.123   2.948  0.4610  1.8609  1.5587
  147MOL    H4938301   4.920   5.115   3.124  0.9314 -0.3116 -0.3162
  147MOL    H5038302   4.805   5.237   3.157 -0.6361  0.5744 -1.7368
  147MOL    H5138303   4.750   5.085   3.085  1.2840 -0.7346  1.3674
  147MOL    H5238304   5.005   5.093   2.638  0.8713 -1.8937  0.4165
  147MOL    H5338305   5.159   5.179   2.613  0.6439 -1.3862  0.7064
  147MOL    C5438306   5.177   5.013   2.755 -0.3156  0.0663  0.0441
  147MOL    N5538307   5.259   5.057   2.862  0.0463 -0.2694 -0.1605
  147MOL    C5638308   5.239   5.046   2.994  1.0655  0.5200 -0.2074
  147MOL    O5738309   5.133   5.007   3.031 -0.7548 -0.1451 -0.2233
  147MOL    C5838310   5.344   5.100   3.094 -0.2902  0.3872 -0.4517
  147MOL    C5938311   5.260   4.924   2.655  0.4834 -0.5759  0.3308
  147MOL    H6038312   5.105   4.947   2.802  0.1558  0.0299  0.7207
  147MOL    H6138313   5.335   5.122   2.845 -0.9803  1.3634  1.2380
  147MOL    H6238314   5.383   5.038   3.174 -0.0204  0.4973 -0.4967
  147MOL    H6338315   5.427   5.141   3.036  0.3689  0.3691  0.4716
  147MOL    H6438316   5.300   5.186   3.145 -0.6445 -0.9545  1.5379
  147MOL    H6538317   5.204   4.909   2.563  1.2757  1.0670 -0.4394
  147MOL    H6638318   5.346   4.976   2.612 -0.7749  0.3093 -1.1903
  147MOL    C6738319   5.303   4.780   2.705 -0.0209 -0.2387  0.2085
  147MOL    N6838320   5.407   4.737   2.603 -0.1052  0.2979  0.0753
  147MOL    C6938321   5.527   4.701   2.625 -0.4521 -0.5643  0.0249
  147MOL    O7038322   5.578   4.698   2.736  0.4038 -0.1290  0.0902
  147MOL    C7138323   5.600   4.643   2.507  0.6222  0.5374 -0.2039
  147MOL    C7238324   5.177   4.684   2.726  0.0166  0.5724  0.0252
  147MOL    H7338325   5.356   4.787   2.801  0.9725 -1.8628 -0.2075
  147MOL    H7438326   5.377   4.716   2.509  1.9856 -0.9240 -0.3475
  147MOL    H7538327   5.667   4.564   2.543 -1.0940 -0.4331  0.9322
  147MOL    H7638328   5.530   4.580   2.452 -0.6615  0.2988  1.6656
  147MOL    H7738329   5.638   4.727   2.450 -0.0311  1.3429  0.5444
  147MOL    H7838330   5.096   4.723   2.664  2.1600  2.5600 -1.6543
  147MOL    H7938331   5.207   4.593   2.675 -1.6408  1.0399 -1.8527
  147MOL    C8038332   5.127   4.653   2.865 -0.4912  0.0444  0.2043
  147MOL    N8138333   5.022   4.743   2.917 -0.0178  0.0573 -0.5035
  147MOL    C8238334   4.895   4.734   2.870 -0.2522 -0.1048 -0.5828
  147MOL    O8338335   4.855   4.645   2.793  0.1310  0.5139 -0.2277
  147MOL    C8438336   4.804   4.851   2.911  0.0278  0.0793  0.4439
  147MOL    C8538337   5.222   4.628   2.985 -0.1880 -0.6356 -0.2223
  147MOL    H8638338   5.074   4.558   2.858  0.0412 -0.3201  1.1372
  147MOL    H8738339   5.053   4.824   2.968 -3.4000  1.2445 -0.2421
  147MOL    H8838340   4.819   4.943   2.856 -1.5011 -0.1816 -0.4491
  147MOL    H8938341   4.701   4.818   2.895 -0.9520  3.2227  0.0717
  147MOL    H9038342   4.817   4.868   3.018  0.9887 -1.9090  0.6725
  147MOL    H9138343   5.276   4.718   3.014 -2.4425 -0.3626  3.4320
  147MOL    H9238344   5.168   4.607   3.077  2.6647  0.6795  1.8090
  147MOL    C9338345   5.328   4.518   2.982 -0.3405  0.7307 -0.5638
  147MOL    N9438346   5.266   4.388   2.950 -0.2106 -0.2576  0.2867
  147MOL    C9538347   5.298   4.303   2.848  0.2323  0.3313 -0.6835
  147MOL    O9638348   5.372   4.329   2.756 -0.2047 -0.7999 -0.2587
  147MOL    C9738349   5.244   4.161   2.864  0.5514 -0.3488 -0.5304
  147MOL    C9838350   5.425   4.509   3.099 -0.1085 -0.8566  0.1008
  147MOL    H9938351   5.386   4.538   2.892  2.3926  1.4607  1.2924
  147MOL   H10038352   5.207   4.345   3.020 -0.5004  0.3947  0.4495
  147MOL   H10138353   5.317   4.084   2.839 -0.9595 -2.1188  0.4327
  147MOL   H10238354   5.211   4.128   2.962 -0.0198 -2.8216 -1.5288
  147MOL   H10338355   5.161   4.149   2.795  0.2757 -2.1033  0.1002
  147MOL   H10438356   5.367   4.474   3.184  0.8178 -0.1980  1.0099
  147MOL   H10538357   5.504   4.438   3.073  0.8044 -0.4885  1.8076
  147MOL   C10638358   5.502   4.636   3.139 -0.1036  0.5874 -0.3158
  147MOL   N10738359   5.551   4.725   3.029  0.0835  0.9359 -0.0110
  147MOL   C10838360   5.587   4.850   3.052 -0.3654  0.2783  0.2287
  147MOL   O10938361   5.562   4.907   3.156 -0.3008 -0.1990 -0.4006
  147MOL   C11038362   5.658   4.925   2.935 -0.9062  0.2124  0.6579
  147MOL   C11138363   5.615   4.610   3.237 -1.2176 -0.0833  0.1866
  147MOL   H11238364   5.425   4.691   3.192 -0.5998 -0.5137  0.1198
  147MOL   H11338365   5.564   4.691   2.935 -0.8405  2.6590 -0.7882
  147MOL   H11438366   5.587   4.937   2.854  0.0157 -0.3453 -0.2512
  147MOL   H11538367   5.691   5.023   2.969 -0.1342  0.0929  0.2682
  147MOL   H11638368   5.750   4.875   2.902 -0.5861  2.8606 -2.7248
  147MOL   H11738369   5.675   4.523   3.208  0.6621  1.3791 -0.4622
  147MOL   H11838370   5.697   4.680   3.223 -0.1219 -1.5414 -0.8428
  147MOL   C11938371   5.569   4.617   3.381 -0.3406  0.5261 -0.7387
  147MOL   N12038372   5.552   4.763   3.411  0.8756  0.2340  0.2068
  147MOL   C12138373   5.505   4.821   3.524 -0.0822  0.1771 -0.5444
  147MOL   O12238374   5.482   4.758   3.632 -0.1297  0.4495  0.4397
  147MOL   C12338375   5.472   4.967   3.505  1.0151 -1.5050  0.3870
  147MOL   C12438376   5.669   4.541   3.471 -0.0245 -0.2939  0.3456
  147MOL   H12538377   5.470   4.574   3.395  0.9391 -1.9671  1.0596
  147MOL   H12638378   5.551   4.822   3.329 -1.1104 -1.8471 -1.3370
  147MOL   H12738379   5.390   4.997   3.570 -1.4773 -0.0385 -3.2149
  147MOL   H12838380   5.555   5.034   3.529  0.3261  0.0204 -1.3351
  147MOL   H12938381   5.433   4.983   3.404  0.6327  0.0760  0.7743
  147MOL   H13038382   5.765   4.593   3.467  0.4596 -1.0444  1.9210
  147MOL   H13138383   5.642   4.549   3.576 -1.0557 -0.7519  0.1264
  147MOL   C13238384   5.690   4.390   3.438  0.0165 -0.2360 -0.3084
  147MOL   N13338385   5.550   4.338   3.421  0.7835 -0.0928 -0.1047
  147MOL   C13438386   5.460   4.319   3.517 -0.7018 -0.3257  0.3649
  147MOL   O13538387   5.473   4.331   3.639  0.4921 -0.0871  0.5059
  147MOL   C13638388   5.322   4.263   3.473 -0.5877  0.1486  0.5831
  147MOL   C13738389   5.779   4.316   3.532  0.2407  0.0868  1.1118
  147MOL   H13838390   5.745   4.396   3.344  1.0258 -1.0089  0.2343
  147MOL   H13938391   5.536   4.290   3.333  1.0490 -0.4170  0.0273
  147MOL   H14038392   5.298   4.185   3.546 -0.1910 -0.7216 -0.2053
  147MOL   H14138393   5.252   4.346   3.476 -0.2999  0.3276  3.6460
  147MOL   H14238394   5.323   4.215   3.375 -0.7577 -0.1448  0.7235
  147MOL   H14338395   5.877   4.364   3.529 -0.0954  0.7513  0.5313
  147MOL   H14438396   5.745   4.302   3.635  3.4516 -3.0253  1.8345
  147MOL   C14538397   5.813   4.175   3.474  0.1446 -0.4744  0.1878
  147MOL   N14638398   5.879   4.092   3.576  0.0052  0.2508 -0.0520
  147MOL   C14738399   5.888   3.959   3.586 -0.2615  0.0328 -0.4318
  147MOL   O14838400   5.855   3.878   3.495 -0.3093 -0.5804  0.2370
  147MOL   C14938401   5.928   3.903   3.717  0.3136  0.1196  0.1790
  147MOL   C15038402   5.890   4.167   3.336  0.3895 -0.3024 -0.2993
  147MOL   H15138403   5.714   4.137   3.452 -1.1067  2.7315 -0.0815
  147MOL   H15238404   5.914   4.153   3.648 -0.9183  2.6161 -1.5784
  147MOL   H15338405   5.855   3.831   3.754 -0.4832  1.2214  0.7610
  147MOL   H15438406   6.023   3.850   3.705  0.5479  0.3340  1.0954
  147MOL   H15538407   5.943   3.976   3.796 -1.1654  1.9646 -1.2277
  147MOL   H15638408   5.947   4.260   3.339  0.0272 -0.1043  3.3704
  147MOL   H15738409   5.963   4.089   3.357  1.0069  0.4573  0.4424
  147MOL   C15838410   5.806   4.126   3.210 -0.5882 -0.2182 -0.6360
  147MOL   N15938411   5.721   4.010   3.248 -0.2304  0.3105  0.4710
  147MOL   C16038412   5.592   4.015   3.253  0.2653  0.5928 -0.1845
  147MOL   O16138413   5.525   4.100   3.194 -0.7110  0.5750  0.7896
  147MOL   C16238414   5.519   3.909   3.341  0.2374 -0.2756 -0.1027
  147MOL   C16338415   5.893   4.080   3.087  0.2321  0.7170  0.1606
  147MOL   H16438416   5.745   4.212   3.185 -0.8277 -0.4153 -0.7374
  147MOL   H16538417   5.780   3.939   3.291  2.7275  3.4348  1.8028
  147MOL   H16638418   5.439   3.957   3.397  0.7312 -0.6516  0.9527
  147MOL   H16738419   5.473   3.832   3.279 -2.1348  0.8445  0.2209
  147MOL   H16838420   5.590   3.871   3.415  2.5526 -0.4190 -2.2965
  147MOL   H16938421   5.957   3.994   3.106 -0.4138  0.1451 -0.2120
  147MOL   H17038422   5.818   4.042   3.017 -0.9068  1.3378  1.0133
  147MOL   C17138423   5.976   4.185   3.012  0.6575  0.1548  0.1137
  147MOL   N17238424   5.891   4.270   2.932 -0.0312 -0.2523  0.1712
  147MOL   C17338425   5.849   4.391   2.954 -0.5624  0.4379 -0.5581
  147MOL   O17438426   5.867   4.447   3.060 -0.3406  0.1748  0.2562
  147MOL   C17538427   5.767   4.461   2.844  0.7289  0.1089 -0.6338
  147MOL   C17638428   6.076   4.121   2.911 -0.9148  0.1945 -0.1974
  147MOL   H17738429   6.025   4.243   3.090 -1.3874  0.9876  0.8069
  147MOL   H17838430   5.868   4.232   2.841  1.1879  3.1907 -1.6492
  147MOL   H17938431   5.665   4.421   2.840  0.2045  1.0171  2.6997
  147MOL   H18038432   5.762   4.569   2.852  1.7800  0.0914  0.2794
  147MOL   H18138433   5.810   4.442   2.745  1.4086 -0.6244 -0.2046
  147MOL   H18238434   6.015   4.046   2.860 -0.9575  0.0904  0.0062
  147MOL   H18338435   6.121   4.193   2.843  0.9513 -0.6420  0.1316
  147MOL   C18438436   6.204   4.053   2.959 -0.1666  0.8469 -0.9695
  147MOL   N18538437   6.297   4.158   3.009  0.4390  0.1822 -0.1740
  147MOL   C18638438   6.305   4.202   3.138  0.8436 -0.2663  0.1856
  147MOL   O18738439   6.229   4.162   3.230 -0.7499  0.0845  0.2636
  147MOL   C18838440   6.406   4.313   3.170  1.2733  0.2041  0.2298
  147MOL   C18938441   6.286   3.971   2.858 -0.7044 -0.3558  0.0015
  147MOL   H19038442   6.176   3.993   3.046 -1.1394  1.3496 -0.9321
  147MOL   H19138443   6.364   4.193   2.942  0.5733  0.3318  0.0371
  147MOL   H19238444   6.474   4.264   3.240 -0.5924 -0.7289  1.4460
  147MOL   H19338445   6.454   4.340   3.076  2.9213 -1.0702  0.6697
  147MOL   H19438446   6.353   4.395   3.217  1.2093 -1.0724  2.4462
  147MOL   H19538447   6.221   3.899   2.808 -1.8106 -0.0307  0.9438
  147MOL   H19638448   6.307   4.038   2.774  1.9132 -2.3051 -0.9548
  147MOL   C19738449   6.414   3.894   2.905  0.0870 -0.5079 -0.0436
  147MOL   N19838450   6.494   3.849   2.794  0.3145 -1.0494  0.1641
  147MOL   C19938451   6.626   3.827   2.797 -0.4080  0.3501 -0.1166
  147MOL   O20038452   6.684   3.798   2.906  0.1202  0.0229  0.2719
  147MOL   C20138453   6.704   3.841   2.666 -0.7912 -0.6277 -0.0478
  147MOL   C20238454   6.381   3.785   3.007 -0.2723 -0.1763  0.2355
  147MOL   H20338455   6.482   3.970   2.943 -2.1113  0.8186  1.3233
  147MOL   H20438456   6.449   3.859   2.704 -0.5448  0.1860  0.7103
  147MOL   H20538457   6.654   3.775   2.596 -0.4456 -1.7713  0.7631
  147MOL   H20638458   6.691   3.947   2.643  2.1424 -0.2402 -0.1332
  147MOL   H20738459   6.807   3.806   2.672 -0.8134 -0.6058  0.4984
  147MOL   H20838460   6.279   3.749   2.992 -1.2387  2.4152  0.4094
  147MOL   H20938461   6.450   3.701   3.006 -0.8223 -0.6315 -0.0025
  147MOL   C21038462   6.405   3.834   3.147 -0.1647 -0.2073 -0.0105
  147MOL   N21138463   6.551   3.841   3.170 -0.1951  0.9916 -0.0273
  147MOL   C21238464   6.607   3.936   3.249  0.4853 -0.6001  0.8082
  147MOL   O21338465   6.542   4.012   3.322  0.1483 -0.3609 -0.2853
  147MOL   C21438466   6.760   3.941   3.235  0.3583  0.2192  0.2879
  147MOL   C21538467   6.335   3.738   3.244 -0.5950  0.1567  0.0650
  147MOL   H21638468   6.366   3.934   3.168 -1.2974 -1.4176  4.1708
  147MOL   H21738469   6.612   3.800   3.101  0.2294  2.1232 -0.3382
  147MOL   H21838470   6.809   3.891   3.319 -1.2971  0.3503  1.3480
  147MOL   H21938471   6.810   3.911   3.143 -2.1109 -3.4149  0.0312
  147MOL   H22038472   6.789   4.046   3.235 -0.8816  0.5696  0.0874
  147MOL   H22138473   6.332   3.639   3.199 -0.1389  0.7033 -1.2207
  147MOL   H22238474   6.405   3.726   3.327  2.1812  1.2102 -2.0335
  147MOL   C22338475   6.199   3.787   3.304 -0.0801 -1.2411 -0.6486
  147MOL   N22438476   6.213   3.892   3.402 -0.2244 -0.3078  0.0766
  147MOL   C22538477   6.268   3.882   3.520 -0.4361 -0.2303 -0.3156
  147MOL   O22638478   6.335   3.786   3.564 -0.3326 -0.1985  0.7004
  147MOL   C22738479   6.245   3.994   3.610 -0.3158 -0.4702  0.0624
  147MOL   C22838480   6.116   3.671   3.351  0.0093  0.4436  0.5335
  147MOL   H22938481   6.140   3.844   3.232  0.2204  1.0085  0.8590
  147MOL   H23038482   6.167   3.980   3.386  1.1860  0.0509 -2.0080
  147MOL   H23138483   6.215   3.952   3.706 -0.8751  2.5090  1.2312
  147MOL   H23238484   6.343   4.041   3.618 -0.0655 -0.5064 -2.3406
  147MOL   H23338485   6.185   4.081   3.584  0.5914 -0.2540 -1.3389
  147MOL   H23438486   6.182   3.606   3.408 -1.4381 -0.1113  1.5944
  147MOL   H23538487   6.033   3.709   3.411  0.7118 -1.6245  2.8538
  147MOL   C23638488   6.069   3.596   3.223 -0.4706  0.2956  0.4814
  147MOL   N23738489   5.934   3.621   3.186  0.0737 -1.1201  0.1034
  147MOL   C23838490   5.894   3.694   3.081 -0.2152 -0.0352 -0.1849
  147MOL   O23938491   5.974   3.743   3.002 -0.5637 -0.1346 -0.0410
  147MOL   C24038492   5.744   3.714   3.059  0.0921  0.6185  0.9416
  147MOL   C24138493   6.068   3.438   3.241 -0.8073 -0.7808 -0.1518
  147MOL   H24238494   6.129   3.619   3.135  0.0509 -0.8643  0.5280
  147MOL   H24338495   5.860   3.600   3.253 -0.0686  0.5500  0.4931
  147MOL   H24438496   5.694   3.725   3.155  1.5021  0.7732  1.6782
  147MOL   H24538497   5.730   3.794   2.986  0.3798  0.5127  0.7688
  147MOL   H24638498   5.699   3.626   3.013  1.7312  0.3232 -0.1298
  147MOL   H24738499   6.075   3.418   3.348 -0.4161  2.2140  0.4393
  147MOL   H24838500   5.972   3.393   3.215 -1.0410 -0.0791 -0.5215
  147MOL   C24938501   6.186   3.376   3.162 -0.1164 -0.2070 -0.1966
  147MOL   N25038502   6.168   3.386   3.016  0.2463  0.5167  0.6319
  147MOL   C25138503   6.264   3.370   2.919 -0.1368  0.4460 -0.2133
  147MOL   O25238504   6.378   3.353   2.951 -0.4294 -0.2633 -0.1914
  147MOL   C25338505   6.231   3.362   2.768  0.3837 -0.1915 -0.4703
  147MOL   C25438506   6.193   3.225   3.198 -0.0906  0.4775  0.8839
  147MOL   H25538507   6.287   3.416   3.173  1.0284 -3.0841  0.2899
  147MOL   H25638508   6.074   3.394   2.979  0.4368 -0.3639 -0.0656
  147MOL   H25738509   6.170   3.442   2.726 -3.1799 -2.4170  0.2696
  147MOL   H25838510   6.324   3.356   2.711 -0.1407 -2.3213 -1.1625
  147MOL   H25938511   6.176   3.272   2.741 -1.1752  0.9153 -1.0722
  147MOL   H26038512   6.193   3.207   3.306 -0.8685 -2.5126  0.4200
  147MOL   H26138513   6.103   3.176   3.162  1.2216 -0.2360 -1.4639
  147MOL   H26238514   6.277   3.174   3.153  0.6827  1.6184  1.0020
  148MOL     C138515   2.957   7.411   6.092  0.3203 -0.1619  0.1942
  148MOL     N238516   3.092   7.410   6.133 -0.3438 -0.1453 -0.2329
  148MOL     C338517   3.147   7.332   6.225  0.1818 -0.2466  0.2579
  148MOL     O438518   3.089   7.257   6.293 -0.5262  1.0310  0.2063
  148MOL     C538519   3.300   7.331   6.239  0.6823 -0.0555 -0.7300
  148MOL     C638520   2.929   7.415   5.939  0.3224 -0.1517  0.6667
  148MOL     H738521   2.895   7.335   6.140  0.1714  0.9938  1.8503
  148MOL     H838522   3.148   7.470   6.075 -0.8947 -0.2290 -0.8529
  148MOL     H938523   3.319   7.260   6.319  1.8130  2.3159  1.1576
  148MOL    H1038524   3.334   7.305   6.139  1.4682  0.8371 -0.6953
  148MOL    H1138525   3.350   7.427   6.252  0.7221 -0.0985 -0.5765
  148MOL    H1238526   2.965   7.505   5.890  0.5522  0.0341  1.1749
  148MOL    H1338527   2.970   7.332   5.881  1.0118  0.6261  0.0244
  148MOL    H1438528   2.907   7.495   6.138 -0.7422 -0.0527 -1.1212
  148MOL    C1538529   2.776   7.400   5.925  0.0758  0.0527  0.5867
  148MOL    N1638530   2.744   7.263   5.963  0.0229 -0.2794 -0.2108
  148MOL    C1738531   2.660   7.226   6.059  0.4626  0.3628  0.1444
  148MOL    O1838532   2.587   7.311   6.110  0.2175  0.6720 -0.5274
  148MOL    C1938533   2.651   7.076   6.081 -0.1439 -0.4495 -0.4663
  148MOL    C2038534   2.719   7.419   5.778 -0.1705  0.0017 -0.2954
  148MOL    H2138535   2.737   7.476   5.992  2.7406 -1.3397  3.8259
  148MOL    H2238536   2.806   7.192   5.929 -1.4262 -2.6572  1.9251
  148MOL    H2338537   2.612   7.034   5.988 -0.9003 -1.7803  0.4409
  148MOL    H2438538   2.745   7.034   6.116 -1.0216 -0.9717  1.3473
  148MOL    H2538539   2.593   7.059   6.172  0.0425 -0.1481 -0.2923
  148MOL    H2638540   2.790   7.379   5.705  0.7250 -1.1309  1.1642
  148MOL    H2738541   2.630   7.359   5.763 -1.5861  1.2101  2.7651
  148MOL    C2838542   2.692   7.564   5.750  0.0584 -0.0401  0.2706
  148MOL    N2938543   2.582   7.611   5.834 -0.5193  0.1839  0.5031
  148MOL    C3038544   2.457   7.573   5.825  0.9516  0.5822 -0.5133
  148MOL    O3138545   2.426   7.474   5.756  0.6338  0.0443 -0.2255
  148MOL    C3238546   2.355   7.651   5.911 -0.2768  0.0053 -0.6963
  148MOL    C3338547   2.676   7.598   5.605  0.3429  0.3428  0.0305
  148MOL    H3438548   2.778   7.615   5.793 -1.0104 -0.1857  2.6603
  148MOL    H3538549   2.597   7.682   5.905  2.1429 -1.6692  1.9057
  148MOL    H3638550   2.282   7.579   5.947  1.5868 -2.1204 -1.0067
  148MOL    H3738551   2.405   7.676   6.005  0.4965  0.3848 -1.2004
  148MOL    H3838552   2.317   7.737   5.857  1.4735  1.9883  1.0972
  148MOL    H3938553   2.768   7.568   5.553 -0.6585  0.7878 -2.0603
  148MOL    H4038554   2.602   7.532   5.561  0.2446  0.6264 -0.2279
  148MOL    C4138555   2.641   7.747   5.575 -0.2515 -0.1555 -0.0411
  148MOL    N4238556   2.609   7.766   5.435 -0.4823 -1.2706  0.3137
  148MOL    C4338557   2.488   7.756   5.376  0.6042 -0.1194 -0.3415
  148MOL    O4438558   2.380   7.746   5.432 -0.1302 -0.1525 -0.4274
  148MOL    C4538559   2.485   7.749   5.217  0.0289  0.3781 -0.2154
  148MOL    C4638560   2.747   7.839   5.620 -0.4560 -0.2756  0.1119
  148MOL    H4738561   2.548   7.769   5.626  0.1037 -1.6076  1.2662
  148MOL    H4838562   2.689   7.777   5.374  0.3222 -0.7756  1.4309
  148MOL    H4938563   2.405   7.683   5.182  1.0805 -1.0489  0.0308
  148MOL    H5038564   2.476   0.015   5.192  1.0801  1.0131  1.9221
  148MOL    H5138565   2.569   7.712   5.160  1.3776 -0.0847  2.0148
  148MOL    H5238566   2.765   7.829   5.727 -1.9463 -0.7671  0.3297
  148MOL    H5338567   2.836   7.816   5.562 -0.7534 -1.0317 -0.0463
  148MOL    C5438568   2.720   0.148   5.594 -0.6119  0.1044  0.1409
  148MOL    N5538569   2.848   0.217   5.611  0.0988  0.3245  1.0184
  148MOL    C5638570   2.891   0.337   5.568 -0.1772  0.2728  0.2311
  148MOL    O5738571   2.825   0.404   5.494  0.1379  0.4233  0.0275
  148MOL    C5838572   3.039   0.380   5.585 -0.2798 -0.1073  0.3020
  148MOL    C5938573   2.609   0.215   5.681  0.3261 -0.6073  0.4931
  148MOL    H6038574   2.681   0.171   5.495  1.0642  1.5231 -0.2225
  148MOL    H6138575   2.916   0.169   5.669 -1.0514 -2.4370  0.1443
  148MOL    H6238576   3.065   0.418   5.684 -4.4600  1.1560  1.0110
  148MOL    H6338577   3.102   0.292   5.571  0.4458  0.4814 -0.1885
  148MOL    H6438578   3.069   0.450   5.507 -1.7387  0.0490 -0.1378
  148MOL    H6538579   2.566   0.295   5.620 -0.3327  0.3189  2.1439
  148MOL    H6638580   2.525   0.145   5.689 -0.3235 -0.2017 -2.2242
  148MOL    C6738581   2.641   0.255   5.822  0.2689  0.3861 -0.1947
  148MOL    N6838582   2.526   0.228   5.909 -0.0603  0.0129  0.2672
  148MOL    C6938583   2.515   0.115   5.979  0.2608  0.3897  0.1651
  148MOL    O7038584   2.592   0.023   5.968 -0.1167  0.2056  0.0231
  148MOL    C7138585   2.414   0.112   6.085 -0.4783  0.2586  0.1951
  148MOL    C7238586   2.665   0.407   5.849  0.4071 -0.2556  0.1610
  148MOL    H7338587   2.727   0.197   5.858 -0.0017  0.9487  1.4391
  148MOL    H7438588   2.468   0.307   5.937  0.4939  0.1377  1.0797
  148MOL    H7538589   2.411   0.212   6.129 -0.5079  0.0795  0.6110
  148MOL    H7638590   2.318   0.087   6.040  0.0341 -0.2058 -0.6499
  148MOL    H7738591   2.434   0.028   6.152  0.7988  1.1985  1.0254
  148MOL    H7838592   2.737   0.429   5.770  0.9717  2.4239  1.3630
  148MOL    H7938593   2.576   0.465   5.824  0.7209  0.7784  1.3804
  148MOL    C8038594   2.728   0.455   5.978 -0.5763  0.2814 -0.0269
  148MOL    N8138595   2.697   0.595   6.000 -0.7157  0.2319  0.4472
  148MOL    C8238596   2.595   0.639   6.079 -0.6824  0.1082 -0.9965
  148MOL    O8338597   2.532   0.571   6.160 -0.0287 -0.0616  0.0715
  148MOL    C8438598   2.553   0.779   6.064  0.1374  0.1057 -0.2385
  148MOL    C8538599   2.869   0.422   5.998 -0.1361  0.1455  0.0743
  148MOL    H8638600   2.678   0.401   6.058  0.3708  0.1073  0.4530
  148MOL    H8738601   2.745   0.661   5.942 -0.6343 -0.4494 -0.2613
  148MOL    H8838602   2.633   0.847   6.033  1.5667 -1.2328  0.4502
  148MOL    H8938603   2.470   0.787   5.994 -1.4796  1.4154  1.7729
  148MOL    H9038604   2.522   0.832   6.154 -0.4173 -0.8695  0.1507
  148MOL    H9138605   2.897   0.339   5.934  1.1833  1.2919 -0.8801
  148MOL    H9238606   2.934   0.506   5.970  1.4935 -0.5864  1.5183
  148MOL    C9338607   2.907   0.378   6.142  0.0908  0.4325  0.1581
  148MOL    N9438608   2.888   0.488   6.243 -0.4491  0.5315 -0.0140
  148MOL    C9538609   2.942   0.608   6.259  0.2720  0.7701 -0.3104
  148MOL    O9638610   3.011   0.668   6.180  0.8455  0.1868 -0.1882
  148MOL    C9738611   2.913   0.674   6.396 -0.4610 -0.4526 -0.4998
  148MOL    C9838612   3.058   0.340   6.156  0.6911 -0.0267  0.1881
  148MOL    H9938613   2.847   0.294   6.178  0.7144  0.5062  1.4320
  148MOL   H10038614   2.847   0.441   6.322 -0.1006 -2.1624 -1.3813
  148MOL   H10138615   2.954   0.773   6.408 -1.0380 -0.1218 -1.1848
  148MOL   H10238616   2.805   0.674   6.410 -0.4852 -1.2110 -0.6127
  148MOL   H10338617   2.956   0.616   6.478 -0.9582  1.7365  1.3260
  148MOL   H10438618   3.103   0.428   6.111  1.6592 -1.3797 -1.5628
  148MOL   H10538619   3.080   0.331   6.262  2.0001 -1.3649 -0.1837
  148MOL   C10638620   3.104   0.206   6.087  0.2045 -0.7256 -0.4237
  148MOL   N10738621   3.010   0.098   6.112 -0.3687 -0.2625 -0.6113
  148MOL   C10838622   2.939   0.043   6.016 -0.5963  0.1009  0.2207
  148MOL   O10938623   2.945   0.065   5.894  0.0049  0.1737 -0.3093
  148MOL   C11038624   2.854   7.776   6.063  1.0142 -0.3317  0.0256
  148MOL   C11138625   3.245   0.159   6.123 -1.2115  0.1116 -0.0650
  148MOL   H11238626   3.115   0.225   5.980  1.0108 -1.5262 -0.4796
  148MOL   H11338627   3.008   0.051   6.201 -0.1020  0.4936 -0.2031
  148MOL   H11438628   2.912   7.704   6.120  1.0262  0.1111  0.5802
  148MOL   H11538629   2.779   7.816   6.132  0.5530  2.2043 -1.8871
  148MOL   H11638630   2.816   7.724   5.975  1.3118  0.3469 -0.5108
  148MOL   H11738631   3.271   0.163   6.229  1.3434 -0.8244 -0.5995
  148MOL   H11838632   3.243   0.050   6.118 -1.6702  0.1012  0.3227
  148MOL   C11938633   3.354   0.217   6.043 -0.2696  0.2924  0.2499
  148MOL   N12038634   3.367   0.365   6.063  0.0532  0.0794  0.4711
  148MOL   C12138635   3.397   0.418   6.189 -0.1800 -0.9104  0.4167
  148MOL   O12238636   3.425   0.362   6.293  0.0978  0.4327 -0.1311
  148MOL   C12338637   3.395   0.573   6.191  0.3319  0.4784  0.2866
  148MOL   C12438638   3.348   0.183   5.892  0.2979 -0.2832  0.1774
  148MOL   H12538639   3.440   0.172   6.094 -0.6660 -0.1673  0.5169
  148MOL   H12638640   3.352   0.427   5.984  2.5778  1.0052  0.6599
  148MOL   H12738641   3.432   0.625   6.103  0.0808  0.2753  0.0609
  148MOL   H12838642   3.294   0.613   6.203  0.4466  0.6530  0.6867
  148MOL   H12938643   3.451   0.603   6.280 -0.7147  1.1579  0.7261
  148MOL   H13038644   3.280   0.246   5.835  0.4565 -0.5994 -0.3626
  148MOL   H13138645   3.442   0.220   5.850  1.5206 -4.1142 -0.6490
  148MOL   C13238646   3.344   0.032   5.852  0.4848 -0.1784 -0.1474
  148MOL   N13338647   3.439   7.789   5.926 -0.2595  0.8228  0.8861
  148MOL   C13438648   3.410   7.681   5.996 -0.0003 -0.2441 -0.3590
  148MOL   O13538649   3.297   7.623   5.996 -0.0335 -0.2351 -0.6016
  148MOL   C13638650   3.525   7.629   6.086 -0.6724 -0.2576  0.7482
  148MOL   C13738651   3.356   0.014   5.700  0.5993 -0.5630 -0.3951
  148MOL   H13838652   3.242   7.839   5.871  0.5475 -0.1674  0.2055
  148MOL   H13938653   3.531   7.828   5.938  0.4128 -0.8034  1.2085
  148MOL   H14038654   3.498   7.539   6.142 -4.9096  0.6374  0.3125
  148MOL   H14138655   3.602   7.595   6.017  0.5104  1.4928  1.1820
  148MOL   H14238656   3.554   7.712   6.149 -2.3449  0.1829  0.9685
  148MOL   H14338657   3.281   0.080   5.657  1.1074 -0.9322 -1.8819
  148MOL   H14438658   3.451   0.063   5.677 -1.6111  2.3661 -3.7244
  148MOL   C14538659   3.342   7.706   5.641 -0.0539 -0.1048  0.0465
  148MOL   N14638660   3.427   7.705   5.526  0.3434 -0.0891  0.3673
  148MOL   C14738661   3.514   7.606   5.494 -0.3552 -0.0790 -1.3270
  148MOL   O14838662   3.531   7.511   5.576 -1.0683 -0.3107  0.4189
  148MOL   C14938663   3.603   7.624   5.370 -0.6197 -0.0087 -0.4708
  148MOL   C15038664   3.200   7.652   5.617  0.0417 -0.9155  0.6754
  148MOL   H15138665   3.387   7.639   5.715  0.6125  0.5858  0.2863
  148MOL   H15238666   3.401   7.757   5.444  0.3955 -0.4376  0.1286
  148MOL   H15338667   3.677   7.698   5.398  0.1398 -0.4654 -1.2347
  148MOL   H15438668   3.652   7.531   5.340 -0.1041 -1.3052  4.1097
  148MOL   H15538669   3.535   7.663   5.294 -0.0379  1.9606  0.0054
  148MOL   H15638670   3.155   7.660   5.716  0.7359  0.2697  0.9188
  148MOL   H15738671   3.158   7.726   5.548 -0.6538  0.4925  2.5633
  148MOL   C15838672   3.173   7.511   5.563 -0.0994  0.0401  0.1084
  148MOL   N15938673   3.267   7.423   5.625 -0.3320  0.0747  0.4734
  148MOL   C16038674   3.246   7.311   5.700  0.0851  0.3246  0.5663
  148MOL   O16138675   3.128   7.274   5.728  0.3365  0.2755  0.2612
  148MOL   C16238676   3.367   7.249   5.760 -0.2268 -0.3654  0.1160
  148MOL   C16338677   3.182   7.499   5.406  0.5040 -0.5892  0.1934
  148MOL   H16438678   3.072   7.481   5.592 -0.3761  1.2799  0.4557
  148MOL   H16538679   3.364   7.453   5.627 -1.0287  2.4133  0.9390
  148MOL   H16638680   3.393   7.310   5.847 -0.4705 -0.2405  0.0999
  148MOL   H16738681   3.345   7.152   5.805 -0.3451  0.9610  3.0407
  148MOL   H16838682   3.446   7.246   5.685  0.4964 -2.8927  0.9189
  148MOL   H16938683   3.271   7.548   5.366  1.2899 -1.0500  1.3588
  148MOL   H17038684   3.176   7.392   5.384 -0.4970  0.1493 -3.5699
  148MOL   C17138685   3.067   7.565   5.330 -0.2624  0.1211 -0.2552
  148MOL   N17238686   2.950   7.479   5.340 -0.2204 -0.3162 -0.0103
  148MOL   C17338687   2.828   7.521   5.303 -0.1340  1.3892 -0.0751
  148MOL   O17438688   2.810   7.645   5.287 -0.2302  0.5448  0.4978
  148MOL   C17538689   2.717   7.418   5.323  0.4329 -0.9703 -0.3873
  148MOL   C17638690   3.104   7.591   5.177 -0.0788 -0.2645  0.3254
  148MOL   H17738691   3.047   7.658   5.384 -0.3653  1.1865 -2.0877
  148MOL   H17838692   2.965   7.382   5.366  1.8967 -0.8944 -3.0942
  148MOL   H17938693   2.706   7.336   5.251  2.3310  0.1275 -1.9679
  148MOL   H18038694   2.721   7.376   5.423 -4.6260 -1.4963 -0.2643
  148MOL   H18138695   2.619   7.463   5.312  0.4390 -1.2959 -1.9910
  148MOL   H18238696   3.148   7.498   5.142  2.3572  0.6314  0.8859
  148MOL   H18338697   3.020   7.616   5.112 -0.6425  0.0029  1.1426
  148MOL   C18438698   3.213   7.704   5.149  0.2906 -0.2682 -0.1994
  148MOL   N18538699   3.171   7.835   5.197  0.0094  0.0149  0.6074
  148MOL   C18638700   3.240   0.086   5.272 -0.4689  0.2289 -0.0030
  148MOL   O18738701   3.341   0.064   5.346  0.5768  0.3577 -0.2881
  148MOL   C18838702   3.178   0.228   5.271 -0.4856  0.2636  0.9758
  148MOL   C18938703   3.236   7.708   4.999  0.0512  0.2341  0.4148
  148MOL   H19038704   3.307   7.674   5.196  0.1955 -0.9504 -0.4355
  148MOL   H19138705   3.089   0.032   5.153  1.4201  3.4437  0.6292
  148MOL   H19238706   3.079   0.237   5.317  0.2878  0.9551  2.5393
  148MOL   H19338707   3.251   0.285   5.329  0.1363  0.0982  0.3492
  148MOL   H19438708   3.180   0.263   5.168 -0.0051  0.3270  1.0039
  148MOL   H19538709   3.222   7.607   4.961 -1.3433  0.9106 -0.9013
  148MOL   H19638710   3.170   7.779   4.950 -0.6907  0.0853  1.1895
  148MOL   C19738711   3.391   7.735   4.957 -0.1714 -0.4720  0.5123
  148MOL   N19838712   3.414   0.038   4.970  0.1549  0.0335  0.0067
  148MOL   C19938713   3.527   0.096   5.024 -0.9194 -0.1380  0.3644
  148MOL   O20038714   3.621   0.041   5.077  0.1261 -0.0282  0.1298
  148MOL   C20138715   3.524   0.247   5.031 -1.0117  0.3749  0.0029
  148MOL   C20238716   3.434   7.683   4.818  0.3677  0.2508 -0.3509
  148MOL   H20338717   3.438   7.674   5.035 -0.1195 -1.3962 -0.2358
  148MOL   H20438718   3.345   0.101   4.932 -0.2512 -0.1253  0.4762
  148MOL   H20538719   3.423   0.279   5.056 -1.0617  0.6467 -0.5498
  148MOL   H20638720   3.594   0.288   5.104 -0.9507 -0.6874  0.5558
  148MOL   H20738721   3.542   0.286   4.931 -0.8692  2.3837  0.7751
  148MOL   H20838722   3.375   7.736   4.744 -0.9347 -0.6748  0.0052
  148MOL   H20938723   3.532   7.725   4.797 -0.0057  0.9008 -0.8274
  148MOL   C21038724   3.415   7.528   4.797  0.2523 -0.7407 -0.6154
  148MOL   N21138725   3.512   7.457   4.874 -0.0276  0.3408 -0.3266
  148MOL   C21238726   3.500   7.411   4.999 -0.9652 -0.5370 -0.2389
  148MOL   O21338727   3.407   7.414   5.071  0.2206 -0.0049 -0.2783
  148MOL   C21438728   3.629   7.343   5.048  0.0242 -0.0219 -0.1549
  148MOL   C21538729   3.421   7.502   4.646 -0.2665 -0.5649 -0.5606
  148MOL   H21638730   3.317   7.495   4.832  0.8075 -1.1689  0.5356
  148MOL   H21738731   3.606   7.446   4.839  0.4001  2.1947  0.1865
  148MOL   H21838732   3.717   7.408   5.041  0.1704 -0.4126 -2.1208
  148MOL   H21938733   3.627   7.305   5.150  1.4325 -1.8126 -0.7759
  148MOL   H22038734   3.640   7.252   4.989 -1.2883  0.5732 -1.3409
  148MOL   H22138735   3.373   7.575   4.580  1.3960  0.3464 -0.8080
  148MOL   H22238736   3.528   7.516   4.629  0.2157 -2.1848  1.0753
  148MOL   C22338737   3.388   7.357   4.603  0.3117  0.6014  0.7620
  148MOL   N22438738   3.441   7.341   4.466 -0.8271 -0.4514 -0.0012
  148MOL   C22538739   3.535   7.253   4.429 -0.2706  0.5388 -1.1900
  148MOL   O22638740   3.588   7.174   4.515 -0.1362 -0.0002 -0.6450
  148MOL   C22738741   3.578   7.244   4.281 -0.2081 -0.0232 -0.1853
  148MOL   C22838742   3.226   7.336   4.587 -0.0889 -0.4633  0.2754
  148MOL   H22938743   3.412   7.280   4.676 -2.8503 -0.0840  1.1620
  148MOL   H23038744   3.394   7.382   4.387  1.6145  1.3037 -0.5886
  148MOL   H23138745   3.563   7.146   4.237 -1.9653  0.2134 -0.1620
  148MOL   H23238746   3.535   7.319   4.214  1.8873  0.3689 -1.1311
  148MOL   H23338747   3.684   7.268   4.273 -0.2345  1.1119  2.3674
  148MOL   H23438748   3.177   7.418   4.639 -1.5000 -1.4105  0.4840
  148MOL   H23538749   3.201   7.364   4.485  0.0555 -1.6293 -0.0948
  148MOL   C23638750   3.173   7.202   4.640 -0.2726 -0.0209  0.0437
  148MOL   N23738751   3.183   7.186   4.788  0.0711  0.1120 -0.0994
  148MOL   C23838752   3.114   7.261   4.872  0.2927  0.4472  0.3721
  148MOL   O23938753   3.049   7.361   4.840 -0.2631  0.3428 -0.0598
  148MOL   C24038754   3.123   7.211   5.017  0.0363 -0.5362 -0.3742
  148MOL   C24138755   3.232   7.089   4.553 -0.8221  0.1068  0.3786
  148MOL   H24238756   3.065   7.209   4.622 -0.2129  0.5505 -0.1051
  148MOL   H24338757   3.237   7.105   4.817  2.5905  0.8366 -2.5476
  148MOL   H24438758   3.020   7.214   5.053  0.0933 -4.3646  0.3348
  148MOL   H24538759   3.169   7.112   5.025  0.3716 -0.2266  1.9782
  148MOL   H24638760   3.184   7.283   5.070 -2.5753  0.4205  1.4818
  148MOL   H24738761   3.238   7.117   4.448 -1.1186  0.1570  0.3767
  148MOL   H24838762   3.337   7.076   4.582 -0.9684 -0.4702  0.6440
  148MOL   C24938763   3.155   6.955   4.564 -1.1553  0.3093 -0.3715
  148MOL   N25038764   3.176   6.879   4.685  0.3560  0.8672 -0.0583
  148MOL   C25138765   3.099   6.875   4.794 -0.4050  0.0490  0.2802
  148MOL   O25238766   2.995   6.936   4.804  0.1314 -0.0093  0.3878
  148MOL   C25338767   3.155   6.797   4.916 -0.2529  0.2017  0.0204
  148MOL   C25438768   3.171   6.859   4.447 -0.6386  0.2109  0.3807
  148MOL   H25538769   3.048   6.974   4.558 -1.6322 -1.7774  0.9418
  148MOL   H25638770   3.251   6.811   4.680  0.1414  0.3654  2.6241
  148MOL   H25738771   3.117   6.841   5.008  0.1911  0.5798  0.0254
  148MOL   H25838772   3.118   6.694   4.915  1.0118 -0.2611 -0.6518
  148MOL   H25938773   3.263   6.791   4.925 -0.4235  1.0109  3.2891
  148MOL   H26038774   3.103   6.775   4.463  2.1972 -2.0056  1.2844
  148MOL   H26138775   3.152   6.898   4.347 -3.3528 -3.1505 -0.5201
  148MOL   H26238776   3.277   6.833   4.442 -0.1883  2.2324 -2.0364
  149MOL     C138777   6.752   4.619   2.084  0.6377 -0.6961  0.5077
  149MOL     N238778   6.846   4.631   2.194 -0.3277 -0.1988  0.2407
  149MOL     C338779   6.821   4.583   2.320 -0.5124 -0.2850  0.2040
  149MOL     O438780   6.709   4.546   2.352  0.0338 -0.1459  0.4239
  149MOL     C538781   6.944   4.570   2.412 -0.3495  0.2330 -0.5809
  149MOL     C638782   6.724   4.755   2.011 -0.4521 -0.1410 -0.1981
  149MOL     H738783   6.797   4.550   2.014 -4.1168 -1.1285 -2.3706
  149MOL     H838784   6.942   4.648   2.170 -0.0347  2.3813  2.9365
  149MOL     H938785   7.034   4.588   2.355 -0.8932  1.7547 -0.9820
  149MOL    H1038786   6.927   4.635   2.498 -2.5590 -0.2524 -0.6069
  149MOL    H1138787   6.948   4.466   2.443 -3.2653  0.0870 -0.4989
  149MOL    H1238788   6.688   4.828   2.085 -1.6782  1.6415 -2.4808
  149MOL    H1338789   6.820   4.793   1.977  1.0923 -0.5468  3.3913
  149MOL    H1438790   6.651   4.583   2.103  1.0669 -2.0085  0.3123
  149MOL    C1538791   6.633   4.749   1.883  0.3725 -0.4316 -0.6520
  149MOL    N1638792   6.689   4.659   1.781  0.3018  0.6333  0.0834
  149MOL    C1738793   6.657   4.532   1.757 -0.3339 -0.2174  0.4214
  149MOL    O1838794   6.566   4.470   1.816  0.3764 -0.7365 -0.1005
  149MOL    C1938795   6.729   4.456   1.652  0.1084  0.1443 -0.5439
  149MOL    C2038796   6.623   4.882   1.812 -0.1850  0.0053  0.0127
  149MOL    H2138797   6.530   4.722   1.907 -0.1211  0.6978 -1.4875
  149MOL    H2238798   6.761   4.701   1.724 -1.2875  2.2031 -0.8527
  149MOL    H2338799   6.833   4.436   1.676 -0.4394 -0.3946  1.4980
  149MOL    H2438800   6.682   4.359   1.640  0.9694 -0.6633  2.2451
  149MOL    H2538801   6.725   4.503   1.554 -2.6134 -0.7558 -0.9170
  149MOL    H2638802   6.723   4.922   1.797 -0.1019  0.0820  0.7465
  149MOL    H2738803   6.569   4.877   1.718 -0.2901  0.3417  0.0523
  149MOL    C2838804   6.565   4.999   1.900  0.0757 -0.2377 -0.1108
  149MOL    N2938805   6.430   4.961   1.939  0.3366  0.4083 -0.1791
  149MOL    C3038806   6.391   4.934   2.065  0.5483 -0.5386  0.5731
  149MOL    O3138807   6.469   4.928   2.162  0.2684  0.2264  0.1363
  149MOL    C3238808   6.242   4.918   2.088  0.0347 -0.1627  0.4089
  149MOL    C3338809   6.550   5.130   1.827  0.5266 -0.6270  0.0941
  149MOL    H3438810   6.624   5.015   1.991 -0.9089  1.1855  0.2936
  149MOL    H3538811   6.360   4.974   1.868  2.8689  1.6800 -2.5282
  149MOL    H3638812   6.205   4.997   2.024 -0.1140  0.7631  1.6265
  149MOL    H3738813   6.208   4.824   2.045  0.6290  0.2588 -1.0051
  149MOL    H3838814   6.209   4.930   2.191 -0.0487 -0.8867  0.4745
  149MOL    H3938815   6.500   5.117   1.731 -0.5878 -0.4027  0.6374
  149MOL    H4038816   6.480   5.190   1.885  0.3437  1.1588 -1.9243
  149MOL    C4138817   6.676   5.215   1.806 -0.3968  0.0595  0.1886
  149MOL    N4238818   6.734   5.238   1.944 -0.1299  0.4069  0.3506
  149MOL    C4338819   6.861   5.221   1.986 -0.0120 -0.1467  0.3834
  149MOL    O4438820   6.952   5.214   1.906  0.0087 -0.6556  0.4309
  149MOL    C4538821   6.887   5.218   2.135  0.4394  0.1458  0.0579
  149MOL    C4638822   6.634   5.353   1.745 -0.2361 -0.5483 -0.4764
  149MOL    H4738823   6.744   5.164   1.738 -1.0649  1.3200 -1.4697
  149MOL    H4838824   6.674   5.249   2.025 -0.1067 -2.4721  0.8056
  149MOL    H4938825   6.882   5.320   2.173  1.8170 -0.4920  2.0231
  149MOL    H5038826   6.807   5.161   2.184  0.1949  1.6766  1.5066
  149MOL    H5138827   6.983   5.170   2.153  0.3627 -0.2010 -0.4487
  149MOL    H5238828   6.589   5.324   1.650 -2.5896  2.0552 -0.2414
  149MOL    H5338829   6.554   5.387   1.811  0.2111 -1.8296  0.7256
  149MOL    C5438830   6.745   5.457   1.709  0.1283 -0.3874  0.4596
  149MOL    N5538831   6.688   5.589   1.666  0.2977  0.0244  1.0908
  149MOL    C5638832   6.606   5.666   1.742 -0.7452  0.1134  0.0185
  149MOL    O5738833   6.591   5.644   1.859 -0.0463 -0.6519 -0.1018
  149MOL    C5838834   6.554   5.796   1.682 -0.2415 -0.0925 -0.2827
  149MOL    C5938835   6.849   5.397   1.614 -0.0522  0.4610  0.1778
  149MOL    H6038836   6.796   5.486   1.802 -1.7797 -1.0926  1.7454
  149MOL    H6138837   6.706   5.626   1.574  1.5644  2.0933  2.1456
  149MOL    H6238838   6.567   5.876   1.756  0.6896  0.4562 -1.0325
  149MOL    H6338839   6.621   5.812   1.598 -0.5257 -0.7971 -0.6493
  149MOL    H6438840   6.449   5.792   1.653 -0.2932  0.2063 -0.1351
  149MOL    H6538841   6.909   5.321   1.665 -0.2520 -0.1189 -0.4513
  149MOL    H6638842   6.782   5.338   1.552  1.4403  0.6502 -1.6619
  149MOL    C6738843   6.943   5.496   1.539 -0.6214 -0.2636 -0.6079
  149MOL    N6838844   6.893   5.509   1.402 -0.8016  0.7238  0.1234
  149MOL    C6938845   6.830   5.611   1.353  0.0579 -0.6190  0.0406
  149MOL    O7038846   6.795   5.706   1.417  0.7057 -0.3279 -0.2247
  149MOL    C7138847   6.778   5.601   1.209 -0.2924 -0.3729  0.3668
  149MOL    C7238848   7.099   5.474   1.536  0.1218  0.0905  0.0547
  149MOL    H7338849   6.927   5.590   1.591 -1.8433 -0.4500 -0.6405
  149MOL    H7438850   6.888   5.428   1.343 -2.0333  0.3361  0.7349
  149MOL    H7538851   6.765   5.497   1.178 -0.0116 -0.2179 -0.2765
  149MOL    H7638852   6.677   5.641   1.215  0.5305  1.7973 -0.1685
  149MOL    H7738853   6.847   5.650   1.141 -0.1378 -1.7910 -0.5334
  149MOL    H7838854   7.106   5.388   1.470 -2.9465  0.0300 -0.2630
  149MOL    H7938855   7.142   5.563   1.488 -0.7236 -1.4924 -3.8480
  149MOL    C8038856   7.175   5.439   1.661  0.3761 -0.9385  0.4490
  149MOL    N8138857   7.153   5.302   1.708  0.3656 -0.2087  0.4635
  149MOL    C8238858   7.210   5.196   1.653  0.9447  0.1977  0.1082
  149MOL    O8338859   7.283   5.192   1.550 -0.3224 -0.3319 -0.1078
  149MOL    C8438860   7.191   5.065   1.728  0.5790 -0.1930 -0.0646
  149MOL    C8538861   7.131   5.531   1.779 -0.0889  0.9780  0.1956
  149MOL    H8638862   7.282   5.458   1.646 -0.0518  0.0610 -1.4911
  149MOL    H8738863   7.088   5.284   1.783  1.4555  2.0689  2.0142
  149MOL    H8838864   7.175   4.989   1.651 -0.2576 -1.6453  1.5090
  149MOL    H8938865   7.283   5.039   1.781  0.3390  2.2848  1.6574
  149MOL    H9038866   7.104   5.055   1.793  1.6399 -1.1112  1.2497
  149MOL    H9138867   7.140   5.635   1.749 -0.9885  0.4542 -1.9765
  149MOL    H9238868   7.026   5.509   1.797 -0.3151  2.1727  0.3132
  149MOL    C9338869   7.212   5.512   1.915  0.4393  0.0016 -0.9544
  149MOL    N9438870   7.139   5.574   2.026 -0.2259 -0.4907 -0.6236
  149MOL    C9538871   7.109   5.516   2.139 -0.5049  0.0686  0.3712
  149MOL    O9638872   7.140   5.400   2.173  0.2937  0.2125  0.1614
  149MOL    C9738873   7.030   5.599   2.242  0.3380  0.3783  0.0142
  149MOL    C9838874   7.362   5.564   1.900 -0.4625  0.7282  0.0942
  149MOL    H9938875   7.218   5.404   1.926 -2.3408 -0.1269 -0.4643
  149MOL   H10038876   7.115   5.672   2.014  1.2350 -0.0764 -0.3311
  149MOL   H10138877   7.087   5.600   2.335 -2.8335  0.0397  2.0577
  149MOL   H10238878   7.013   5.701   2.209 -2.0721 -0.1578 -0.4857
  149MOL   H10338879   6.935   5.548   2.262  0.4657  0.3386  0.5217
  149MOL   H10438880   7.399   5.558   1.798 -0.6945 -1.3573  0.1041
  149MOL   H10538881   7.368   5.669   1.927  0.7419  1.6380 -3.5493
  149MOL   C10638882   7.455   5.494   2.001 -0.0221 -0.5898 -0.8080
  149MOL   N10738883   7.552   5.581   2.073  0.9163 -1.0708  0.5370
  149MOL   C10838884   7.627   5.660   2.006 -0.0555  0.5110  0.0440
  149MOL   O10938885   7.636   5.663   1.886 -0.5686 -0.0347 -0.5640
  149MOL   C11038886   7.715   5.749   2.091  0.1978 -0.4059  0.6915
  149MOL   C11138887   7.540   5.376   1.949 -0.2272  0.0902 -0.6975
  149MOL   H11238888   7.404   5.457   2.090  1.9942  0.0472  0.6548
  149MOL   H11338889   7.545   5.595   2.173 -0.8214  0.7776  0.2119
  149MOL   H11438890   7.649   5.781   2.172 -0.9126 -0.6814 -0.0991
  149MOL   H11538891   7.798   5.692   2.132 -0.5422 -1.1459  1.1651
  149MOL   H11638892   7.764   5.828   2.034  1.1027 -1.1505  0.4336
  149MOL   H11738893   7.600   5.417   1.867 -0.1813  0.7335 -0.3458
  149MOL   H11838894   7.609   5.342   2.026 -1.5234 -1.4600 -0.2009
  149MOL   C11938895   7.472   5.244   1.896  0.0007 -0.0922 -0.1303
  149MOL   N12038896   7.376   5.179   1.991 -0.0648  0.1718 -0.8022
  149MOL   C12138897   7.410   5.123   2.107  0.2849  0.1748  0.1252
  149MOL   O12238898   7.523   5.100   2.141  0.4935  0.6564 -0.0596
  149MOL   C12338899   7.295   5.063   2.184  0.4182  0.0499 -0.1334
  149MOL   C12438900   7.572   5.147   1.830  0.3913 -0.2068 -0.4362
  149MOL   H12538901   7.402   5.288   1.824 -0.4846  0.7231  0.8387
  149MOL   H12638902   7.280   5.171   1.963 -0.9347 -2.3821  2.5971
  149MOL   H12738903   7.280   5.126   2.272 -0.4858 -0.6603  0.2368
  149MOL   H12838904   7.201   5.053   2.130 -0.1212  1.5130  0.5085
  149MOL   H12938905   7.327   4.967   2.226 -2.1397 -1.5757 -1.7525
  149MOL   H13038906   7.644   5.130   1.909 -0.7163  1.2488  0.9364
  149MOL   H13138907   7.516   5.059   1.801 -1.0908  0.0652  1.4873
  149MOL   C13238908   7.653   5.203   1.712  0.6073  0.1296 -0.1295
  149MOL   N13338909   7.574   5.279   1.620 -0.2904  0.3767  0.3300
  149MOL   C13438910   7.623   5.389   1.560 -1.0376 -0.4565  0.1738
  149MOL   O13538911   7.728   5.442   1.590  0.2696 -0.2458 -0.5018
  149MOL   C13638912   7.528   5.466   1.467  0.0191 -0.2697 -0.1799
  149MOL   C13738913   7.724   5.086   1.631  0.1782 -0.1732  0.4050
  149MOL   H13838914   7.732   5.265   1.754  0.1535  0.8346 -0.3176
  149MOL   H13938915   7.486   5.246   1.582  1.3711 -1.5673 -1.9528
  149MOL   H14038916   7.440   5.410   1.435 -1.0206 -0.0383  2.1697
  149MOL   H14138917   7.483   5.535   1.539  0.3091  0.0833 -0.3388
  149MOL   H14238918   7.569   5.510   1.377 -0.0766  0.9689  0.3728
  149MOL   H14338919   7.783   5.025   1.699  0.6283  1.6932  1.7148
  149MOL   H14438920   7.640   5.020   1.609 -1.0766  1.7161 -0.7137
  149MOL   C14538921   7.791   5.097   1.490 -0.4608  0.0107  0.3226
  149MOL   N14638922   7.832   4.963   1.453 -0.2154 -0.4919  0.3105
  149MOL   C14738923   7.790   4.890   1.344  0.0526 -0.4499 -0.2351
  149MOL   O14838924   7.735   4.948   1.250 -0.0864 -0.3714 -0.1686
  149MOL   C14938925   7.820   4.740   1.346 -0.2934  0.0355 -0.1112
  149MOL   C15038926   0.081   5.184   1.495  0.5834 -0.0656 -0.3672
  149MOL   H15138927   7.719   5.156   1.432  0.8723  0.4717 -0.8866
  149MOL   H15238928   0.027   4.902   1.526 -2.3234 -0.3860  1.4250
  149MOL   H15338929   0.089   4.729   1.344 -0.0300  2.2430  0.4420
  149MOL   H15438930   7.799   4.696   1.444  0.1371  1.6060  0.7098
  149MOL   H15538931   7.779   4.678   1.266 -1.1063 -0.3535  0.5981
  149MOL   H15638932   0.058   5.275   1.551 -1.9779 -0.6269 -0.4589
  149MOL   H15738933   0.159   5.140   1.558  0.8134  2.2130  1.0244
  149MOL   C15838934   0.134   5.228   1.358  0.0030 -1.2498 -0.1464
  149MOL   N15938935   0.202   5.122   1.282 -0.3407 -0.1573  0.0716
  149MOL   C16038936   0.314   5.056   1.309  0.3874  0.1146  0.0221
  149MOL   O16138937   0.377   5.076   1.411 -0.1571 -0.4737  0.4505
  149MOL   C16238938   0.362   4.948   1.209 -0.4106 -0.3847 -0.0094
  149MOL   C16338939   0.233   5.354   1.374 -0.0936 -0.3733 -0.1726
  149MOL   H16438940   0.050   5.250   1.292  0.4387 -1.3697 -0.7459
  149MOL   H16538941   0.156   5.094   1.196 -0.6151 -1.0079  0.4947
  149MOL   H16638942   0.281   4.925   1.140 -0.2893 -1.0717  0.0700
  149MOL   H16738943   0.448   4.982   1.151 -0.6154  2.0777  1.0825
  149MOL   H16838944   0.394   4.861   1.266  2.1139  0.5376  0.0590
  149MOL   H16938945   0.268   5.359   1.477  1.2480  1.8100 -0.7035
  149MOL   H17038946   0.326   5.344   1.319 -0.6758  1.3168 -1.5211
  149MOL   C17138947   0.168   5.485   1.322 -0.2298 -0.2601  0.5626
  149MOL   N17238948   0.137   5.491   1.176  0.6415 -0.4795  0.0444
  149MOL   C17338949   0.014   5.492   1.128 -0.2412  0.1005 -0.2334
  149MOL   O17438950   7.753   5.486   1.203  0.1552 -0.3024  0.1642
  149MOL   C17538951   7.831   5.484   0.971 -0.0508  0.2551 -0.3291
  149MOL   C17638952   0.267   5.601   1.370  0.6553 -0.2323 -0.4313
  149MOL   H17738953   0.072   5.492   1.374 -0.4130  1.2653  0.0698
  149MOL   H17838954   0.212   5.497   1.109  0.6648  1.8577  0.2395
  149MOL   H17938955   7.805   5.380   0.951 -0.3096 -0.6626  4.3023
  149MOL   H18038956   7.750   5.552   0.946 -2.0063 -1.5779  0.8785
  149MOL   H18138957   0.088   5.505   0.923  0.7061 -2.2346  0.0019
  149MOL   H18238958   0.294   5.584   1.474  1.2829  0.7030 -0.4391
  149MOL   H18338959   0.364   5.595   1.320  0.3559  1.5180 -1.2645
  149MOL   C18438960   0.225   5.746   1.354 -0.5296  0.5844 -1.0057
  149MOL   N18538961   0.304   5.826   1.450  0.3546  0.2421 -0.1571
  149MOL   C18638962   0.378   5.936   1.423  0.5764  0.8609  0.4763
  149MOL   O18738963   0.384   5.985   1.312 -0.6553 -0.0746 -0.3693
  149MOL   C18838964   0.434   6.007   1.552  0.5822  0.0892 -0.1011
  149MOL   C18938965   0.073   5.769   1.379 -0.1116  0.5471  0.3222
  149MOL   H19038966   0.249   5.771   1.251  2.5177 -1.3308 -0.8163
  149MOL   H19138967   0.307   5.792   1.545 -1.2594  1.4650  0.3675
  149MOL   H19238968   0.497   6.091   1.522  1.7160 -0.8384 -0.3571
  149MOL   H19338969   0.355   6.036   1.620 -0.0001 -0.8922 -0.3414
  149MOL   H19438970   0.487   5.939   1.618 -0.7893 -0.3148  0.6001
  149MOL   H19538971   0.058   5.859   1.320 -3.0196 -1.3447 -2.0159
  149MOL   H19638972   0.001   5.710   1.322  1.8566 -2.6902  1.0506
  149MOL   C19738973   0.031   5.798   1.529  0.6857  0.1876  1.0736
  149MOL   N19838974   0.049   5.676   1.610 -0.1644  0.0605  0.0826
  149MOL   C19938975   0.121   5.663   1.722  0.7157 -0.0524 -1.0669
  149MOL   O20038976   0.175   5.756   1.773  0.2095 -0.7530  0.3458
  149MOL   C20138977   0.127   5.525   1.792 -0.2928  0.3231  0.0746
  149MOL   C20238978   7.730   5.834   1.525  0.8360 -0.0445  0.2967
  149MOL   H20338979   0.083   5.882   1.573 -0.3206  1.6139 -0.4004
  149MOL   H20438980   7.832   5.593   1.600  0.4867 -0.1756 -2.0728
  149MOL   H20538981   0.198   5.534   1.874  2.0391  1.1461 -1.9837
  149MOL   H20638982   0.025   5.495   1.818  0.1502 -2.9951 -1.6589
  149MOL   H20738983   0.166   5.443   1.731  0.0391 -1.4156  2.5319
  149MOL   H20838984   7.710   5.911   1.451  0.9452 -0.0977  0.2105
  149MOL   H20938985   7.680   5.742   1.493  1.8079 -0.8704  1.1149
  149MOL   C21038986   7.676   5.886   1.653 -0.1046  0.0843 -0.1003
  149MOL   N21138987   7.541   5.843   1.671 -0.2120 -0.2785 -0.2496
  149MOL   C21238988   7.441   5.875   1.584 -0.7393  0.4633 -0.0999
  149MOL   O21338989   7.455   5.951   1.493  0.7046 -0.5599  0.0512
  149MOL   C21438990   7.304   5.816   1.618  0.4332  0.4514 -0.4482
  149MOL   C21538991   7.696   6.040   1.657 -0.9599 -0.4778  0.2290
  149MOL   H21638992   7.738   5.840   1.730  1.2063  0.5159 -0.8905
  149MOL   H21738993   7.523   5.779   1.747  0.3791 -0.4804 -0.2759
  149MOL   H21838994   7.240   5.827   1.531 -1.9680 -3.2926  0.7333
  149MOL   H21938995   7.307   5.710   1.643 -0.3154  0.3785 -0.6466
  149MOL   H22038996   7.256   5.882   1.691 -1.5355  0.0893 -1.3931
  149MOL   H22138997   7.801   6.068   1.651 -1.4837  1.3773 -0.5862
  149MOL   H22238998   7.657   6.084   1.566  0.9909  2.1298  0.5924
  149MOL   C22338999   7.634   6.119   1.781 -0.2471 -0.0222 -0.4698
  149MOL   N22439000   7.502   6.166   1.743 -0.3893 -0.3235  0.4090
  149MOL   C22539001   7.394   6.146   1.814  0.0269  0.0401 -0.1916
  149MOL   O22639002   7.398   6.108   1.929 -0.0949 -0.4328  0.2163
  149MOL   C22739003   7.265   6.162   1.745 -0.3201  0.9854 -0.4681
  149MOL   C22839004   7.727   6.237   1.825 -0.4308 -0.0950 -0.3116
  149MOL   H22939005   7.616   6.043   1.857  0.3743 -0.1630 -0.4589
  149MOL   H23039006   7.485   6.187   1.646 -1.7107 -0.6861  0.5525
  149MOL   H23139007   7.271   6.137   1.639 -1.3976 -1.2915 -0.0302
  149MOL   H23239008   7.197   6.082   1.775  1.0805  0.8687  2.6241
  149MOL   H23339009   7.225   6.262   1.762  2.8963  1.9646  1.6639
  149MOL   H23439010   7.821   6.192   1.859  0.2070  1.6067  0.2068
  149MOL   H23539011   7.759   6.307   1.748  0.8096 -1.9690 -1.5283
  149MOL   C23639012   7.677   6.319   1.945  0.2764 -0.2767 -0.5706
  149MOL   N23739013   7.632   6.238   2.064 -0.2725 -0.0534 -0.0627
  149MOL   C23839014   7.691   6.227   2.184  0.5639  0.1396 -0.0665
  149MOL   O23939015   7.792   6.297   2.213 -0.5283  0.2284  0.0305
  149MOL   C24039016   7.623   6.130   2.279  0.0667  1.1704  0.1913
  149MOL   C24139017   7.575   6.429   1.904  0.4033 -0.0746  0.2303
  149MOL   H24239018   7.770   6.374   1.964 -0.2840  1.0105 -1.5220
  149MOL   H24339019   7.550   6.180   2.049 -1.2822  1.2218  0.4408
  149MOL   H24439020   7.522   6.105   2.247  0.7567 -0.8243 -0.4669
  149MOL   H24539021   7.689   6.044   2.285 -1.3271 -0.1967 -2.7818
  149MOL   H24639022   7.623   6.179   2.377 -0.1110 -0.7491  1.1649
  149MOL   H24739023   7.597   6.472   1.806  3.0414 -0.9989  0.3882
  149MOL   H24839024   7.478   6.382   1.883  0.0676  1.2285 -1.2255
  149MOL   C24939025   7.562   6.548   2.002 -0.0984 -0.0316 -0.2828
  149MOL   N25039026   7.426   6.602   2.003 -0.1266 -0.6377 -0.1555
  149MOL   C25139027   7.376   6.716   2.050  0.6513 -0.1154 -0.3256
  149MOL   O25239028   7.441   6.791   2.121  0.7178 -0.8355 -1.2183
  149MOL   C25339029   7.230   6.745   2.014  0.1524 -0.1073 -0.4155
  149MOL   C25439030   7.665   6.662   1.972  0.2001 -0.1388  0.3530
  149MOL   H25539031   7.584   6.513   2.102  1.5549 -2.1160 -1.3337
  149MOL   H25639032   7.360   6.548   1.948  0.1006  0.4123 -1.4909
  149MOL   H25739033   7.167   6.661   2.042 -1.5762  1.0000 -0.9375
  149MOL   H25839034   7.195   6.837   2.060 -2.4779 -1.3469  0.1406
  149MOL   H25939035   7.225   6.753   1.906 -1.8561 -0.8571 -0.4043
  149MOL   H26039036   7.668   6.729   2.057 -1.2377 -0.4802  0.6740
  149MOL   H26139037   7.767   6.629   1.952 -0.0835 -2.1712  2.0746
  149MOL   H26239038   7.623   6.720   1.890 -1.0483 -0.6681  0.6160
  150MOL     C139039   5.740   7.700   3.028  0.2015 -0.1224  0.3768
  150MOL     N239040   5.677   7.684   3.159 -0.3089 -0.3448  0.6327
  150MOL     C339041   5.610   7.571   3.197  0.7800  0.1984  0.1621
  150MOL     O439042   5.572   7.484   3.112  0.3333 -0.2686 -0.0889
  150MOL     C539043   5.584   7.556   3.353 -0.0795  0.3575 -0.0126
  150MOL     C639044   5.840   7.808   3.034  0.3209 -0.2348 -0.7663
  150MOL     H739045   5.794   7.610   2.999  0.9593  0.6083 -0.4852
  150MOL     H839046   5.704   7.747   3.233 -0.0414 -2.8359  2.7488
  150MOL     H939047   5.651   7.477   3.387 -0.1366 -0.0926 -0.9212
  150MOL    H1039048   5.606   7.644   3.412  0.1671  0.2163  0.1034
  150MOL    H1139049   5.482   7.520   3.366  0.2841 -2.0685 -3.2465
  150MOL    H1239050   5.899   7.800   3.125 -1.9416  3.1446  1.0844
  150MOL    H1339051   5.916   7.804   2.955  0.6680  0.7377 -0.4918
  150MOL    H1439052   5.660   7.721   2.957  2.5611  0.8350 -2.0537
  150MOL    C1539053   5.792   0.112   3.042  0.4786  0.1833 -0.1515
  150MOL    N1639054   5.728   0.132   2.911  0.1639 -0.1507 -0.0148
  150MOL    C1739055   5.599   0.172   2.896  0.3880  0.4845  0.1163
  150MOL    O1839056   5.528   0.224   2.982  0.3419 -0.3430  0.2358
  150MOL    C1939057   5.538   0.154   2.762  0.5225 -0.6443 -0.3459
  150MOL    C2039058   5.905   0.218   3.057 -0.4340 -0.4112  0.1892
  150MOL    H2139059   5.717   0.113   3.122 -0.6740  0.8234 -1.2301
  150MOL    H2239060   5.773   0.111   2.823  0.9704  1.8792 -0.1236
  150MOL    H2339061   5.588   0.071   2.712  1.5917  0.2547 -0.7793
  150MOL    H2439062   5.432   0.146   2.739  1.1102 -4.2228 -2.2148
  150MOL    H2539063   5.563   0.249   2.715  0.7573 -0.8925 -0.7274
  150MOL    H2639064   5.958   0.196   3.150  0.2923  1.3452  0.2209
  150MOL    H2739065   5.987   0.203   2.987 -1.2396 -0.2380 -0.8154
  150MOL    C2839066   5.860   0.366   3.061 -0.1423  0.7798 -0.7787
  150MOL    N2939067   5.736   0.379   3.138 -0.8301  0.5230  0.3782
  150MOL    C3039068   5.711   0.450   3.252  0.6283  0.5949  0.1621
  150MOL    O3139069   5.791   0.527   3.301 -0.1220  0.0568  0.3990
  150MOL    C3239070   5.558   0.455   3.295 -0.0769 -0.1293  0.1283
  150MOL    C3339071   5.838   0.427   2.915  0.1304  0.2012 -0.0759
  150MOL    H3439072   5.940   0.426   3.105  0.5656  0.4589 -1.6093
  150MOL    H3539073   5.663   0.321   3.099 -0.2603 -0.1095  0.2280
  150MOL    H3639074   5.538   0.446   3.402 -0.5305  0.3289  0.0847
  150MOL    H3739075   5.510   0.546   3.259  0.9853 -0.0929 -1.1975
  150MOL    H3839076   5.512   0.375   3.237 -1.6587  1.5815 -1.0181
  150MOL    H3939077   5.784   0.358   2.850 -0.8417  0.6852  0.2060
  150MOL    H4039078   5.773   0.512   2.937  1.2179  1.1531 -0.4864
  150MOL    C4139079   5.969   0.459   2.841 -0.0682 -0.1294 -0.3515
  150MOL    N4239080   6.019   0.585   2.894  0.0881 -0.0601 -0.2335
  150MOL    C4339081   6.121   0.587   2.980  0.3393  0.6292  0.7081
  150MOL    O4439082   6.206   0.497   2.994 -0.1552  0.0265  0.4397
  150MOL    C4539083   6.131   0.726   3.057  0.1051  0.2987 -0.0724
  150MOL    C4639084   5.945   0.472   2.689 -0.4976  0.0148 -0.0877
  150MOL    H4739085   6.042   0.379   2.853  0.4433  0.5632  1.2676
  150MOL    H4839086   5.952   0.660   2.903 -0.4789 -0.7038  0.9401
  150MOL    H4939087   6.159   0.708   3.161  1.3052 -3.9808 -1.0347
  150MOL    H5039088   6.198   0.791   3.000  1.0153  0.7472  1.4696
  150MOL    H5139089   6.033   0.770   3.072  0.2752  0.3924  0.8181
  150MOL    H5239090   5.923   0.374   2.647 -1.2499 -0.5662  1.5977
  150MOL    H5339091   5.853   0.528   2.674 -0.4477  0.1879  0.2447
  150MOL    C5439092   6.059   0.537   2.611 -0.2715  0.2967  0.3166
  150MOL    N5539093   6.007   0.576   2.481 -0.3246 -0.0511 -0.0605
  150MOL    C5639094   5.920   0.678   2.463 -0.4174 -0.7063  0.2017
  150MOL    O5739095   5.888   0.759   2.552 -0.3620  0.1165 -0.3228
  150MOL    C5839096   5.866   0.694   2.320 -0.2956  0.3441  0.1303
  150MOL    C5939097   6.186   0.453   2.609 -0.1717  0.1899  0.1371
  150MOL    H6039098   6.088   0.629   2.661 -0.6434 -1.0987  3.1898
  150MOL    H6139099   6.015   0.515   2.402  2.1425  0.3365 -0.1723
  150MOL    H6239100   5.940   0.728   2.248  0.1699  0.1510  0.5196
  150MOL    H6339101   5.830   0.599   2.281  1.2644  0.3891 -1.4787
  150MOL    H6439102   5.786   0.769   2.325 -1.9985 -1.3736 -0.7578
  150MOL    H6539103   6.210   0.447   2.715  0.8320  0.0335 -0.0969
  150MOL    H6639104   6.153   0.352   2.584 -0.8978  0.5467 -0.3652
  150MOL    C6739105   6.321   0.498   2.543 -0.5022  0.3575  0.1508
  150MOL    N6839106   6.356   0.628   2.590 -0.4713 -0.6438 -0.6034
  150MOL    C6939107   6.415   0.650   2.710  0.2222  0.3101  0.1599
  150MOL    O7039108   6.451   0.562   2.785 -0.2618 -0.1131 -0.7231
  150MOL    C7139109   6.419   0.792   2.768  0.4052  0.5086 -0.4793
  150MOL    C7239110   6.318   0.499   2.384 -0.3128 -0.1210 -0.0227
  150MOL    H7339111   6.397   0.428   2.574 -0.3944  1.1149  1.6419
  150MOL    H7439112   6.340   0.712   2.537 -1.0602 -0.6515 -0.4402
  150MOL    H7539113   6.340   0.849   2.719 -1.3365 -0.4914  1.0822
  150MOL    H7639114   6.409   0.783   2.876  2.8025 -4.2373 -0.5268
  150MOL    H7739115   6.513   0.846   2.755  1.3351 -1.1638 -0.9093
  150MOL    H7839116   6.236   0.549   2.334 -1.2246  0.0420  1.6095
  150MOL    H7939117   6.407   0.551   2.348 -2.2156  1.3291 -2.7993
  150MOL    C8039118   6.323   0.354   2.328 -0.0400  0.2261  0.3412
  150MOL    N8139119   6.459   0.308   2.308  0.5077 -0.0488  0.6743
  150MOL    C8239120   6.535   0.215   2.377  0.6594  0.5701  0.1680
  150MOL    O8339121   6.490   0.157   2.479 -0.4089  0.3617 -0.1060
  150MOL    C8439122   6.675   0.194   2.326  0.3483  0.9379  0.0621
  150MOL    C8539123   6.251   0.342   2.184  0.2569  0.6132  0.1705
  150MOL    H8639124   6.266   0.288   2.394 -1.5063  0.0432 -1.0873
  150MOL    H8739125   6.511   0.346   2.230 -0.9048  0.6116  0.0323
  150MOL    H8839126   6.694   0.087   2.330  1.0470  1.0909  0.9515
  150MOL    H8939127   6.684   0.223   2.221 -0.3250  0.8172 -0.0265
  150MOL    H9039128   6.750   0.254   2.378  1.4330  1.0394 -1.5827
  150MOL    H9139129   6.195   0.432   2.160 -1.3872 -0.3325  0.4210
  150MOL    H9239130   6.321   0.339   2.100 -2.5697 -1.0414 -2.2338
  150MOL    C9339131   6.155   0.216   2.177  0.4209 -0.3635  0.2614
  150MOL    N9439132   6.236   0.091   2.193  0.5502 -0.0052  0.0316
  150MOL    C9539133   6.224   0.013   2.302  1.1783  0.9091  0.1890
  150MOL    O9639134   6.156   0.041   2.398 -0.2226 -0.5732  0.0051
  150MOL    C9739135   6.298   7.717   2.292  0.0836 -0.0710 -0.0923
  150MOL    C9839136   6.067   0.208   2.047 -0.4002  0.0530 -0.2415
  150MOL    H9939137   6.086   0.221   2.261 -1.2650 -0.6887 -1.0672
  150MOL   H10039138   6.286   0.055   2.113 -0.1147 -3.3293  1.0342
  150MOL   H10139139   6.243   7.641   2.346 -0.2878 -0.4600 -1.0150
  150MOL   H10239140   6.294   7.691   2.187 -0.3500 -0.0791 -0.0731
  150MOL   H10339141   6.402   7.731   2.324 -0.1158  3.2987 -0.6772
  150MOL   H10439142   5.997   0.292   2.043  0.2087  0.5664 -0.3191
  150MOL   H10539143   6.132   0.221   1.960 -0.9751  1.3550 -0.4936
  150MOL   C10639144   5.985   0.080   2.032  0.0529 -0.1593  0.0351
  150MOL   N10739145   5.921   0.073   1.902 -0.2058  0.3905 -0.0438
  150MOL   C10839146   5.985   0.049   1.788  0.4817 -0.4068  1.0907
  150MOL   O10939147   6.103   0.050   1.769 -0.4445 -0.4492  0.4055
  150MOL   C11039148   5.891   0.020   1.676 -0.1401  0.1192  0.7599
  150MOL   C11139149   5.883   0.070   2.147 -0.1907 -0.6618 -0.6082
  150MOL   H11239150   6.048   7.831   2.039  0.4189  0.1220  0.3409
  150MOL   H11339151   5.821   0.059   1.909 -0.0813  0.3483  1.6114
  150MOL   H11439152   5.811   0.094   1.663 -0.8488 -0.6485  0.7052
  150MOL   H11539153   5.956   0.022   1.588 -0.2587 -0.8172  0.6532
  150MOL   H11639154   5.839   7.764   1.682  0.8937 -0.5949 -1.1410
  150MOL   H11739155   5.937   0.050   2.239  1.0741 -0.2487 -1.2568
  150MOL   H11839156   5.840   0.169   2.166 -2.1264 -0.8838 -3.5186
  150MOL   C11939157   5.757   7.817   2.125 -0.4203  0.1247 -0.6675
  150MOL   N12039158   5.643   0.049   2.066  0.0031  0.2405 -0.2060
  150MOL   C12139159   5.560   0.012   1.968 -0.2640  0.1562  0.8810
  150MOL   O12239160   5.582   7.753   1.903  0.9922  0.1314  0.5845
  150MOL   C12339161   5.433   0.089   1.944 -0.6456  0.1762 -0.5174
  150MOL   C12439162   5.715   7.736   2.259  0.0298 -0.1562 -0.3730
  150MOL   H12539163   5.796   7.742   2.056 -0.7417 -1.8403  1.2313
  150MOL   H12639164   5.614   0.130   2.118  0.8472  0.8483 -0.6647
  150MOL   H12739165   5.356   0.019   1.910 -0.2914 -1.8820  2.6512
  150MOL   H12839166   5.401   0.137   2.037  0.9808  0.5012 -0.1120
  150MOL   H12939167   5.451   0.170   1.874 -2.0001  2.0532  1.2556
  150MOL   H13039168   5.675   7.802   2.337  3.3195  0.8692  0.5537
  150MOL   H13139169   5.637   7.668   2.226 -0.6922 -1.0377  2.9669
  150MOL   C13239170   5.831   7.643   2.316 -0.2675 -0.0926  0.0838
  150MOL   N13339171   5.845   7.536   2.216  0.0836  0.7795 -0.2240
  150MOL   C13439172   5.945   7.513   2.132  0.3887 -0.5587 -0.3849
  150MOL   O13539173   6.049   7.563   2.144  0.4841 -0.0363  0.1396
  150MOL   C13639174   5.931   7.411   2.020 -0.1209 -0.2041  0.0296
  150MOL   C13739175   5.813   7.569   2.448 -0.0349 -0.0602  0.1219
  150MOL   H13839176   5.921   7.706   2.320  0.3150 -0.8931 -0.3463
  150MOL   H13939177   5.760   7.485   2.201  0.9018 -1.0536  1.2142
  150MOL   H14039178   5.849   7.342   2.038 -0.4192 -0.3275 -1.6902
  150MOL   H14139179   5.928   7.455   1.920  1.0607  0.9259  0.4672
  150MOL   H14239180   6.013   7.339   2.014  1.1265  1.3008 -1.4012
  150MOL   H14339181   5.720   7.517   2.424  0.2250 -1.0431  1.2031
  150MOL   H14439182   5.879   7.483   2.463 -2.6238 -2.4135 -1.5163
  150MOL   C14539183   5.785   7.653   2.576 -0.0384 -0.1954  0.1605
  150MOL   N14639184   5.903   7.728   2.609  0.4390  0.3327 -0.4206
  150MOL   C14739185   5.914   0.016   2.641 -0.5687 -0.2241  0.4608
  150MOL   O14839186   5.812   0.091   2.640  0.4565  0.2650  0.2917
  150MOL   C14939187   6.043   0.070   2.707 -0.4239  0.3623  0.2969
  150MOL   C15039188   5.736   7.585   2.702 -0.3750  0.0728 -0.1150
  150MOL   H15139189   5.703   7.722   2.556 -0.1030  0.3327  2.1281
  150MOL   H15239190   5.987   7.672   2.617 -0.0771 -0.3264  0.5053
  150MOL   H15339191   6.003   0.126   2.791 -0.9025  1.5409 -0.7049
  150MOL   H15439192   6.117   7.838   2.744 -0.1700  0.1050 -0.6914
  150MOL   H15539193   6.075   0.142   2.632 -1.0616 -2.0302 -2.3820
  150MOL   H15639194   5.818   7.533   2.753  1.0147  2.1895 -0.1427
  150MOL   H15739195   5.719   7.663   2.777  1.6469  1.4353 -1.0415
  150MOL   C15839196   5.609   7.495   2.699  0.0056 -0.7099  0.6813
  150MOL   N15939197   5.505   7.533   2.805 -0.2766 -0.2174  0.5407
  150MOL   C16039198   5.396   7.613   2.794 -0.7492  0.3119 -0.8322
  150MOL   O16139199   5.375   7.681   2.693  0.3024  0.4415 -0.3145
  150MOL   C16239200   5.289   7.611   2.906 -0.5112 -0.0909  0.1583
  150MOL   C16339201   5.640   7.344   2.707  0.6356  0.1259  0.0271
  150MOL   H16439202   5.560   7.524   2.606 -1.2667 -1.6528  1.0524
  150MOL   H16539203   5.511   7.484   2.892 -0.0307  1.0972  1.2749
  150MOL   H16639204   5.193   7.579   2.866 -0.9539  2.1749 -0.6859
  150MOL   H16739205   5.313   7.545   2.989  1.2776  0.2898 -0.0365
  150MOL   H16839206   5.282   7.716   2.933 -1.4124 -0.4271  1.2771
  150MOL   H16939207   5.712   7.319   2.630 -0.6590  0.9097 -1.4520
  150MOL   H17039208   5.704   7.320   2.793  0.2567  0.2043  0.3346
  150MOL   C17139209   5.520   7.245   2.697  0.3989 -0.4872  0.8659
  150MOL   N17239210   5.493   7.188   2.829  0.2418  0.5279  0.0297
  150MOL   C17339211   5.381   7.209   2.895 -0.4695 -0.2806 -0.4914
  150MOL   O17439212   5.277   7.258   2.847 -0.0569  0.1239  0.3982
  150MOL   C17539213   5.376   7.164   3.048  0.2479  0.1303  0.1604
  150MOL   C17639214   5.537   7.138   2.594 -0.1935  0.0232 -0.1756
  150MOL   H17739215   5.432   7.303   2.669  1.8357  0.5875 -1.5581
  150MOL   H17839216   5.572   7.166   2.888 -1.3337  1.3111  2.5327
  150MOL   H17939217   5.449   7.215   3.111 -1.0012  0.3188  1.5028
  150MOL   H18039218   5.277   7.194   3.085  0.1849  0.5606 -0.3574
  150MOL   H18139219   5.365   7.057   3.064 -0.8654  0.4105  1.3873
  150MOL   H18239220   5.626   7.079   2.615 -0.3196 -0.1671 -0.1748
  150MOL   H18339221   5.445   7.079   2.595 -0.2426  0.0954 -0.5553
  150MOL   C18439222   5.555   7.186   2.450  0.4935 -1.4208  0.0708
  150MOL   N18539223   5.463   7.290   2.418  0.0827  0.1023 -0.0934
  150MOL   C18639224   5.484   7.386   2.325 -0.4915 -0.1342  0.1362
  150MOL   O18739225   5.588   7.389   2.265  0.1403 -0.2278 -0.0474
  150MOL   C18839226   5.376   7.488   2.310 -0.9251  0.5163  0.7117
  150MOL   C18939227   5.550   7.071   2.347 -0.5415  0.1840 -0.1776
  150MOL   H19039228   5.658   7.221   2.439 -0.9437  2.6001 -1.6951
  150MOL   H19139229   5.385   7.306   2.480  0.9242 -2.5532  1.7582
  150MOL   H19239230   5.287   7.448   2.262  0.1861  0.6479 -1.5313
  150MOL   H19339231   5.361   7.535   2.407 -1.0351 -0.3845  1.1380
  150MOL   H19439232   5.424   7.563   2.247 -0.2564 -1.7549 -1.5782
  150MOL   H19539233   5.451   7.029   2.364 -0.5059  0.2755  0.2532
  150MOL   H19639234   5.540   7.094   2.241  0.3663  1.2011 -0.0468
  150MOL   C19739235   5.652   6.960   2.372 -0.0941 -0.2165  0.0295
  150MOL   N19839236   5.788   7.003   2.343  0.5379 -0.3620  0.3938
  150MOL   C19939237   5.894   6.986   2.419  0.1762  0.0781 -0.6623
  150MOL   O20039238   5.893   6.920   2.526 -0.0705 -0.3488 -0.3889
  150MOL   C20139239   6.015   7.073   2.374  0.2339  1.1822 -0.5678
  150MOL   C20239240   5.625   6.844   2.266  0.5019  0.1376 -0.2730
  150MOL   H20339241   5.640   6.918   2.472 -0.0591  1.6438  0.8515
  150MOL   H20439242   5.804   7.059   2.261  2.8929 -0.5720  0.6548
  150MOL   H20539243   6.071   7.024   2.294 -1.3331  0.9934 -1.5772
  150MOL   H20639244   5.977   7.169   2.338 -0.3461  0.7496 -1.1296
  150MOL   H20739245   6.080   7.091   2.459  2.8621 -1.4326 -1.9522
  150MOL   H20839246   5.518   6.822   2.265  1.2481 -3.9102 -0.5899
  150MOL   H20939247   5.656   6.881   2.168 -0.9032 -0.3733 -0.9323
  150MOL   C21039248   5.696   6.705   2.296 -0.5451 -0.1432  0.2893
  150MOL   N21139249   5.689   6.618   2.178 -0.0835 -0.2070  0.5973
  150MOL   C21239250   5.768   6.512   2.147  0.4777  0.3087 -0.5490
  150MOL   O21339251   5.857   6.469   2.220  0.2945  0.5977  0.0892
  150MOL   C21439252   5.741   6.435   2.012 -0.3497  0.4900 -0.5491
  150MOL   C21539253   5.651   6.644   2.427  0.6931  1.4058 -0.3115
  150MOL   H21639254   5.803   6.722   2.310 -0.3288 -0.3985 -0.9773
  150MOL   H21739255   5.618   6.627   2.106  0.2526  0.6503  0.3730
  150MOL   H21839256   5.725   6.329   2.031  0.3900 -0.2322 -3.6868
  150MOL   H21939257   5.645   6.472   1.975 -0.9499 -2.2065 -1.8723
  150MOL   H22039258   5.819   6.454   1.938 -2.4648 -0.4015 -3.0968
  150MOL   H22139259   5.718   6.559   2.442 -0.3290  0.6475  0.0430
  150MOL   H22239260   5.690   6.714   2.501  1.8142 -0.4533  0.9053
  150MOL   C22339261   5.501   6.605   2.446  0.1491  0.3228 -0.5999
  150MOL   N22439262   5.459   6.669   2.566  0.2454  0.0179  0.0152
  150MOL   C22539263   5.383   6.782   2.580  0.1481  0.1182  0.6939
  150MOL   O22639264   5.312   6.828   2.490 -0.3770 -0.8891  0.2307
  150MOL   C22739265   5.385   6.830   2.719  0.4626  0.1421  0.5777
  150MOL   C22839266   5.490   6.454   2.451  0.0216  0.6814  0.1033
  150MOL   H22939267   5.445   6.638   2.359  2.5622 -0.5554 -2.5562
  150MOL   H23039268   5.495   6.622   2.648 -0.2887 -0.4128  0.0052
  150MOL   H23139269   5.391   6.747   2.790  3.4849  0.9511  1.3206
  150MOL   H23239270   5.478   6.883   2.741  0.1414 -0.1044  2.6956
  150MOL   H23339271   5.295   6.891   2.731  0.0658 -0.2730 -0.2514
  150MOL   H23439272   5.534   6.403   2.365 -0.1925 -0.8129  0.8512
  150MOL   H23539273   5.546   6.412   2.535  0.2339 -0.4377 -0.5811
  150MOL   C23639274   5.347   6.399   2.462 -0.7097  0.2805 -0.2504
  150MOL   N23739275   5.327   6.336   2.593 -0.5365  0.7115 -0.7752
  150MOL   C23839276   5.307   6.397   2.714  0.1924  0.0791 -0.4340
  150MOL   O23939277   5.270   6.516   2.722  0.3599  0.0501  0.1101
  150MOL   C24039278   5.343   6.315   2.839 -0.2756  0.0657  0.3037
  150MOL   C24139279   5.317   6.290   2.352 -0.2324  0.2408  0.1728
  150MOL   H24239280   5.280   6.483   2.439  1.4907  1.6937 -1.6848
  150MOL   H24339281   5.350   6.238   2.585 -2.0673  0.2356  0.4252
  150MOL   H24439282   5.349   6.211   2.808  2.6273  0.3301 -0.1825
  150MOL   H24539283   5.444   6.325   2.878  1.1715 -1.8711 -2.6972
  150MOL   H24639284   5.267   6.326   2.916 -0.0341 -1.7578  0.8307
  150MOL   H24739285   5.383   6.204   2.358 -0.7796 -0.3314 -1.4927
  150MOL   H24839286   5.224   6.240   2.381 -1.5088  1.2467 -2.0104
  150MOL   C24939287   5.321   6.335   2.206  0.0236 -0.4022 -0.8162
  150MOL   N25039288   5.243   6.458   2.179 -0.4545 -0.1441  0.2230
  150MOL   C25139289   5.291   6.570   2.128 -0.1572 -0.2224  1.1203
  150MOL   O25239290   5.407   6.582   2.099 -0.1076 -0.0327 -0.2317
  150MOL   C25339291   5.200   6.689   2.096 -0.4844  0.5093 -0.3318
  150MOL   C25439292   5.272   6.232   2.109  0.9707 -0.1669 -0.6423
  150MOL   H25539293   5.426   6.353   2.184 -0.3450  2.4609 -0.3918
  150MOL   H25639294   5.143   6.462   2.196 -0.5403 -0.2471 -0.2465
  150MOL   H25739295   5.260   6.780   2.101  0.3330 -0.1340  2.0194
  150MOL   H25839296   5.150   6.677   1.999 -1.5355  0.4280  0.2151
  150MOL   H25939297   5.126   6.703   2.175  0.1280  1.0235  0.1499
  150MOL   H26039298   5.330   6.140   2.114  1.4749  0.2234  1.1008
  150MOL   H26139299   5.168   6.208   2.132  0.5279  3.0340  1.0819
  150MOL   H26239300   5.262   6.263   2.005  0.8713  0.7588 -0.3651
  151MOL     C139301   4.327   2.148   6.260  0.0718 -0.7234  0.4671
  151MOL     N239302   4.322   2.285   6.313  0.2305 -0.4111  0.1232
  151MOL     C339303   4.251   2.385   6.258 -0.0950  0.0586 -0.1202
  151MOL     O439304   4.193   2.371   6.152  0.2747  0.0220 -0.7055
  151MOL     C539305   4.240   2.506   6.344 -0.2667 -0.3940  0.0478
  151MOL     C639306   4.225   2.058   6.329 -0.4103 -0.5516 -0.0008
  151MOL     H739307   4.323   2.140   6.152 -0.0538  0.8900  0.3399
  151MOL     H839308   4.367   2.306   6.401 -0.5655 -0.1379  0.4659
  151MOL     H939309   4.327   2.528   6.406 -1.2275  1.0370  0.9213
  151MOL    H1039310   4.225   2.592   6.279 -1.5053  0.5180  1.5191
  151MOL    H1139311   4.150   2.474   6.397 -0.0498  2.5270  2.2741
  151MOL    H1239312   4.231   2.091   6.433 -2.7296 -0.6917  0.2011
  151MOL    H1339313   4.126   2.085   6.293 -0.7590 -1.4126  0.2808
  151MOL    H1439314   4.427   2.119   6.292  0.7958  0.7021 -0.4202
  151MOL    C1539315   4.248   1.908   6.310  0.0058  0.3173 -0.4730
  151MOL    N1639316   4.344   1.853   6.401 -0.2751  0.3060  0.4947
  151MOL    C1739317   4.355   1.732   6.450  0.2659  0.3107 -0.7103
  151MOL    O1839318   4.285   1.643   6.412  0.2848  0.0288 -0.1181
  151MOL    C1939319   4.469   1.710   6.548  0.2072  0.2155  0.1016
  151MOL    C2039320   4.280   1.869   6.165  0.2554  0.5500 -0.4290
  151MOL    H2139321   4.151   1.863   6.331  0.7070 -1.3184 -0.6808
  151MOL    H2239322   4.385   1.928   6.455 -1.4170  0.7523  0.7691
  151MOL    H2339323   4.564   1.749   6.511  0.3307 -1.0531 -0.9649
  151MOL    H2439324   4.437   1.738   6.648 -1.6015 -1.8616  0.1466
  151MOL    H2539325   4.499   1.605   6.547  0.0403  0.1643  0.5617
  151MOL    H2639326   4.381   1.903   6.144  0.3617  0.8661  0.5836
  151MOL    H2739327   4.287   1.760   6.159  1.0073  0.5262  0.7004
  151MOL    C2839328   4.169   1.906   6.064  0.6644 -0.1242  0.1904
  151MOL    N2939329   4.038   1.849   6.089 -0.9009 -0.1859  0.3318
  151MOL    C3039330   3.931   1.926   6.116  0.2648 -0.4680  0.0740
  151MOL    O3139331   3.945   2.051   6.114 -0.4948 -0.4999 -0.2814
  151MOL    C3239332   3.799   1.853   6.138  0.4857 -0.7318  0.0257
  151MOL    C3339333   4.202   1.860   5.921 -0.4242  0.1535 -0.4004
  151MOL    H3439334   4.160   2.014   6.050  1.9615  0.0204  0.4226
  151MOL    H3539335   4.042   1.749   6.100  2.0130 -0.1994 -0.4736
  151MOL    H3639336   3.757   1.802   6.052  1.1840  0.9403 -1.3466
  151MOL    H3739337   3.798   1.779   6.218  1.5501 -0.8066 -0.0160
  151MOL    H3839338   3.721   1.925   6.162  0.7375 -1.1262  2.1357
  151MOL    H3939339   4.246   1.760   5.926  0.1053  0.2799 -2.1026
  151MOL    H4039340   4.106   1.855   5.870 -0.7471  0.3014  0.1956
  151MOL    C4139341   4.319   1.943   5.849  0.0783 -0.0943 -0.0990
  151MOL    N4239342   4.275   2.076   5.817 -0.3470 -0.7796  0.1133
  151MOL    C4339343   4.346   2.190   5.826 -0.3395  0.0465  0.2785
  151MOL    O4439344   4.449   2.196   5.890  0.0810  0.6086 -0.6092
  151MOL    C4539345   4.297   2.313   5.753  0.3915 -0.4211  0.7408
  151MOL    C4639346   4.384   1.864   5.731 -0.5741 -0.7508 -0.0554
  151MOL    H4739347   4.391   1.953   5.930 -1.1883  0.4839  0.9606
  151MOL    H4839348   4.185   2.078   5.772  0.3807 -1.7898 -1.4253
  151MOL    H4939349   4.240   2.377   5.821  1.2030  0.7234  0.3515
  151MOL    H5039350   4.387   2.369   5.728 -0.8715  0.6638 -1.5616
  151MOL    H5139351   4.239   2.290   5.664  0.3436 -0.4046  0.7674
  151MOL    H5239352   4.318   1.783   5.701  0.7627 -0.8185 -2.9578
  151MOL    H5339353   4.409   1.931   5.649 -2.4950  0.7189  0.5299
  151MOL    C5439354   4.515   1.797   5.782  0.4126 -0.0135 -0.0439
  151MOL    N5539355   4.628   1.897   5.804 -0.3077  0.2959  0.6484
  151MOL    C5639356   4.702   1.909   5.917 -0.8028  0.5198  0.3566
  151MOL    O5739357   4.734   1.813   5.986  0.3459  0.2099  0.0095
  151MOL    C5839358   4.749   2.049   5.956 -0.0386  0.4069  0.3640
  151MOL    C5939359   4.569   1.675   5.702 -0.6414 -0.4430  0.4488
  151MOL    H6039360   4.494   1.748   5.876  0.3317  0.4709  0.1945
  151MOL    H6139361   4.616   1.977   5.744  1.2142 -1.0827 -1.5751
  151MOL    H6239362   4.706   2.116   5.881  3.4028 -1.0163 -3.0956
  151MOL    H6339363   4.710   2.066   6.056  0.1572  0.8302  0.3695
  151MOL    H6439364   4.856   2.070   5.952 -0.0889  0.9427  1.6901
  151MOL    H6539365   4.666   1.650   5.745  0.2421 -0.8346 -1.7274
  151MOL    H6639366   4.508   1.590   5.731 -0.4668 -1.6005 -2.4744
  151MOL    C6739367   4.609   1.691   5.553  0.5151  0.0594  0.0403
  151MOL    N6839368   4.483   1.707   5.477 -0.2285 -0.4010 -1.1156
  151MOL    C6939369   4.452   1.782   5.374 -0.0700 -0.3275  0.6827
  151MOL    O7039370   4.541   1.861   5.333  0.4071  0.0213 -0.2391
  151MOL    C7139371   4.311   1.785   5.308 -0.3880  0.1867  0.1854
  151MOL    C7239372   4.697   1.576   5.496 -0.5920  0.0837 -0.6955
  151MOL    H7339373   4.659   1.788   5.546  1.0918 -0.2868 -0.8063
  151MOL    H7439374   4.412   1.641   5.505  0.5870  0.7505  4.3237
  151MOL    H7539375   4.253   1.708   5.358  0.4214 -0.3873  0.2520
  151MOL    H7639376   4.267   1.884   5.295  1.6857  1.0716 -0.2556
  151MOL    H7739377   4.322   1.745   5.207  1.6261 -0.2345  0.5445
  151MOL    H7839378   4.760   1.541   5.578 -2.8897  0.0384  1.1032
  151MOL    H7939379   4.631   1.493   5.471  0.5454 -1.1665  0.3597
  151MOL    C8039380   4.791   1.623   5.391 -0.6329  0.6146 -0.7153
  151MOL    N8139381   4.809   1.523   5.284 -0.2092  0.2042  0.0890
  151MOL    C8239382   4.882   1.409   5.289  0.2115  0.8237 -0.1808
  151MOL    O8339383   4.943   1.375   5.390  0.5324 -0.2510  0.4804
  151MOL    C8439384   4.902   1.336   5.157 -0.1834 -0.1203 -0.2139
  151MOL    C8539385   4.926   1.677   5.436  0.3063 -0.5867 -0.4337
  151MOL    H8639386   4.752   1.709   5.336  1.4217  0.9009 -1.7522
  151MOL    H8739387   4.762   1.549   5.199  0.7688 -1.6154 -1.0506
  151MOL    H8839388   4.822   1.264   5.142 -0.1043 -0.3165  0.2792
  151MOL    H8939389   4.891   1.404   5.072  1.6587  0.9705  0.3936
  151MOL    H9039390   4.994   1.280   5.138  0.8532  1.2746  0.5791
  151MOL    H9139391   4.977   1.598   5.491  0.1746  1.8498  3.3375
  151MOL    H9239392   4.987   1.686   5.346 -0.3047 -0.9398 -0.8952
  151MOL    C9339393   4.936   1.797   5.534 -0.1003  0.3208  0.2860
  151MOL    N9439394   4.907   1.914   5.448  0.1551  0.1631 -0.2373
  151MOL    C9539395   4.830   2.021   5.483 -0.1565  0.2445  0.1302
  151MOL    O9639396   4.788   2.040   5.596 -0.9365  0.3828  1.3531
  151MOL    C9739397   4.795   2.130   5.377  0.3851 -0.2356  0.2652
  151MOL    C9839398   5.072   1.823   5.601  0.5236  0.1723 -0.4528
  151MOL    H9939399   4.858   1.806   5.610 -0.5679 -0.6315 -0.0706
  151MOL   H10039400   4.966   1.934   5.368  0.5150 -0.2424 -0.0708
  151MOL   H10139401   4.746   2.210   5.433  1.1968 -0.7892  1.7907
  151MOL   H10239402   4.886   2.169   5.332 -1.0662  1.6617 -1.1385
  151MOL   H10339403   4.734   2.096   5.293  0.5375  0.8750 -0.3106
  151MOL   H10439404   5.143   1.818   5.518 -0.1506 -0.4761 -0.9937
  151MOL   H10539405   5.077   1.926   5.636  0.8650 -0.5580  1.6753
  151MOL   C10639406   5.124   1.739   5.724 -0.2309 -0.0590  0.8908
  151MOL   N10739407   5.127   1.596   5.693  0.3339 -0.2006  0.1435
  151MOL   C10839408   5.229   1.528   5.626  0.7277  0.0691 -0.2617
  151MOL   O10939409   5.308   1.600   5.561  0.8046  0.3190 -0.0518
  151MOL   C11039410   5.245   1.375   5.651  0.3195  0.0299 -1.0488
  151MOL   C11139411   5.038   1.771   5.850  0.4156  0.4052 -1.1320
  151MOL   H11239412   5.228   1.761   5.749  0.8502 -2.5259 -1.1524
  151MOL   H11339413   5.068   1.527   5.737  1.4961 -1.1579  0.2061
  151MOL   H11439414   5.174   1.326   5.586  0.6258 -1.5402 -0.2161
  151MOL   H11539415   5.348   1.339   5.643  0.4752  0.2148 -0.0209
  151MOL   H11639416   5.225   1.366   5.758 -1.0443 -0.6667 -1.3528
  151MOL   H11739417   5.033   1.880   5.862 -2.6735  0.2604 -0.8000
  151MOL   H11839418   4.935   1.738   5.836  0.7235 -1.6773  1.1718
  151MOL   C11939419   5.102   1.698   5.975  0.8540 -0.2060 -0.0564
  151MOL   N12039420   5.009   1.680   6.089 -0.0282 -0.2294  0.0451
  151MOL   C12139421   5.029   1.593   6.192  0.0154  0.4768  0.0079
  151MOL   O12239422   5.130   1.526   6.193 -0.7925 -0.1027  0.0503
  151MOL   C12339423   4.932   1.568   6.300 -0.3759  0.2914  0.1338
  151MOL   C12439424   5.222   1.783   6.024  0.2537  0.6646  0.0355
  151MOL   H12539425   5.134   1.599   5.944  0.3564 -0.4668  0.2594
  151MOL   H12639426   4.923   1.733   6.081 -0.8360 -1.6130 -0.5788
  151MOL   H12739427   4.980   1.550   6.397  2.8192  0.0965 -1.4019
  151MOL   H12839428   4.876   1.661   6.297  0.3876  0.7692  0.4083
  151MOL   H12939429   4.865   1.483   6.293 -0.3057  0.3018 -0.6887
  151MOL   H13039430   5.225   1.881   5.978  2.1195  1.6573  2.1846
  151MOL   H13139431   5.200   1.811   6.127 -0.2614 -0.8696  0.3671
  151MOL   C13239432   5.362   1.715   6.017  0.0355  0.0192  0.8688
  151MOL   N13339433   5.365   1.582   6.072 -0.6164  0.5055  0.2845
  151MOL   C13439434   5.448   1.482   6.041 -0.4172  0.3291 -0.0813
  151MOL   O13539435   5.538   1.480   5.955  0.0082  0.3799 -0.3982
  151MOL   C13639436   5.404   1.349   6.106  0.2030 -0.3586 -0.3948
  151MOL   C13739437   5.479   1.805   6.070  0.3996 -0.1363  0.4594
  151MOL   H13839438   5.385   1.701   5.911  0.8743  2.2882  0.7122
  151MOL   H13939439   5.282   1.545   6.115 -1.8738  1.1732 -1.5459
  151MOL   H14039440   5.296   1.342   6.103  0.3013 -1.5857 -2.9161
  151MOL   H14139441   5.435   1.265   6.043  2.1335  0.1261 -0.1431
  151MOL   H14239442   5.432   1.341   6.211  0.7152  1.8961 -0.3402
  151MOL   H14339443   5.458   1.829   6.174  0.9059 -1.7045  0.9218
  151MOL   H14439444   5.571   1.748   6.071  0.1840 -0.5246  4.2630
  151MOL   C14539445   5.503   1.937   6.003  0.3421  0.1592 -0.2396
  151MOL   N14639446   5.545   1.915   5.861 -0.0116 -0.5304  0.0761
  151MOL   C14739447   5.475   1.950   5.750  0.1219  0.4809  0.0118
  151MOL   O14839448   5.358   1.992   5.750  0.0953 -0.1303  0.5268
  151MOL   C14939449   5.552   1.938   5.619  0.0500  0.1463 -0.3805
  151MOL   C15039450   5.611   2.021   6.081  0.2196 -0.2186 -0.6143
  151MOL   H15139451   5.413   1.999   6.006  1.1880  1.3846  0.6261
  151MOL   H15239452   5.640   1.883   5.856  1.0497  2.2504  1.1496
  151MOL   H15339453   5.546   2.035   5.569 -0.4938 -0.1020 -0.7972
  151MOL   H15439454   5.658   1.923   5.641  0.8765  2.6667 -2.4443
  151MOL   H15539455   5.522   1.863   5.546 -2.5233  1.2693 -0.5064
  151MOL   H15639456   5.591   2.127   6.069  2.4545  0.3405  0.3173
  151MOL   H15739457   5.593   1.994   6.185 -1.4349  2.9204 -0.0129
  151MOL   C15839458   5.761   2.004   6.039 -0.6437 -0.4776 -0.4114
  151MOL   N15939459   5.806   1.863   6.060  0.3258  0.0369  0.1477
  151MOL   C16039460   5.832   1.764   5.975  0.5323 -0.0472  0.3738
  151MOL   O16139461   5.808   1.772   5.849  0.3682 -0.5131 -0.0490
  151MOL   C16239462   5.865   1.624   6.022  0.4997  0.8883 -0.2687
  151MOL   C16339463   5.866   2.088   6.118  0.8510  1.1541 -0.4928
  151MOL   H16439464   5.771   2.018   5.932 -1.0662 -0.8913 -0.5070
  151MOL   H16539465   5.823   1.839   6.156 -0.4328 -1.8768 -0.1755
  151MOL   H16639466   5.801   1.603   6.107  1.7609  2.5829  1.1540
  151MOL   H16739467   5.860   1.546   5.946  0.9375  0.6125 -0.0178
  151MOL   H16839468   5.964   1.611   6.067  0.2763 -1.9997 -0.5337
  151MOL   H16939469   5.856   2.075   6.226 -0.8245  1.9110 -0.5397
  151MOL   H17039470   5.963   2.051   6.085  1.2308  0.4276  1.4070
  151MOL   C17139471   5.871   2.237   6.087 -0.4742 -0.3002 -0.2187
  151MOL   N17239472   5.936   2.256   5.954 -0.3057 -0.6122  0.0416
  151MOL   C17339473   5.870   2.273   5.841 -0.1299  0.9468  0.0427
  151MOL   O17439474   5.752   2.238   5.831  0.0023 -0.0299 -0.3410
  151MOL   C17539475   5.948   2.328   5.725  0.1369 -0.0155  0.5407
  151MOL   C17639476   5.962   2.310   6.192  0.5856  0.5073 -0.3082
  151MOL   H17739477   5.773   2.281   6.104 -0.5038 -0.7330  0.7702
  151MOL   H17839478   6.035   2.279   5.959 -0.3890 -0.0168 -0.9722
  151MOL   H17939479   5.909   2.422   5.686  0.7905 -1.2341 -3.2985
  151MOL   H18039480   6.056   2.332   5.736  0.4671  0.9832 -2.3779
  151MOL   H18139481   5.943   2.269   5.633  1.7432 -0.5682  0.8027
  151MOL   H18239482   5.949   2.256   6.286  1.0819 -0.1639 -0.6148
  151MOL   H18339483   6.070   2.297   6.182  0.5459 -0.6877  0.6224
  151MOL   C18439484   5.925   2.454   6.241 -0.6583  0.1698  0.0012
  151MOL   N18539485   5.807   2.460   6.329 -0.1196  0.2340  0.3033
  151MOL   C18639486   5.797   2.408   6.454 -0.6104  1.1522 -0.2092
  151MOL   O18739487   5.885   2.345   6.512  0.7298  0.0420 -0.0021
  151MOL   C18839488   5.673   2.436   6.539 -0.3823 -0.9772  0.2564
  151MOL   C18939489   5.905   2.556   6.132 -0.5297 -0.7449  0.6002
  151MOL   H19039490   6.010   2.480   6.304  0.3073 -0.0963 -1.1788
  151MOL   H19139491   5.726   2.511   6.296 -0.7285  0.1047  1.5961
  151MOL   H19239492   5.705   2.482   6.632 -0.9129 -0.7277  0.3230
  151MOL   H19339493   5.621   2.518   6.490 -0.2415 -0.7331  0.5130
  151MOL   H19439494   5.609   2.353   6.569  0.2550 -1.1978  1.0210
  151MOL   H19539495   5.822   2.519   6.072 -1.0639  1.6091 -0.1843
  151MOL   H19639496   5.895   2.658   6.170  3.0631 -0.4809  1.0253
  151MOL   C19739497   6.029   2.567   6.039  0.2877 -0.0938 -0.1676
  151MOL   N19839498   6.154   2.608   6.110  0.3212 -0.0102  0.0894
  151MOL   C19939499   6.172   2.710   6.198  0.7542  0.4262 -0.0771
  151MOL   O20039500   6.087   2.795   6.208  0.7085 -0.1796 -0.8136
  151MOL   C20139501   6.311   2.733   6.260 -0.0480 -0.6273  0.1326
  151MOL   C20239502   5.997   2.659   5.916  0.3386  0.4562 -0.3722
  151MOL   H20339503   6.058   2.478   5.983  5.7282  0.9229  0.7744
  151MOL   H20439504   6.228   2.540   6.101  0.2102 -0.4267  2.0232
  151MOL   H20539505   6.306   2.821   6.324 -0.3813 -0.5658  0.0252
  151MOL   H20639506   6.333   2.654   6.331  1.6355 -0.0178  0.2918
  151MOL   H20739507   6.390   2.742   6.185 -1.1322 -0.1910 -0.9861
  151MOL   H20839508   5.957   2.592   5.841  2.0787 -1.2452  0.1804
  151MOL   H20939509   5.905   2.714   5.938  0.3381  0.7259 -1.0447
  151MOL   C21039510   6.101   2.767   5.864 -1.0179 -0.4970 -0.8450
  151MOL   N21139511   6.025   2.855   5.774 -0.0442 -0.6850 -0.2966
  151MOL   C21239512   5.972   2.971   5.811  0.0193 -0.0724  0.2445
  151MOL   O21339513   5.985   3.023   5.923 -0.5351 -0.0936  0.0043
  151MOL   C21439514   5.915   3.044   5.692  0.2440  0.0014 -0.7155
  151MOL   C21539515   6.220   2.712   5.778  0.2759 -0.7016  0.3766
  151MOL   H21639516   6.148   2.822   5.945 -1.1598 -0.5066 -0.7550
  151MOL   H21739517   6.049   2.856   5.676 -0.0843  1.2215 -0.3152
  151MOL   H21839518   5.864   2.968   5.633 -1.8987  0.0384  1.0622
  151MOL   H21939519   5.844   3.123   5.719 -1.0902 -1.3715 -0.1875
  151MOL   H22039520   5.992   3.091   5.629 -1.7919  1.0660 -2.4949
  151MOL   H22139521   6.280   2.653   5.848  3.1015  0.7859 -0.6975
  151MOL   H22239522   6.191   2.639   5.703  0.7889  0.1931 -0.7016
  151MOL   C22339523   6.312   2.821   5.725  0.0368  0.8490 -0.2564
  151MOL   N22439524   6.270   2.831   5.589  0.1157  0.3213 -0.4152
  151MOL   C22539525   6.240   2.944   5.525 -0.2700  0.0986  0.2483
  151MOL   O22639526   6.230   3.050   5.586  0.4842  0.0293  0.1814
  151MOL   C22739527   6.205   2.937   5.379 -0.2929 -0.2833  0.1213
  151MOL   C22839528   6.461   2.779   5.741 -0.0246 -0.9374 -0.1799
  151MOL   H22939529   6.284   2.912   5.779 -1.3022  1.4108 -1.8558
  151MOL   H23039530   6.292   2.749   5.534 -0.6314  0.8719 -1.5456
  151MOL   H23139531   6.256   3.012   5.319  2.9077 -1.0432  1.7728
  151MOL   H23239532   6.235   2.842   5.336 -0.8668 -0.3472 -0.1357
  151MOL   H23339533   6.098   2.948   5.360 -0.4104 -1.7369 -0.1326
  151MOL   H23439534   6.477   2.748   5.844  0.9316  1.3902  0.4289
  151MOL   H23539535   6.493   2.696   5.678  0.1070 -1.3888  0.4805
  151MOL   C23639536   6.554   2.907   5.719 -0.1025  0.1531 -0.6781
  151MOL   N23739537   6.558   2.961   5.582 -0.1665  0.0952 -0.0484
  151MOL   C23839538   6.597   2.897   5.470 -0.3066  0.7415 -0.7859
  151MOL   O23939539   6.629   2.774   5.462  0.3299 -0.4237  0.2855
  151MOL   C24039540   6.613   2.986   5.347  0.5055 -0.8960 -0.1243
  151MOL   C24139541   6.689   2.893   5.797 -1.3008 -0.1378 -1.1630
  151MOL   H24239542   6.509   2.995   5.766 -3.4041 -1.9764  0.3980
  151MOL   H24339543   6.539   3.060   5.584 -0.7867 -0.0446  2.1298
  151MOL   H24439544   6.566   3.083   5.363 -1.3820 -1.6885 -0.6238
  151MOL   H24539545   6.718   3.015   5.343  0.4106 -0.7567 -2.1842
  151MOL   H24639546   6.595   2.946   5.247 -2.2597 -0.1407  0.0286
  151MOL   H24739547   6.710   2.786   5.784  0.3379 -0.0905  0.7516
  151MOL   H24839548   6.766   2.935   5.734  0.1996 -1.3769 -0.1949
  151MOL   C24939549   6.710   2.950   5.936 -0.4380 -0.2518  0.1262
  151MOL   N25039550   6.837   2.905   5.982  0.1045  0.6853  0.5265
  151MOL   C25139551   6.936   2.978   6.023 -0.6927 -0.2692  0.4086
  151MOL   O25239552   6.945   3.099   6.026 -0.0543  0.4057  0.6072
  151MOL   C25339553   7.058   2.897   6.061  0.0382  0.0530  0.0391
  151MOL   C25439554   6.599   2.921   6.045  0.1148 -0.0091 -0.0337
  151MOL   H25539555   6.709   3.057   5.916 -2.1528 -0.0522  1.2439
  151MOL   H25639556   6.851   2.806   5.965 -1.9362  0.5020 -0.2374
  151MOL   H25739557   7.027   2.828   6.139 -1.3042 -1.1342 -1.4935
  151MOL   H25839558   7.099   2.844   5.975 -0.1247 -1.2757  0.7701
  151MOL   H25939559   7.128   2.971   6.099  0.0837 -0.5276  1.0923
  151MOL   H26039560   6.580   2.814   6.052 -0.8134  0.1393 -0.1886
  151MOL   H26139561   6.624   2.960   6.144  0.2034 -0.4005  0.0983
  151MOL   H26239562   6.509   2.966   6.003  0.2423 -0.0524 -0.3584
  152MOL     C139563   2.483   2.996   7.710  0.3266  0.7271 -0.1851
  152MOL     N239564   2.389   2.939   7.800  0.3022 -0.2882  0.4421
  152MOL     C339565   2.290   3.008   0.015  0.7034  0.3170 -0.6392
  152MOL     O439566   2.259   3.125   7.825 -0.3295 -0.2850 -0.1520
  152MOL     C539567   2.217   2.944   0.136  1.2958  0.3111 -0.4706
  152MOL     C639568   2.580   3.102   7.775 -0.2346 -0.4333  0.6070
  152MOL     H739569   2.544   2.926   7.653  0.4587  1.1520 -0.5684
  152MOL     H839570   2.407   2.847   7.837 -0.4079 -0.1174  1.2338
  152MOL     H939571   2.251   2.845   0.163 -0.0871 -0.0249  0.0649
  152MOL    H1039572   2.215   3.001   0.230  0.6702 -0.7540  0.1646
  152MOL    H1139573   2.113   2.932   0.106  0.4396  0.7823  2.1846
  152MOL    H1239574   2.525   3.164   0.006  0.6353  0.1176  0.8094
  152MOL    H1339575   2.649   3.045   7.838  1.3543  0.6144 -0.1433
  152MOL    H1439576   2.415   3.028   7.631 -2.6727 -0.8340  1.6696
  152MOL    C1539577   2.668   3.196   7.684 -0.2206 -0.1216 -0.3106
  152MOL    N1639578   2.728   3.283   7.784  0.1399  0.0429  0.0759
  152MOL    C1739579   2.842   3.354   7.773  0.1819 -0.5207  0.5175
  152MOL    O1839580   2.919   3.354   7.675  0.3768 -0.7254  0.1813
  152MOL    C1939581   2.871   3.452   0.045 -0.2069 -0.2348  0.6636
  152MOL    C2039582   2.588   3.260   7.569  0.0687  0.2104 -0.3536
  152MOL    H2139583   2.737   3.121   7.644 -0.6546 -1.3285  1.1940
  152MOL    H2239584   2.682   3.288   0.034  1.3990  0.5752  0.7146
  152MOL    H2339585   2.852   3.417   0.147 -0.4329 -2.8456 -0.2260
  152MOL    H2439586   2.978   3.469   0.056 -0.2778  0.6594 -0.0301
  152MOL    H2539587   2.813   3.544   0.036 -1.1148 -0.8334  0.3217
  152MOL    H2639588   2.520   3.185   7.529  1.1498 -0.5259 -0.7993
  152MOL    H2739589   2.520   3.337   7.608  0.1387  1.0339 -1.8376
  152MOL    C2839590   2.661   3.312   7.444  0.2542  0.0817  0.2357
  152MOL    N2939591   2.555   3.380   7.364 -0.2845  0.5732  0.3369
  152MOL    C3039592   2.561   3.506   7.332 -0.1377  0.0919 -0.4997
  152MOL    O3139593   2.649   3.579   7.363 -0.1826 -0.7708 -0.0353
  152MOL    C3239594   2.436   3.545   7.243  0.3715 -0.0713 -0.3995
  152MOL    C3339595   2.734   3.190   7.367  0.0686 -0.3417  0.2114
  152MOL    H3439596   2.736   3.378   7.487  2.4994 -2.5005  0.4499
  152MOL    H3539597   2.475   3.322   7.348 -0.7681  1.7339 -1.6863
  152MOL    H3639598   2.416   3.487   7.153 -4.2092 -1.5504  1.4002
  152MOL    H3739599   2.343   3.558   7.299  0.1874  0.3486 -0.7994
  152MOL    H3839600   2.443   3.642   7.193 -0.7893 -0.9517 -2.3111
  152MOL    H3939601   2.826   3.156   7.414 -0.1933 -4.0554 -1.7549
  152MOL    H4039602   2.664   3.106   7.364  2.3334 -2.2232 -0.6771
  152MOL    C4139603   2.769   3.233   7.223 -0.2027 -0.0173 -0.8939
  152MOL    N4239604   2.842   3.129   7.149  0.2403  0.1389  0.0673
  152MOL    C4339605   2.819   3.003   7.121  0.5142  0.1998 -0.9565
  152MOL    O4439606   2.715   2.942   7.153  0.0532 -0.1377  0.0323
  152MOL    C4539607   2.934   2.916   7.070 -0.0748 -0.1280 -0.5097
  152MOL    C4639608   2.865   3.354   7.223  1.0413  0.1588 -0.3138
  152MOL    H4739609   2.675   3.261   7.176 -0.2518 -1.5955 -1.7585
  152MOL    H4839610   2.922   3.146   7.091 -0.8843 -2.3293 -2.3549
  152MOL    H4939611   2.905   2.859   6.981  1.8546 -1.8843 -0.0751
  152MOL    H5039612   3.013   2.984   7.036  0.1796  0.5196  1.3362
  152MOL    H5139613   2.977   2.845   7.142 -0.6116  0.7334  0.6670
  152MOL    H5239614   2.837   3.418   7.306  1.2324  0.1790 -0.2650
  152MOL    H5339615   2.968   3.328   7.245  0.8162 -0.5391 -0.0702
  152MOL    C5439616   2.864   3.437   7.086 -0.4300  0.2181 -0.4261
  152MOL    N5539617   2.920   3.370   6.972  0.1122  0.2559  0.6975
  152MOL    C5639618   2.850   3.321   6.873  0.5209 -0.3337 -0.1578
  152MOL    O5739619   2.728   3.350   6.870 -0.9074 -0.1356  0.6096
  152MOL    C5839620   2.916   3.236   6.763 -0.2390 -0.4609 -0.8420
  152MOL    C5939621   2.939   3.573   7.101  0.0853  0.1713 -0.4576
  152MOL    H6039622   2.756   3.450   7.080 -0.4564 -0.0227 -0.4720
  152MOL    H6139623   3.020   3.383   6.962  0.2605 -1.4758 -0.2553
  152MOL    H6239624   3.002   3.293   6.727 -1.5740  1.1706 -1.5464
  152MOL    H6339625   2.955   3.153   6.821 -2.2080 -1.9615 -1.6290
  152MOL    H6439626   2.849   3.200   6.685 -3.3133  0.1769  1.4089
  152MOL    H6539627   2.920   3.611   7.201  1.4208 -1.7047  0.5243
  152MOL    H6639628   3.047   3.560   7.096  0.1489 -0.7019  2.3531
  152MOL    C6739629   2.893   3.676   6.993 -0.0006 -0.4909  0.4224
  152MOL    N6839630   2.991   3.787   6.997  0.1373  0.3742 -0.0145
  152MOL    C6939631   3.036   3.853   6.889 -0.1919 -0.2262  0.5262
  152MOL    O7039632   2.983   3.852   6.784 -0.4014 -0.8665 -0.0591
  152MOL    C7139633   3.169   3.930   6.905  0.6495  0.6114 -0.8025
  152MOL    C7239634   2.753   3.726   7.008  0.0529 -0.5426 -0.0210
  152MOL    H7339635   2.902   3.623   6.898  1.7600  1.3448 -0.4577
  152MOL    H7439636   3.042   3.796   7.084  0.5976 -1.8074 -0.0303
  152MOL    H7539637   3.192   3.939   7.011 -1.8502  0.5621 -0.2178
  152MOL    H7639638   3.247   3.882   6.847 -0.5157 -0.5528 -1.4356
  152MOL    H7739639   3.151   4.025   6.853 -1.8378 -0.2325 -1.5301
  152MOL    H7839640   2.719   3.764   6.911  0.8639 -0.0098 -0.0987
  152MOL    H7939641   2.686   3.640   7.021  0.6428 -0.9933  0.0494
  152MOL    C8039642   2.737   3.843   7.111  0.1396 -0.2293  0.1627
  152MOL    N8139643   2.751   3.810   7.258 -0.0765  0.6550  0.6944
  152MOL    C8239644   2.801   3.886   7.351 -0.1627 -0.0814 -0.1428
  152MOL    O8339645   2.830   4.010   7.342 -0.1944  0.4643  0.0974
  152MOL    C8439646   2.820   3.820   7.485  0.4153 -0.5386  0.0616
  152MOL    C8539647   2.597   3.916   7.088 -1.0772 -0.7087  0.2228
  152MOL    H8639648   2.815   3.917   7.097 -0.7740  0.4465 -1.6068
  152MOL    H8739649   2.742   3.715   7.290  1.8146  0.5301  0.9248
  152MOL    H8839650   2.728   3.780   7.529  1.1029 -1.4296  0.7204
  152MOL    H8939651   2.892   3.739   7.473  1.0269  0.0800 -0.4806
  152MOL    H9039652   2.859   3.896   7.552  0.6000  0.9209 -1.6946
  152MOL    H9139653   2.521   3.869   7.150 -3.3674 -0.9508 -2.6536
  152MOL    H9239654   2.612   4.007   7.145 -1.5356 -0.3971 -0.1497
  152MOL    C9339655   2.543   3.969   6.947 -0.4164  0.3785  0.2651
  152MOL    N9439656   2.471   3.858   6.877  0.1256  0.3948  0.3561
  152MOL    C9539657   2.344   3.825   6.901 -0.1921 -0.7612  0.0000
  152MOL    O9639658   2.271   3.901   6.958 -0.1011  0.2717 -0.3279
  152MOL    C9739659   2.280   3.709   6.830  0.3447  0.3065  0.1694
  152MOL    C9839660   2.656   4.028   6.855 -0.6787  0.1493  0.0486
  152MOL    H9939661   2.479   4.057   6.961  0.9746  1.4490 -0.0275
  152MOL   H10039662   2.532   3.798   6.823  0.3426  1.9498 -1.2021
  152MOL   H10139663   2.292   3.614   6.882 -0.0898 -0.6256 -1.4148
  152MOL   H10239664   2.173   3.722   6.820  0.2667 -0.2328  0.2733
  152MOL   H10339665   2.326   3.691   6.733 -0.0404 -2.0377  0.3950
  152MOL   H10439666   2.726   3.946   6.845 -0.9676  0.0905 -1.6499
  152MOL   H10539667   2.616   4.053   6.756  0.4978 -1.2327 -0.7851
  152MOL   C10639668   2.739   4.145   6.915  0.2098  0.9296  0.3293
  152MOL   N10739669   2.645   4.263   6.930  0.1676  0.4970  0.0080
  152MOL   C10839670   2.587   4.329   6.825  0.1101  0.6091 -0.1702
  152MOL   O10939671   2.597   4.295   6.706  0.4229 -0.2592  0.0645
  152MOL   C11039672   2.484   4.436   6.861  0.9509 -0.6502  0.2457
  152MOL   C11139673   2.873   4.176   6.836  0.4461 -0.3447 -0.7812
  152MOL   H11239674   2.774   4.118   7.014  1.0734  0.5795 -0.0674
  152MOL   H11339675   2.626   4.288   7.026  2.9746  0.8863  0.5168
  152MOL   H11439676   2.518   4.521   6.802  0.0864 -0.4004  0.1146
  152MOL   H11539677   2.382   4.423   6.825  1.1413  2.0711 -1.4872
  152MOL   H11639678   2.480   4.454   6.968  1.7042  2.6230 -0.2101
  152MOL   H11739679   2.932   4.084   6.838  1.9840  0.6556  1.3412
  152MOL   H11839680   2.837   4.201   6.736  0.4202  1.3140 -0.3668
  152MOL   C11939681   2.962   4.285   6.893 -0.1367 -0.3519 -0.8557
  152MOL   N12039682   3.068   4.304   6.795 -0.0110 -0.0057 -0.3906
  152MOL   C12139683   3.100   4.421   6.738  0.4115 -0.1215  0.5158
  152MOL   O12239684   3.036   4.523   6.760  0.4108  0.6732 -0.7322
  152MOL   C12339685   3.218   4.415   6.650 -0.4000 -0.0736 -0.5444
  152MOL   C12439686   3.021   4.261   7.031 -0.7238  0.4670  0.7086
  152MOL   H12539687   2.894   4.367   6.912  1.5285  1.0168 -0.6416
  152MOL   H12639688   3.131   4.227   6.779  1.3457  1.0776 -0.4440
  152MOL   H12739689   3.240   4.312   6.622  2.2128  0.4491 -0.4563
  152MOL   H12839690   3.196   4.475   6.561  1.8873  1.8417  0.1321
  152MOL   H12939691   3.300   4.456   6.709  0.2817  0.0019 -1.5383
  152MOL   H13039692   2.947   4.209   7.092 -0.9620 -0.3577 -0.2777
  152MOL   H13139693   3.108   4.197   7.024 -0.9402  0.0686  1.5576
  152MOL   C13239694   3.051   4.394   7.108 -0.1175  0.4223 -0.1747
  152MOL   N13339695   3.161   4.460   7.044  0.3541 -0.2998  0.4080
  152MOL   C13439696   3.182   4.592   7.060 -0.3802 -0.2056 -0.4711
  152MOL   O13539697   3.126   4.669   7.139  0.0634 -0.4346 -0.3764
  152MOL   C13639698   3.279   4.657   6.964 -0.2426 -0.2796  0.2975
  152MOL   C13739699   3.077   4.383   7.263 -0.1342  0.7242 -0.4556
  152MOL   H13839700   2.963   4.456   7.093 -0.0521  0.1965 -1.6287
  152MOL   H13939701   3.228   4.411   6.986  0.1723  1.8082 -1.6879
  152MOL   H14039702   3.290   4.761   6.995 -2.2777  0.4926 -1.4468
  152MOL   H14139703   3.377   4.609   6.963 -0.0712  0.0773 -0.4244
  152MOL   H14239704   3.241   4.658   6.862  0.5270  3.3383 -0.0206
  152MOL   H14339705   3.152   4.306   7.278  0.0018  0.9368 -0.0313
  152MOL   H14439706   3.126   4.465   7.315 -0.6625  0.0449  1.1533
  152MOL   C14539707   2.958   4.336   7.352  0.3017  0.2267  0.5366
  152MOL   N14639708   2.852   4.428   7.337  0.2859 -0.1899  0.1900
  152MOL   C14739709   2.735   4.412   7.280 -0.2929 -0.9261  0.1760
  152MOL   O14839710   2.715   4.324   7.200  0.5797  0.3088  0.0061
  152MOL   C14939711   2.630   4.516   7.304 -0.4928 -0.1945  0.1000
  152MOL   C15039712   2.989   4.321   7.505  0.2563  0.7580 -0.6750
  152MOL   H15139713   2.924   4.241   7.312 -0.5363  0.9772 -0.5384
  152MOL   H15239714   2.873   4.516   7.383 -1.3693 -0.7639  2.0802
  152MOL   H15339715   2.623   4.565   7.206 -1.5706 -0.3526  0.0872
  152MOL   H15439716   2.529   4.482   7.327 -0.3206  1.3145  3.3586
  152MOL   H15539717   2.670   4.592   7.371 -2.5424  1.1312 -0.1327
  152MOL   H15639718   3.092   4.287   7.512 -0.9796 -3.6725 -1.8593
  152MOL   H15739719   2.973   4.418   7.552  0.8315 -0.3790  1.9601
  152MOL   C15839720   2.901   4.229   7.597  0.8566  0.0230 -0.2629
  152MOL   N15939721   2.755   4.257   7.589 -0.1191  0.0606 -0.2288
  152MOL   C16039722   2.691   4.373   7.626  0.1150  0.1036  0.4531
  152MOL   O16139723   2.755   4.472   7.666 -0.2482  0.6511  0.8601
  152MOL   C16239724   2.539   4.377   7.635 -0.1051 -0.1429 -1.1034
  152MOL   C16339725   2.943   4.230   7.752  0.6550  0.0766 -0.2852
  152MOL   H16439726   2.902   4.126   7.560 -0.7899 -0.6166  1.3969
  152MOL   H16539727   2.703   4.189   7.536  2.1951 -1.6960 -0.3241
  152MOL   H16639728   2.503   4.464   7.581 -1.5148 -0.3844 -0.5773
  152MOL   H16739729   2.499   4.289   7.584 -0.1131 -0.8499  0.1030
  152MOL   H16839730   2.503   4.382   7.738 -2.0752 -3.1633 -1.5458
  152MOL   H16939731   2.961   4.336   7.773  1.4913 -0.7465  3.6571
  152MOL   H17039732   2.859   4.208   7.817  0.5776  1.3450  0.0690
  152MOL   C17139733   3.069   4.136   7.769 -0.0692 -0.2451 -0.2679
  152MOL   N17239734   3.039   4.007   7.831 -0.2949 -1.0109  0.7444
  152MOL   C17339735   3.078   3.892   7.775  0.6728  0.3235  0.1076
  152MOL   O17439736   3.148   3.890   7.677 -0.3682 -0.2883 -0.3771
  152MOL   C17539737   3.023   3.765   0.002  0.4120 -0.0098 -0.5794
  152MOL   C17639738   3.159   4.219   0.017  0.6811  0.1980  0.8173
  152MOL   H17739739   3.117   4.124   7.672 -0.4802 -1.6420 -0.3173
  152MOL   H17839740   2.984   4.014   0.076 -1.2657 -0.3056  0.0709
  152MOL   H17939741   3.095   3.700   0.052  0.8087  0.8013 -0.0932
  152MOL   H18039742   2.946   3.779   0.077 -0.4473  0.7879 -1.5953
  152MOL   H18139743   2.986   3.696   7.765  1.4688 -0.6058 -0.5655
  152MOL   H18239744   3.167   4.323   7.825 -1.6594 -0.2493 -1.3687
  152MOL   H18339745   3.107   4.236   0.111 -1.4195  2.0238 -0.6198
  152MOL   C18439746   3.306   4.166   0.029  0.2018 -0.1438  0.1728
  152MOL   N18539747   3.377   4.256   0.124  1.2257 -0.1431  0.1687
  152MOL   C18639748   3.461   4.210   0.221 -0.4971 -0.1842 -0.0211
  152MOL   O18739749   3.496   4.094   0.230 -0.1207  0.4276 -0.5344
  152MOL   C18839750   3.507   4.320   0.320 -0.2454  0.2633  0.3909
  152MOL   C18939751   3.383   4.140   7.731  0.2172 -0.4229 -0.3506
  152MOL   H19039752   3.291   4.077   0.090 -0.3256 -1.2403 -1.5126
  152MOL   H19139753   3.362   4.354   0.107  0.7957 -0.1070  0.7405
  152MOL   H19239754   3.431   4.363   0.385  2.2726  0.8680  3.0557
  152MOL   H19339755   3.602   4.289   0.363  0.1950  0.0655 -0.7000
  152MOL   H19439756   3.538   4.407   0.263  2.7679 -1.1772 -0.2600
  152MOL   H19539757   3.331   4.095   7.646  1.1574 -3.3743  0.5837
  152MOL   H19639758   3.404   4.242   7.700 -2.1355  0.4047  0.7208
  152MOL   C19739759   3.520   4.062   7.738  0.9730 -0.1534  0.0099
  152MOL   N19839760   3.609   4.109   7.629 -0.5806  0.0902  0.2133
  152MOL   C19939761   3.710   4.191   7.637  0.4607  0.5339  0.4933
  152MOL   O20039762   3.815   4.163   7.573 -0.2959 -0.1601  0.0284
  152MOL   C20139763   3.693   4.309   7.737 -0.0038  0.0838 -0.0514
  152MOL   C20239764   3.498   3.910   7.734  0.2149  0.0974  0.0106
  152MOL   H20339765   3.551   4.071   0.002 -0.8886 -1.4058  0.7057
  152MOL   H20439766   3.618   4.042   7.554  3.0201  1.1119 -0.3814
  152MOL   H20539767   3.632   4.297   7.827  1.1843 -0.1015  0.7459
  152MOL   H20639768   3.792   4.339   7.772  0.0904 -0.8168  0.4988
  152MOL   H20739769   3.655   4.389   7.674 -0.1352  0.5913  0.6700
  152MOL   H20839770   3.413   3.885   7.798  1.2404  1.1033  1.8298
  152MOL   H20939771   3.467   3.885   7.633  0.2323 -0.4190  0.1316
  152MOL   C21039772   3.621   3.823   7.772 -0.2263  0.0584 -0.0490
  152MOL   N21139773   3.609   3.693   7.707  0.7026  0.3821 -0.0495
  152MOL   C21239774   3.712   3.619   7.660  0.3590  0.4159  0.1817
  152MOL   O21339775   3.826   3.650   7.686 -0.0728 -0.0474  0.3971
  152MOL   C21439776   3.682   3.479   7.601  0.1105  0.2752  0.5264
  152MOL   C21539777   3.663   3.812   0.081 -0.2530  0.0355 -0.3688
  152MOL   H21639778   3.704   3.868   7.717  0.6764 -1.3516  0.1220
  152MOL   H21739779   3.515   3.657   7.709  1.3974 -1.4250  0.7331
  152MOL   H21839780   3.753   3.460   7.520 -0.9058  0.3887 -0.4036
  152MOL   H21939781   3.673   3.404   7.680  0.1215  0.2502  0.5037
  152MOL   H22039782   3.588   3.501   7.551  0.0626 -0.3709  0.3237
  152MOL   H22139783   3.765   3.778   0.070 -1.7963 -4.6129 -1.4597
  152MOL   H22239784   3.675   3.912   0.123  1.4907 -0.3378  0.0316
  152MOL   C22339785   3.591   3.717   0.174  0.5829 -0.1053 -0.1029
  152MOL   N22439786   3.454   3.771   0.213  0.0749 -0.1026 -0.4890
  152MOL   C22539787   3.353   3.707   0.274  0.5155 -0.1701  0.6812
  152MOL   O22639788   3.362   3.589   0.313  0.3568  0.1441  0.1112
  152MOL   C22739789   3.228   3.787   0.292  0.0976  0.5413  0.0970
  152MOL   C22839790   3.672   3.700   0.312 -0.3127  0.5387  0.5260
  152MOL   H22939791   3.579   3.616   0.135 -3.1790  0.3816 -0.3713
  152MOL   H23039792   3.437   3.868   0.188  0.7018 -0.0338 -0.6572
  152MOL   H23139793   3.218   3.872   0.225 -0.8534  0.1240 -0.3033
  152MOL   H23239794   3.155   3.711   0.262  0.6711 -0.4071  1.0612
  152MOL   H23339795   3.225   3.823   0.395 -0.1488  2.1588 -0.4646
  152MOL   H23439796   3.665   3.794   0.367  0.4592  1.1623 -0.4274
  152MOL   H23539797   3.611   3.627   0.365 -1.6103  1.4448  0.3099
  152MOL   C23639798   3.821   3.660   0.299  0.2353  0.2127  0.2122
  152MOL   N23739799   3.840   3.537   0.218  0.4637 -0.4914  0.0336
  152MOL   C23839800   3.943   3.499   0.146 -0.1150 -0.1266 -0.1862
  152MOL   O23939801   4.048   3.553   0.132  0.1833  0.1894  0.0476
  152MOL   C24039802   3.925   3.363   0.090  0.5110 -0.6235  0.0285
  152MOL   C24139803   3.866   3.636   0.441 -0.3999  0.1850 -0.4173
  152MOL   H24239804   3.876   3.741   0.251 -0.4035 -0.6479 -2.0265
  152MOL   H24339805   3.779   3.463   0.249 -0.0583  0.4560  1.3183
  152MOL   H24439806   3.908   3.362   7.822  2.2705  2.8713 -0.3392
  152MOL   H24539807   4.014   3.309   0.122  1.2390  1.5945  1.9339
  152MOL   H24639808   3.831   3.324   0.131 -0.5615  2.2375  0.3960
  152MOL   H24739809   3.828   3.710   0.512 -0.7910  1.0297 -1.4812
  152MOL   H24839810   3.831   3.542   0.481  2.0255 -0.7838 -0.4744
  152MOL   C24939811   4.019   3.652   0.458  0.1151  0.0086 -0.1680
  152MOL   N25039812   4.074   3.605   0.582  0.3969 -0.5782 -0.2811
  152MOL   C25139813   4.032   3.632   0.707  0.5908  0.0208  0.4208
  152MOL   O25239814   3.931   3.699   0.735  0.0177 -0.1987 -0.3914
  152MOL   C25339815   4.117   3.570   0.819 -0.3214  0.1477  0.2175
  152MOL   C25439816   4.072   3.794   0.432 -0.7465  0.3516 -0.5661
  152MOL   H25539817   4.067   3.596   0.377  0.8967 -1.0748  1.0290
  152MOL   H25639818   4.150   3.538   0.578  0.1869 -1.0208  2.1149
  152MOL   H25739819   4.217   3.538   0.790 -0.6343  0.0318 -0.7663
  152MOL   H25839820   4.128   3.637   0.904 -0.5244 -0.4478  0.7099
  152MOL   H25939821   4.059   3.482   0.848  1.4004 -0.7506  0.9791
  152MOL   H26039822   4.179   3.781   0.443 -0.8591  0.4067  0.7841
  152MOL   H26139823   4.043   3.834   0.335 -3.5085  0.4900  0.2598
  152MOL   H26239824   4.038   3.860   0.512  1.0113 -1.9477  2.1672
  153MOL     C139825   2.144   0.817   3.203  0.2463  0.2749 -0.9082
  153MOL     N239826   2.216   0.738   3.299 -0.0865  0.6785 -0.1127
  153MOL     C339827   2.178   0.707   3.426  0.0924  0.2871  0.8374
  153MOL     O439828   2.065   0.729   3.459 -0.5188  0.3721 -0.4331
  153MOL     C539829   2.282   0.641   3.516 -0.6494  0.1151 -0.1539
  153MOL     C639830   2.240   0.879   3.095 -0.0148  0.0949 -0.0670
  153MOL     H739831   2.066   0.755   3.159 -0.0363 -0.0486  0.0624
  153MOL     H839832   2.314   0.722   3.279 -0.0458  0.4274  0.2807
  153MOL     H939833   2.377   0.692   3.496  0.2580 -2.8175 -3.8043
  153MOL    H1039834   2.257   0.644   3.622 -0.4814  1.7988 -0.1342
  153MOL    H1139835   2.287   0.533   3.502 -0.6641 -0.1694  1.8423
  153MOL    H1239836   2.305   0.956   3.136  1.6803 -0.5070 -1.5664
  153MOL    H1339837   2.313   0.807   3.055  0.6066  1.0436 -0.6495
  153MOL    H1439838   2.112   0.908   3.253  2.8140  0.3353  0.7154
  153MOL    C1539839   2.166   0.953   2.978 -0.0856  0.7852  0.4988
  153MOL    N1639840   2.081   1.069   3.014 -0.2550  0.4014  0.0134
  153MOL    C1739841   2.128   1.190   3.036 -0.2043  0.1276  0.1464
  153MOL    O1839842   2.233   1.230   2.993  0.1958  0.1165 -0.3136
  153MOL    C1939843   2.036   1.291   3.100  0.0726 -0.4674  0.1283
  153MOL    C2039844   2.092   0.847   2.885 -0.6453  0.8627  0.5842
  153MOL    H2139845   2.246   0.995   2.917 -0.2094  1.5069  0.8222
  153MOL    H2239846   1.988   1.049   3.049  1.0083 -1.6434  2.3524
  153MOL    H2339847   2.056   1.391   3.062 -0.5432 -0.1361  0.6592
  153MOL    H2439848   1.932   1.261   3.107  0.2790 -0.8209  2.0489
  153MOL    H2539849   2.065   1.307   3.204 -1.2683 -0.9611  0.5831
  153MOL    H2639850   2.004   0.830   2.947  0.7365 -1.0413  2.0784
  153MOL    H2739851   2.076   0.900   2.791  1.1066  2.1492  0.9949
  153MOL    C2839852   2.160   0.703   2.859  0.2147  0.5698 -0.2983
  153MOL    N2939853   2.290   0.708   2.791  0.5177  0.3427  0.2530
  153MOL    C3039854   2.393   0.626   2.815  0.4302  0.7034 -0.6537
  153MOL    O3139855   2.383   0.543   2.905  0.1672  0.7080  0.5581
  153MOL    C3239856   2.524   0.650   2.742 -0.1040  0.5032 -0.1778
  153MOL    C3339857   2.072   0.604   2.782 -0.8896 -0.0140 -0.0637
  153MOL    H3439858   2.173   0.661   2.958 -1.2334  2.2123  0.6205
  153MOL    H3539859   2.310   0.771   2.714  0.6428 -0.6725 -0.5584
  153MOL    H3639860   2.605   0.673   2.811  1.6472  0.5572 -2.2150
  153MOL    H3739861   2.546   0.565   2.677  0.5378 -0.2276  0.9857
  153MOL    H3839862   2.528   0.723   2.661 -1.9828  1.2234  0.3543
  153MOL    H3939863   2.057   0.642   2.681 -0.6947  3.9338  1.3272
  153MOL    H4039864   2.130   0.513   2.763  0.2369  0.6685  0.0764
  153MOL    C4139865   1.940   0.565   2.847  0.4649 -0.3079  0.1444
  153MOL    N4239866   1.938   0.575   2.991  0.3518  0.2223  0.6024
  153MOL    C4339867   1.995   0.487   3.075 -0.7964 -0.2661  0.1713
  153MOL    O4439868   2.080   0.408   3.052 -0.1204  0.2474 -0.1129
  153MOL    C4539869   1.941   0.501   3.219  0.3516  0.1535 -0.0038
  153MOL    C4639870   1.881   0.433   2.794 -0.0315  0.4659  0.1927
  153MOL    H4739871   1.888   0.659   2.823  0.7203  0.6769  3.2919
  153MOL    H4839872   1.861   0.630   3.026  1.2947  0.7905  1.8158
  153MOL    H4939873   1.982   0.436   3.295  0.4435  1.6433  1.2488
  153MOL    H5039874   1.927   0.606   3.247  1.7447 -0.1024  1.7184
  153MOL    H5139875   1.847   0.447   3.216  0.9983 -0.9975  0.4169
  153MOL    H5239876   1.891   0.421   2.686  3.2204  2.0244  0.2470
  153MOL    H5339877   1.938   0.352   2.838 -1.4319 -0.4427  0.3658
  153MOL    C5439878   1.742   0.404   2.836  0.7970  0.0397 -0.3244
  153MOL    N5539879   1.720   0.310   2.942 -0.0694 -0.3960 -0.1502
  153MOL    C5639880   1.714   0.178   2.925 -0.5438  0.5207  0.3118
  153MOL    O5739881   1.697   0.128   2.813  0.1020  0.2022 -0.1042
  153MOL    C5839882   1.716   0.097   3.055  0.1387  0.2500  0.6679
  153MOL    C5939883   1.646   0.382   2.717  0.0459  0.0937  0.5455
  153MOL    H6039884   1.710   0.499   2.878  2.3614  0.8451 -0.9247
  153MOL    H6139885   1.748   0.328   3.037 -0.4595 -1.2230  0.1250
  153MOL    H6239886   1.799   0.121   3.121  1.1766 -0.8827 -0.1968
  153MOL    H6339887   1.622   0.097   3.110  0.5302  1.4610  1.3651
  153MOL    H6439888   1.727   7.830   3.038  0.1140  0.4025 -0.3925
  153MOL    H6539889   1.703   0.321   2.647 -0.7596 -0.3237  0.2406
  153MOL    H6639890   1.553   0.333   2.745 -0.2169  0.2008 -0.1189
  153MOL    C6739891   1.607   0.515   2.637 -0.0877 -0.0611 -0.4755
  153MOL    N6839892   1.500   0.602   2.693 -0.2735  0.2591 -0.4703
  153MOL    C6939893   1.510   0.732   2.722 -0.0786 -0.1467  0.4542
  153MOL    O7039894   1.608   0.802   2.690  0.7110  0.2244  0.1448
  153MOL    C7139895   1.410   0.797   2.818 -0.4851  0.1671 -0.6402
  153MOL    C7239896   1.575   0.483   2.485  0.0370  0.2283  0.3463
  153MOL    H7339897   1.697   0.577   2.633  0.4997 -1.0347 -3.0897
  153MOL    H7439898   1.409   0.569   2.720  1.2211 -2.4354  1.4350
  153MOL    H7539899   1.460   0.830   2.909 -2.3142 -0.8278  0.7683
  153MOL    H7639900   1.364   0.885   2.772  0.9463  0.2058 -2.0246
  153MOL    H7739901   1.335   0.722   2.845 -1.6762  1.3014 -0.7309
  153MOL    H7839902   1.652   0.410   2.458  0.0220  0.3693 -0.0688
  153MOL    H7939903   1.479   0.433   2.473  0.5780 -0.8141  0.2539
  153MOL    C8039904   1.597   0.600   2.394  0.4670 -1.0827  0.1826
  153MOL    N8139905   1.534   0.569   2.264 -0.0649  0.2035  0.3823
  153MOL    C8239906   1.560   0.474   2.162  0.6722 -0.9092 -0.3598
  153MOL    O8339907   1.624   0.367   2.179 -0.4935 -0.6945 -0.3117
  153MOL    C8439908   1.495   0.493   2.029  0.2138  0.4394 -0.4810
  153MOL    C8539909   1.745   0.652   2.389 -0.1989  0.5621 -0.1958
  153MOL    H8639910   1.542   0.683   2.439  0.2962  0.0484 -2.0554
  153MOL    H8739911   1.458   0.633   2.248 -0.8636 -0.3384  1.9006
  153MOL    H8839912   1.513   0.593   1.989 -0.3873  1.1364  0.9604
  153MOL    H8939913   1.530   0.420   1.956  0.9682  0.8582 -0.5493
  153MOL    H9039914   1.389   0.488   2.050  0.0310 -1.1466 -1.6710
  153MOL    H9139915   1.774   0.705   2.480  1.3376  0.0379 -0.3750
  153MOL    H9239916   1.807   0.563   2.392 -2.1897 -0.9280 -1.5698
  153MOL    C9339917   1.793   0.740   2.270  0.5554 -0.8646 -0.2546
  153MOL    N9439918   1.932   0.708   2.239  0.8899  0.1771 -0.7586
  153MOL    C9539919   1.979   0.588   2.197 -0.2208  0.0092 -0.0901
  153MOL    O9639920   1.907   0.499   2.152  0.8202 -0.3917  0.7323
  153MOL    C9739921   2.131   0.586   2.195 -0.0638  0.5291  0.6851
  153MOL    C9839922   1.781   0.895   2.281  0.2378  0.1629  0.3140
  153MOL    H9939923   1.749   0.706   2.176  2.4927 -0.7510 -1.2183
  153MOL   H10039924   1.993   0.787   2.249  1.6511 -0.6053  0.9976
  153MOL   H10139925   2.162   0.488   2.159 -2.8905 -0.2262  0.2070
  153MOL   H10239926   2.158   0.671   2.133 -4.0615 -0.3718 -2.5297
  153MOL   H10339927   2.163   0.599   2.299 -0.3525  0.9705  0.7205
  153MOL   H10439928   1.812   0.935   2.378 -0.9371  0.4102  0.5988
  153MOL   H10539929   1.849   0.945   2.211  0.8480 -1.6903 -0.4354
  153MOL   C10639930   1.634   0.945   2.266  0.1758 -0.7697 -0.2265
  153MOL   N10739931   1.568   0.910   2.138 -0.3421 -0.0734  0.2163
  153MOL   C10839932   1.600   0.968   2.022 -0.2666 -0.5013  0.2051
  153MOL   O10939933   1.673   1.068   2.008  0.0143  0.3751 -0.4987
  153MOL   C11039934   1.540   0.907   1.905  0.4384 -0.7275 -0.4267
  153MOL   C11139935   1.606   1.093   2.303  0.1141 -1.0620  0.5341
  153MOL   H11239936   1.580   0.886   2.341  2.5103 -0.8063  1.4678
  153MOL   H11339937   1.488   0.849   2.137 -1.4128  1.2766  1.9939
  153MOL   H11439938   1.583   0.809   1.885  0.8777 -0.3138 -1.5661
  153MOL   H11539939   1.432   0.901   1.909  0.5212 -1.8755  0.1727
  153MOL   H11639940   1.557   0.967   1.815  0.5559  0.5271  0.4227
  153MOL   H11739941   1.688   1.158   2.274 -0.5085  0.0737  1.3014
  153MOL   H11839942   1.529   1.131   2.236  1.2596 -0.1096 -0.2620
  153MOL   C11939943   1.560   1.129   2.451  0.3118  0.0060  0.1146
  153MOL   N12039944   1.669   1.082   2.541  0.0171 -0.1786 -0.1804
  153MOL   C12139945   1.772   1.153   2.601 -0.0010 -0.3336 -0.5089
  153MOL   O12239946   1.790   1.272   2.573  0.0227 -0.1905 -0.2519
  153MOL   C12339947   1.855   1.078   2.700  0.0161  0.8193 -0.8569
  153MOL   C12439948   1.432   1.057   2.493  0.1325  0.0490  0.5951
  153MOL   H12539949   1.546   1.237   2.448 -2.0742 -0.2704  0.0051
  153MOL   H12639950   1.678   0.983   2.561  3.1997  0.2171  0.6189
  153MOL   H12739951   1.788   1.008   2.750  0.9526  0.2502 -0.3699
  153MOL   H12839952   1.930   1.033   2.635  0.6398  3.6448 -2.1670
  153MOL   H12939953   1.901   1.150   2.768  0.0394  0.7294 -0.7762
  153MOL   H13039954   1.448   0.950   2.480  2.5680  0.4238  0.0917
  153MOL   H13139955   1.429   1.069   2.601 -1.6855 -0.8510  0.6498
  153MOL   C13239956   1.305   1.095   2.414 -0.4897 -0.3209  0.4039
  153MOL   N13339957   1.290   1.240   2.424 -0.6563 -0.3625  0.6788
  153MOL   C13439958   1.309   1.333   2.327 -0.1677 -0.0391 -0.0207
  153MOL   O13539959   1.354   1.305   2.216  0.1275 -0.1291 -0.3265
  153MOL   C13639960   1.263   1.477   2.356  0.4865 -0.4414  0.3467
  153MOL   C13739961   1.174   1.028   2.475  0.0288 -0.5283  0.3285
  153MOL   H13839962   1.319   1.072   2.309 -2.0967 -1.5261  0.4455
  153MOL   H13939963   1.241   1.273   2.506 -1.6026 -0.1826  0.0526
  153MOL   H14039964   1.244   1.487   2.462 -1.7531  0.3764 -0.1120
  153MOL   H14139965   1.337   1.551   2.325 -0.3303 -0.1770 -0.9991
  153MOL   H14239966   1.172   1.507   2.305  1.3015  1.0602 -0.2615
  153MOL   H14339967   1.178   1.048   2.582 -4.6965  0.3993  0.4394
  153MOL   H14439968   1.088   1.078   2.431  1.1666  0.2707 -1.0380
  153MOL   C14539969   1.158   0.877   2.453  0.2068 -0.4851 -0.1401
  153MOL   N14639970   1.131   0.850   2.312  0.1798 -0.6506 -0.2414
  153MOL   C14739971   1.222   0.797   2.226 -0.7005 -0.3704 -0.6846
  153MOL   O14839972   1.344   0.787   2.247  0.9228 -0.0054  0.3207
  153MOL   C14939973   1.161   0.757   2.100  0.2194 -0.1604 -0.1620
  153MOL   C15039974   1.038   0.823   2.532 -0.0108  0.1839 -0.0307
  153MOL   H15139975   1.245   0.822   2.489  0.3445  0.6015  1.2300
  153MOL   H15239976   1.035   0.867   2.283 -0.2799  0.2479  1.7740
  153MOL   H15339977   1.149   0.856   2.055  0.6271  0.1690  0.4498
  153MOL   H15439978   1.236   0.695   2.051  2.6948 -0.8381  4.2145
  153MOL   H15539979   1.068   0.701   2.106 -0.2295  0.4304 -1.3853
  153MOL   H15639980   0.955   0.890   2.509 -0.5182 -0.8551 -1.3073
  153MOL   H15739981   1.001   0.733   2.483  0.4108  0.2992 -0.5717
  153MOL   C15839982   1.053   0.817   2.680 -0.4224 -0.0352  0.6863
  153MOL   N15939983   1.000   0.693   2.731  0.0886  0.6531  0.1873
  153MOL   C16039984   1.073   0.584   2.746  0.2689 -0.0040 -0.6188
  153MOL   O16139985   1.186   0.572   2.696  0.1986  0.2959  0.1992
  153MOL   C16239986   1.018   0.468   2.828  0.7254 -0.1961 -0.1184
  153MOL   C16339987   0.991   0.937   2.755  0.5311  0.0307 -0.0914
  153MOL   H16439988   1.161   0.815   2.690 -0.3602 -0.5512 -0.0187
  153MOL   H16539989   0.902   0.690   2.754  0.2038  0.6824  0.6675
  153MOL   H16639990   0.910   0.480   2.841  0.7072 -1.3783  0.8253
  153MOL   H16739991   1.039   0.368   2.790 -2.8055 -1.9822  2.3416
  153MOL   H16839992   1.068   0.491   2.922  0.4847  0.4376 -0.1398
  153MOL   H16939993   0.990   1.029   2.696 -0.6626  0.7293  0.9920
  153MOL   H17039994   0.888   0.912   2.779  0.0977  0.7480 -1.1339
  153MOL   C17139995   1.067   0.976   2.886  0.8292  0.5326 -0.8154
  153MOL   N17239996   1.081   0.860   2.980  0.1130  0.1567 -0.3927
  153MOL   C17339997   1.177   0.843   3.072  0.6245  0.1777  0.2888
  153MOL   O17439998   1.285   0.907   3.074  0.2008 -0.6346  0.1929
  153MOL   C17539999   1.147   0.756   3.197 -0.2204  0.0605  0.3176
  153MOL   C17640000   1.017   1.101   2.948  0.7136  0.0813  0.7981
  153MOL   H17740001   1.163   1.008   2.845  1.4736 -1.6570 -1.0729
  153MOL   H17840002   0.996   0.807   2.991 -0.6493  1.5575  0.6193
  153MOL   H17940003   1.112   0.658   3.163 -0.1755  0.2830 -0.3735
  153MOL   H18040004   1.234   0.738   3.259  1.8784  0.2649 -2.4628
  153MOL   H18140005   1.073   0.802   3.262 -1.5325 -0.8144 -0.5253
  153MOL   H18240006   0.913   1.087   2.976  0.3322 -3.2234 -1.8883
  153MOL   H18340007   1.070   1.104   3.044  0.5797  1.1407  0.8359
  153MOL   C18440008   1.052   1.238   2.877  0.0764  0.0473  0.9698
  153MOL   N18540009   1.197   1.264   2.900 -0.1546 -0.1458 -0.0366
  153MOL   C18640010   1.299   1.276   2.813  0.7925 -0.6882 -0.3328
  153MOL   O18740011   1.279   1.305   2.694  0.3611  0.6650  0.3942
  153MOL   C18840012   1.442   1.267   2.873 -0.0750 -0.1030  0.5954
  153MOL   C18940013   0.980   1.356   2.952 -0.6418 -0.7139 -0.7237
  153MOL   H19040014   1.022   1.239   2.772  1.4759 -1.2707  0.5202
  153MOL   H19140015   1.223   1.269   2.997 -1.7626 -0.2419  0.4247
  153MOL   H19240016   1.514   1.219   2.807  0.5053  0.9346  0.4678
  153MOL   H19340017   1.473   1.371   2.863 -0.2393 -0.0716  0.3866
  153MOL   H19440018   1.441   1.225   2.973 -2.2951 -1.8301 -0.1134
  153MOL   H19540019   0.985   1.327   3.057 -1.1712 -2.1715 -1.0840
  153MOL   H19640020   1.029   1.452   2.937  0.0016 -0.5590  2.0150
  153MOL   C19740021   0.831   1.366   2.903 -0.1074  0.0844  0.0533
  153MOL   N19840022   0.822   1.435   2.776 -0.3063  0.0378 -0.5907
  153MOL   C19940023   0.757   1.396   2.663  0.4215 -0.1061  0.0185
  153MOL   O20040024   0.683   1.299   2.650  0.1604  0.3637 -0.6832
  153MOL   C20140025   0.773   1.490   2.547  0.4155  0.4570  0.2597
  153MOL   C20240026   0.746   1.451   3.005 -0.6108 -0.0184  0.1058
  153MOL   H20340027   0.786   1.266   2.899 -2.5920  1.2302 -2.0940
  153MOL   H20440028   0.861   1.528   2.776  1.8449 -0.8394  0.2676
  153MOL   H20540029   0.823   1.582   2.579  0.6142 -0.3710  2.4751
  153MOL   H20640030   0.839   1.448   2.472 -1.3142  0.7695 -1.4540
  153MOL   H20740031   0.677   1.521   2.505 -0.7939 -1.2814  1.6786
  153MOL   H20840032   0.804   1.542   3.019 -1.2458  0.4961 -0.5944
  153MOL   H20940033   0.651   1.486   2.964  1.1642  1.1098 -3.1464
  153MOL   C21040034   0.732   1.388   3.145 -0.0680  0.0042  0.0177
  153MOL   N21140035   0.662   1.261   3.136 -0.0828  0.1282 -1.0599
  153MOL   C21240036   0.706   1.146   3.192  0.2240 -0.6397  0.4128
  153MOL   O21340037   0.798   1.135   3.274  0.0105 -0.4526 -0.1688
  153MOL   C21440038   0.628   1.022   3.150 -0.1775 -0.0995  0.1561
  153MOL   C21540039   0.673   1.478   3.246  0.1925 -0.2490  0.6613
  153MOL   H21640040   0.836   1.363   3.168  0.2568 -3.0550 -4.1402
  153MOL   H21740041   0.584   1.258   3.072 -0.2612  1.4015 -0.9216
  153MOL   H21840042   0.563   1.019   3.062  0.3744 -0.5811 -0.2370
  153MOL   H21940043   0.692   0.934   3.157 -0.8364 -0.5498  0.6373
  153MOL   H22040044   0.562   1.025   3.237 -0.4470  1.5230 -0.0846
  153MOL   H22140045   0.566   1.487   3.232  0.6573  0.3397 -2.7213
  153MOL   H22240046   0.669   1.425   3.342  2.0550 -1.7538 -0.0580
  153MOL   C22340047   0.749   1.613   3.274  0.1295 -0.7561 -0.0195
  153MOL   N22440048   0.716   1.673   3.410 -0.2434 -0.1559  0.2664
  153MOL   C22540049   0.808   1.726   3.495  0.0108  0.5198  0.3833
  153MOL   O22640050   0.786   1.770   3.607 -0.0936 -0.3420  0.3981
  153MOL   C22740051   0.954   1.704   3.471  0.6086  0.0613  0.5437
  153MOL   C22840052   0.721   1.725   3.164 -0.0021  0.0808  0.0754
  153MOL   H22940053   0.855   1.587   3.269  0.2151 -0.0006 -2.8941
  153MOL   H23040054   0.617   1.669   3.427 -0.0465  0.5592  1.6401
  153MOL   H23140055   0.969   1.598   3.492 -0.4906  0.1900  2.1217
  153MOL   H23240056   0.985   1.737   3.372  1.1159 -1.1052  0.3061
  153MOL   H23340057   1.013   1.756   3.546 -2.4654  1.2308  2.2352
  153MOL   H23440058   0.669   1.678   3.081 -4.2225 -0.1481  2.6842
  153MOL   H23540059   0.652   1.799   3.204 -1.5957 -0.2255 -2.0193
  153MOL   C23640060   0.842   1.790   3.105 -0.3935  0.3760 -0.2701
  153MOL   N23740061   0.912   1.886   3.198 -0.3266 -0.3964 -0.5305
  153MOL   C23840062   0.858   1.996   3.257  0.1966  0.0217  0.2081
  153MOL   O23940063   0.742   2.035   3.233 -0.7074  0.2696 -1.0499
  153MOL   C24040064   0.941   2.074   3.356 -0.3134 -0.0413 -0.2245
  153MOL   C24140065   0.809   1.858   2.965 -0.3886 -0.2470 -0.7869
  153MOL   H24240066   0.929   1.727   3.087 -0.5491 -0.1692  0.8720
  153MOL   H24340067   1.008   1.868   3.221  0.0511  1.6991 -0.3195
  153MOL   H24440068   1.030   2.018   3.386  0.2607  1.1393  0.3195
  153MOL   H24540069   0.949   2.178   3.326  0.7602  0.8623  2.9288
  153MOL   H24640070   0.883   2.077   3.449  1.6862 -0.4690  1.0732
  153MOL   H24740071   0.748   1.788   2.908 -1.1466  0.0478 -0.3453
  153MOL   H24840072   0.735   1.938   2.969 -1.9368 -1.7172  1.7962
  153MOL   C24940073   0.922   1.895   2.863 -0.2671  0.1059  0.1405
  153MOL   N25040074   0.997   2.017   2.893 -0.2696 -0.1151 -0.2300
  153MOL   C25140075   1.092   2.028   2.984  0.3404 -0.2397 -0.2449
  153MOL   O25240076   1.157   1.939   3.042  0.5726  0.7287  0.2752
  153MOL   C25340077   1.118   2.170   3.024  0.2215  0.3177  0.0853
  153MOL   C25440078   0.869   1.910   2.717  0.1711 -0.1094 -0.3350
  153MOL   H25540079   0.988   1.808   2.865  0.2609  0.4451 -1.6514
  153MOL   H25640080   0.971   2.095   2.835 -1.1094 -0.9722 -1.0236
  153MOL   H25740081   1.023   2.223   3.023 -1.0558 -1.9189 -1.2030
  153MOL   H25840082   1.160   2.167   3.124 -0.6118 -2.3700  0.4059
  153MOL   H25940083   1.191   2.209   2.953 -0.7092  0.0893 -1.0070
  153MOL   H26040084   0.767   1.948   2.719 -1.0609 -3.3361  1.2658
  153MOL   H26140085   0.943   1.966   2.659  0.5899 -2.1095 -1.8136
  153MOL   H26240086   0.866   1.814   2.665 -1.3183 -0.1153 -0.2608
  154MOL     C140087   4.033   7.158   0.074  0.0332 -0.0340  0.4612
  154MOL     N240088   4.174   7.140   0.050  0.2019  0.9322  0.7572
  154MOL     C340089   4.253   7.196   7.798  0.5200  0.3395 -0.3637
  154MOL     O440090   4.375   7.179   7.800 -0.2142 -0.3914  0.0629
  154MOL     C540091   4.184   7.284   7.683 -1.0033 -0.0086 -0.2575
  154MOL     C640092   4.022   7.291   0.149  0.0498 -0.1052 -0.1211
  154MOL     H740093   3.981   7.157   7.817  0.5857  1.3016  0.1361
  154MOL     H840094   4.225   7.080   0.113  0.5071 -0.5790 -0.8678
  154MOL     H940095   4.263   7.343   7.636  0.1236 -1.4894 -0.2653
  154MOL    H1040096   4.125   7.215   7.622 -0.9998  0.0572 -0.3363
  154MOL    H1140097   4.120   7.362   7.724  0.8278  1.8407 -0.8514
  154MOL    H1240098   4.066   7.276   0.248  1.2469  0.7618 -0.5174
  154MOL    H1340099   4.075   7.359   0.083 -0.9843  0.0949 -0.7514
  154MOL    H1440100   3.997   7.074   0.133  0.1919  0.3436  1.0931
  154MOL    C1540101   3.881   7.338   0.162  0.1722 -0.6903 -0.5578
  154MOL    N1640102   3.819   7.371   0.030 -0.1829  0.2897 -0.2482
  154MOL    C1740103   3.734   7.290   7.809  0.0051 -0.1277 -0.0481
  154MOL    O1840104   3.690   7.185   0.017 -1.0473  0.2545  0.0202
  154MOL    C1940105   3.691   7.328   7.669 -0.4960  0.2373  0.2141
  154MOL    C2040106   3.864   7.468   0.250 -0.5077 -0.3106  0.0877
  154MOL    H2140107   3.829   7.257   0.214 -0.8922  0.0095 -0.5101
  154MOL    H2240108   3.861   7.456   7.834  1.8106 -0.3800  0.4747
  154MOL    H2340109   3.605   7.393   7.655  0.7417  1.7234 -0.6638
  154MOL    H2440110   3.779   7.370   7.620  0.2548 -2.3910 -0.8312
  154MOL    H2540111   3.689   7.240   7.605  1.6716 -0.0195  0.4453
  154MOL    H2640112   3.875   7.560   0.193 -1.6795  0.2825  0.7935
  154MOL    H2740113   3.758   7.473   0.276 -0.1229 -1.0696  1.8648
  154MOL    C2840114   3.952   7.484   0.379  0.4946 -0.7096 -0.4563
  154MOL    N2940115   3.915   7.379   0.480  0.2138 -0.0478 -0.0751
  154MOL    C3040116   4.004   7.309   0.542 -0.1636 -0.2115  0.1215
  154MOL    O3140117   4.130   7.322   0.538 -0.0609 -0.1297  0.1042
  154MOL    C3240118   3.949   7.196   0.631  0.1973  0.1499  0.2412
  154MOL    C3340119   3.927   7.632   0.435  0.9892 -0.0333 -0.8272
  154MOL    H3440120   4.057   7.484   0.351  0.5988  2.3733 -0.3046
  154MOL    H3540121   3.818   7.356   0.498 -0.0139  1.2524  0.3890
  154MOL    H3640122   4.028   7.168   0.700 -0.9386  1.0925  1.9725
  154MOL    H3740123   3.858   7.218   0.689  0.6885 -1.2281  1.5724
  154MOL    H3840124   3.935   7.111   0.564  1.2585  0.9613 -1.0098
  154MOL    H3940125   3.883   7.696   0.358 -0.8383  1.2331  1.1943
  154MOL    H4040126   3.852   7.634   0.515 -1.5071 -0.3803 -3.0870
  154MOL    C4140127   4.051   7.711   0.485  0.2648  0.0677 -0.0387
  154MOL    N4240128   4.105   7.651   0.604 -0.0071  0.1629 -0.2140
  154MOL    C4340129   4.231   7.613   0.631 -0.0672  0.4045 -0.1615
  154MOL    O4440130   4.328   7.632   0.560 -0.3144 -0.1164 -0.1883
  154MOL    C4540131   4.253   7.555   0.772 -0.1561 -0.2736  0.1510
  154MOL    C4640132   4.004   0.015   0.526  0.0396 -0.0448 -0.7048
  154MOL    H4740133   4.125   7.707   0.405  0.2145 -4.0556  0.0186
  154MOL    H4840134   4.049   7.638   0.687 -0.5790 -0.9882 -0.7671
  154MOL    H4940135   4.277   7.631   0.846  0.7132 -0.6658  0.2778
  154MOL    H5040136   4.175   7.485   0.803  1.5998 -2.0107  0.7318
  154MOL    H5140137   4.338   7.487   0.771 -0.3712 -0.5390 -0.3742
  154MOL    H5240138   3.914   0.002   0.586  0.1483 -0.8514 -0.7116
  154MOL    H5340139   4.079   0.055   0.595 -0.5233  0.6754 -0.5066
  154MOL    C5440140   3.984   0.109   0.407 -0.9224 -0.2119  0.2590
  154MOL    N5540141   4.118   0.149   0.357 -0.4508  0.4153 -0.1568
  154MOL    C5640142   4.144   0.194   0.238 -0.1530  0.5912 -0.0655
  154MOL    O5740143   4.058   0.194   0.150 -0.0402 -0.7266 -0.7990
  154MOL    C5840144   4.294   0.244   0.210  0.1083  0.1560  0.1343
  154MOL    C5940145   3.904   0.230   0.462  0.9259  0.4763 -0.0215
  154MOL    H6040146   3.928   0.062   0.326  2.9876 -0.8660 -2.2409
  154MOL    H6140147   4.185   0.166   0.430 -0.2362 -0.9775 -0.0157
  154MOL    H6240148   4.364   0.210   0.286  0.0608  1.2636  0.6858
  154MOL    H6340149   4.320   0.221   0.107  0.5439  2.4898 -0.3087
  154MOL    H6440150   4.287   0.352   0.227  1.7503  0.3701 -0.4814
  154MOL    H6540151   3.952   0.286   0.542  0.3752  1.4925 -0.3905
  154MOL    H6640152   3.908   0.303   0.380  0.1812  0.3355 -0.1806
  154MOL    C6740153   3.758   0.211   0.500 -0.0760 -0.2750 -0.5565
  154MOL    N6840154   3.682   0.151   0.391 -0.3637 -0.1374 -0.5393
  154MOL    C6940155   3.642   0.023   0.393  0.1991 -0.1717  0.4107
  154MOL    O7040156   3.658   7.786   0.489 -0.2444  0.2290  0.3795
  154MOL    C7140157   3.583   7.800   0.267 -0.1890 -0.4628  0.4024
  154MOL    C7240158   3.691   0.342   0.532 -0.4514  0.5102  0.1749
  154MOL    H7340159   3.775   0.154   0.591  1.1790  1.7550  0.5089
  154MOL    H7440160   3.662   0.213   0.314 -2.2399  0.4865  0.4181
  154MOL    H7540161   3.498   7.735   0.283 -0.5710 -0.0255  0.1597
  154MOL    H7640162   3.560   0.036   0.192 -1.1298  0.6224  1.7668
  154MOL    H7740163   3.653   7.725   0.229  2.5210  1.4739  1.3335
  154MOL    H7840164   3.689   0.401   0.441  1.9614  0.7305  0.2382
  154MOL    H7940165   3.584   0.332   0.553 -0.4006 -0.3101  0.0660
  154MOL    C8040166   3.751   0.416   0.654 -0.1377  0.4341 -0.1758
  154MOL    N8140167   3.728   0.351   0.786 -0.4761  0.1622 -0.1622
  154MOL    C8240168   3.830   0.296   0.855  0.3784  0.6527 -0.5073
  154MOL    O8340169   3.947   0.304   0.829  0.1965 -0.2899 -0.1286
  154MOL    C8440170   3.795   0.216   0.979 -0.0374 -0.0149 -0.5447
  154MOL    C8540171   3.709   0.567   0.648 -0.0791  0.1374 -0.0094
  154MOL    H8640172   3.859   0.428   0.644  0.3191 -0.9231  2.6134
  154MOL    H8740173   3.635   0.347   0.826 -0.2271  0.3979  0.4324
  154MOL    H8840174   3.768   0.279   1.064 -1.3315  1.2090 -1.8295
  154MOL    H8940175   3.708   0.156   0.952 -0.4895 -0.1592  1.1269
  154MOL    H9040176   3.870   0.139   0.995 -1.7894 -1.5219  0.6802
  154MOL    H9140177   3.722   0.603   0.546  0.9012 -0.6669 -0.1711
  154MOL    H9240178   3.601   0.563   0.662 -0.2538  0.6571 -1.1904
  154MOL    C9340179   3.776   0.667   0.749 -0.0036  0.4339  0.7218
  154MOL    N9440180   3.921   0.669   0.740 -0.3691  0.3525 -0.2553
  154MOL    C9540181   3.995   0.780   0.735 -0.7414 -0.0729  0.3663
  154MOL    O9640182   3.950   0.893   0.705  0.0669 -0.2517  0.2563
  154MOL    C9740183   4.145   0.763   0.751  0.2075  0.2691 -0.1558
  154MOL    C9840184   3.719   0.659   0.889  0.5432 -0.4329  0.5682
  154MOL    H9940185   3.751   0.763   0.703  2.4166  1.5383  1.6156
  154MOL   H10040186   3.971   0.581   0.743 -0.4830  0.2597 -0.9186
  154MOL   H10140187   4.173   0.659   0.762 -0.9043  0.1899  2.4275
  154MOL   H10240188   4.182   0.796   0.654  0.4542 -1.6053 -0.7068
  154MOL   H10340189   4.196   0.828   0.822 -1.0716 -0.7115  1.7147
  154MOL   H10440190   3.611   0.645   0.889  0.5041 -0.2485 -1.9858
  154MOL   H10540191   3.754   0.562   0.925 -0.9672 -1.5887 -1.0206
  154MOL   C10640192   3.759   0.774   0.979  0.4726  0.1290 -0.6024
  154MOL   N10740193   3.708   0.748   1.121  0.2506 -0.0141 -0.5035
  154MOL   C10840194   3.754   0.659   1.214  0.6393  0.4391 -0.0935
  154MOL   O10940195   3.820   0.560   1.178 -0.2006  0.8010 -0.4705
  154MOL   C11040196   3.711   0.688   1.358 -0.1655 -0.8840  0.1793
  154MOL   C11140197   3.694   0.901   0.931 -0.0799 -0.4733 -0.4806
  154MOL   H11240198   3.867   0.790   0.985  0.4900 -0.6008  1.4267
  154MOL   H11340199   3.646   0.816   1.163 -0.9830 -2.1178  1.2022
  154MOL   H11440200   3.635   0.763   1.379 -0.5748 -1.6785  1.6152
  154MOL   H11540201   3.671   0.602   1.412 -0.5990 -1.8506 -1.6471
  154MOL   H11640202   3.805   0.712   1.410  0.9691 -3.6711 -0.5103
  154MOL   H11740203   3.731   0.917   0.830 -0.7921  1.8254 -0.4066
  154MOL   H11840204   3.585   0.897   0.920 -0.2925  1.2842  0.8837
  154MOL   C11940205   3.751   1.036   0.998  0.6455  0.3366 -0.5225
  154MOL   N12040206   3.694   1.049   1.132  0.1099  0.0559  0.0976
  154MOL   C12140207   3.758   1.087   1.247  0.4415 -0.3471  0.6032
  154MOL   O12240208   3.869   1.134   1.253 -0.4234 -0.3658  0.3165
  154MOL   C12340209   3.664   1.094   1.364  0.1218 -0.8723  0.2057
  154MOL   C12440210   3.696   1.156   0.916 -0.6851 -0.3844  0.0970
  154MOL   H12540211   3.859   1.026   0.990  0.6066 -1.0523  0.4753
  154MOL   H12640212   3.597   1.021   1.144  0.4068 -0.6754  0.8339
  154MOL   H12740213   3.557   1.091   1.342  0.3277 -3.2863 -0.6397
  154MOL   H12840214   3.676   1.016   1.439  1.6053  0.9867  1.9429
  154MOL   H12940215   3.675   1.186   1.421  0.4615 -0.3301 -0.7190
  154MOL   H13040216   3.588   1.142   0.923 -0.7439  0.5110  1.3998
  154MOL   H13140217   3.727   1.250   0.963  0.5444  0.4277 -2.2753
  154MOL   C13240218   3.737   1.160   0.766  0.4560  0.5859 -0.0203
  154MOL   N13340219   3.880   1.144   0.747  0.2413  0.1403  0.0561
  154MOL   C13440220   3.980   1.233   0.752  0.2850  0.4150 -0.0931
  154MOL   O13540221   3.970   1.342   0.797  0.2852 -0.6282  0.2623
  154MOL   C13640222   4.108   1.198   0.681 -0.1167 -0.7979  0.5478
  154MOL   C13740223   3.684   1.286   0.689  0.5845 -0.0576  0.2993
  154MOL   H13840224   3.694   1.078   0.708  0.7728 -0.1651  0.7992
  154MOL   H13940225   3.897   1.048   0.719 -1.0174  0.2608 -1.1639
  154MOL   H14040226   4.176   1.279   0.656 -0.6727 -0.3721  0.3995
  154MOL   H14140227   4.170   1.139   0.749 -0.2041 -0.0332  1.3050
  154MOL   H14240228   4.092   1.154   0.583 -1.5015 -1.1510  0.9196
  154MOL   H14340229   3.721   1.381   0.729  0.5687 -0.4332  1.2125
  154MOL   H14440230   3.732   1.277   0.592  1.3608  2.5078  0.4004
  154MOL   C14540231   3.530   1.278   0.663  0.5107  0.2215 -0.0099
  154MOL   N14640232   3.504   1.321   0.522 -0.0192  0.4034 -0.7133
  154MOL   C14740233   3.520   1.262   0.407 -1.6342  0.0346 -0.3364
  154MOL   O14840234   3.577   1.152   0.399 -0.2346  0.0383 -0.5577
  154MOL   C14940235   3.484   1.351   0.285 -0.4390  0.1518 -0.1227
  154MOL   C15040236   3.456   1.371   0.759  0.4691 -0.6686 -0.5220
  154MOL   H15140237   3.488   1.178   0.674  0.3431  0.5580  2.6741
  154MOL   H15240238   3.480   1.419   0.515  1.3129  0.7816 -0.2832
  154MOL   H15340239   3.584   1.393   0.270  0.1208 -0.1829  2.4526
  154MOL   H15440240   3.469   1.290   0.196  1.0987  0.6469 -0.7351
  154MOL   H15540241   3.408   1.429   0.291 -2.7367 -1.9061 -1.9248
  154MOL   H15640242   3.464   1.341   0.864  0.3485  1.2334  0.0361
  154MOL   H15740243   3.516   1.462   0.765 -0.3141 -0.1224 -0.9977
  154MOL   C15840244   3.313   1.402   0.719 -0.2461 -0.3636 -0.0340
  154MOL   N15940245   3.276   1.525   0.786 -0.0054  0.2417 -0.3577
  154MOL   C16040246   3.182   1.611   0.743  0.3032 -0.0114 -0.1617
  154MOL   O16140247   3.117   1.593   0.637 -0.2956 -0.4206  0.1204
  154MOL   C16240248   3.170   1.743   0.823  0.0528  0.4168 -0.4637
  154MOL   C16340249   3.219   1.297   0.771  0.3535 -0.9251 -0.2817
  154MOL   H16440250   3.314   1.429   0.614 -1.0757 -1.9145 -0.4419
  154MOL   H16540251   3.323   1.555   0.870  1.0487 -0.6947 -0.6087
  154MOL   H16640252   3.247   1.813   0.792 -1.1196  2.0722  0.3181
  154MOL   H16740253   3.075   1.792   0.801 -1.9613 -1.4479  3.5564
  154MOL   H16840254   3.179   1.717   0.929 -0.7382  2.4582  0.1341
  154MOL   H16940255   3.275   1.205   0.782 -0.7119 -1.2722  2.7454
  154MOL   H17040256   3.185   1.320   0.872  2.7807 -0.5032  0.4791
  154MOL   C17140257   3.096   1.269   0.677  0.2887  0.3125  0.3133
  154MOL   N17240258   2.999   1.179   0.743 -0.1941  0.4443  0.3293
  154MOL   C17340259   2.996   1.048   0.772  0.0037  0.6311 -0.4740
  154MOL   O17440260   3.066   0.958   0.725  0.1614 -0.4318 -0.0303
  154MOL   C17540261   2.890   1.019   0.871 -0.2813  0.0534 -0.1995
  154MOL   C17640262   3.145   1.213   0.544  0.0639 -0.3550  0.3707
  154MOL   H17740263   3.048   1.366   0.663 -0.3157 -0.2991 -2.1970
  154MOL   H17840264   2.921   1.230   0.782 -1.1922 -0.0578 -0.9853
  154MOL   H17940265   2.910   1.070   0.966 -0.5661 -2.0804  1.0383
  154MOL   H18040266   2.792   1.039   0.827 -0.3168  0.8055  0.2104
  154MOL   H18140267   2.885   0.916   0.906 -1.6358  0.1849  0.0566
  154MOL   H18240268   3.249   1.245   0.534  0.2512 -0.6520  1.2604
  154MOL   H18340269   3.143   1.104   0.550  2.4380 -0.3779  1.2527
  154MOL   C18440270   3.074   1.250   0.412 -0.1467  0.2177 -0.1202
  154MOL   N18540271   3.064   1.399   0.401  0.2019  0.5507  0.8064
  154MOL   C18640272   3.067   1.469   0.289  0.3875  0.6969  0.3923
  154MOL   O18740273   3.069   1.412   0.181 -0.3416 -0.5130 -0.4115
  154MOL   C18840274   3.048   1.616   0.301  0.5082 -0.2910  0.2355
  154MOL   C18940275   2.928   1.188   0.396 -0.1594  0.3355  0.3273
  154MOL   H19040276   3.140   1.213   0.334  0.1534  0.4185  0.0378
  154MOL   H19140277   3.074   1.450   0.487 -2.1071  1.9532  0.2889
  154MOL   H19240278   2.969   1.656   0.366 -1.3553 -2.5143 -0.5942
  154MOL   H19340279   3.143   1.668   0.308  0.5473 -0.0304 -1.8108
  154MOL   H19440280   3.011   1.648   0.203 -0.5439  0.9654  1.0274
  154MOL   H19540281   2.871   1.218   0.483  1.8688 -0.7576  2.0644
  154MOL   H19640282   2.878   1.250   0.321  1.1810  1.9973  0.7577
  154MOL   C19740283   2.925   1.035   0.359 -0.5541  0.2743  0.5176
  154MOL   N19840284   2.998   1.017   0.236  0.1170  0.0161  0.3095
  154MOL   C19940285   3.101   0.936   0.225  0.4350 -0.0056 -0.4050
  154MOL   O20040286   3.146   0.869   0.318  0.2380 -0.4458  0.3502
  154MOL   C20140287   3.169   0.923   0.094 -0.2794 -0.1305  0.5299
  154MOL   C20240288   2.779   0.981   0.349 -0.0262  0.2468  1.0000
  154MOL   H20340289   2.965   0.986   0.448  0.3303 -1.2016 -0.6546
  154MOL   H20440290   2.970   1.071   0.155 -0.5013 -3.7657 -2.1302
  154MOL   H20540291   3.148   0.822   0.059 -1.0925  0.9562 -2.2289
  154MOL   H20640292   3.126   0.996   0.026  2.8326  0.5369 -0.7756
  154MOL   H20740293   3.277   0.936   0.102 -0.4609  2.2480 -0.4424
  154MOL   H20840294   2.713   1.020   0.426  3.0614  0.9217  3.3977
  154MOL   H20940295   2.729   1.011   0.257  0.1743 -0.3719  0.6892
  154MOL   C21040296   2.759   0.829   0.353  0.0174 -0.4126 -0.7772
  154MOL   N21140297   2.843   0.761   0.454 -0.2843 -0.0697  0.2435
  154MOL   C21240298   2.806   0.724   0.578  0.0924  0.1104 -0.7014
  154MOL   O21340299   2.695   0.748   0.633  0.0678  0.8063  0.0336
  154MOL   C21440300   2.912   0.660   0.667  0.5598 -0.1355 -0.2727
  154MOL   C21540301   2.777   0.759   0.217  0.0744  0.9073 -0.5337
  154MOL   H21640302   2.664   0.807   0.402  1.3697 -2.4615  1.0608
  154MOL   H21740303   2.940   0.752   0.427 -0.4260 -2.2176  0.3479
  154MOL   H21840304   2.917   0.710   0.763 -1.3619 -0.0677 -0.1942
  154MOL   H21940305   2.895   0.552   0.668 -4.0253  0.4941  0.8318
  154MOL   H22040306   3.011   0.670   0.622  0.5306  0.2906 -0.2393
  154MOL   H22140307   2.703   0.789   0.143 -1.0032 -1.1518 -0.3199
  154MOL   H22240308   2.871   0.794   0.174 -0.3173  0.7800 -1.5155
  154MOL   C22340309   2.773   0.605   0.220 -0.3010  0.8793  0.1978
  154MOL   N22440310   2.827   0.551   0.095 -0.0075 -0.0830  0.1993
  154MOL   C22540311   2.955   0.547   0.057  0.3136  0.0957 -0.5035
  154MOL   O22640312   3.047   0.590   0.127  0.5003 -0.4455  0.5122
  154MOL   C22740313   2.972   0.495   7.755  0.6210  0.0926  0.1491
  154MOL   C22840314   2.635   0.544   0.251 -0.0801  0.0570  0.5902
  154MOL   H22940315   2.838   0.566   0.298 -0.6694  0.4737  0.2975
  154MOL   H23040316   2.756   0.533   0.024  1.0570 -1.5562 -0.5051
  154MOL   H23140317   3.073   0.456   7.740  1.2014  0.8973  1.7912
  154MOL   H23240318   2.904   0.412   7.738 -0.9153  1.5825 -1.0112
  154MOL   H23340319   2.945   0.570   7.681 -1.3237 -0.2186  0.5118
  154MOL   H23440320   2.590   0.601   0.333  0.1356  0.9731  0.0857
  154MOL   H23540321   2.568   0.566   0.167  1.3043  0.0748 -0.5177
  154MOL   C23640322   2.641   0.391   0.277  0.7711 -0.0051  0.1872
  154MOL   N23740323   2.501   0.349   0.282  0.3212 -0.0686 -0.3753
  154MOL   C23840324   2.457   0.237   0.222 -0.5009 -0.7070  0.6610
  154MOL   O23940325   2.527   0.140   0.186  0.1860  0.4867  0.0949
  154MOL   C24040326   2.306   0.241   0.199  0.1075  0.2310  0.5163
  154MOL   C24140327   2.702   0.366   0.418 -0.2037  0.0923 -0.0639
  154MOL   H24240328   2.692   0.331   0.202  0.5691 -1.7601  1.4294
  154MOL   H24340329   2.443   0.414   0.333  1.8412 -0.3444  1.7645
  154MOL   H24440330   2.279   0.305   0.115  0.4835  0.4553  0.5671
  154MOL   H24540331   2.269   0.143   0.169  0.1444  0.3120  0.2012
  154MOL   H24640332   2.245   0.283   0.279 -0.3736 -0.8245  0.7168
  154MOL   H24740333   2.794   0.417   0.444 -2.1309  2.5031  2.3400
  154MOL   H24840334   2.636   0.407   0.494  0.2171 -0.1642  0.4385
  154MOL   C24940335   2.730   0.227   0.463 -0.1660  0.5857 -0.5193
  154MOL   N25040336   2.763   0.229   0.606 -0.6270 -0.2200 -0.0891
  154MOL   C25140337   2.886   0.253   0.653 -1.3682  0.2192 -1.2616
  154MOL   O25240338   2.986   0.267   0.582  0.3506 -0.0793  0.0868
  154MOL   C25340339   2.901   0.260   0.805 -0.2286  0.5879 -0.7297
  154MOL   C25440340   2.828   0.158   0.360 -0.3622 -0.3461 -0.4261
  154MOL   H25540341   2.640   0.166   0.457 -0.1829  0.7777 -2.8839
  154MOL   H25640342   2.692   0.235   0.678  0.4269  1.3150  0.8399
  154MOL   H25740343   2.811   0.280   0.864 -1.0879 -1.5588 -1.2713
  154MOL   H25840344   2.938   0.162   0.836  0.0672  0.8017 -0.4082
  154MOL   H25940345   2.977   0.332   0.836  1.7646 -2.0626  0.7636
  154MOL   H26040346   2.921   0.210   0.337 -0.3349 -1.1598 -2.2727
  154MOL   H26140347   2.864   0.061   0.397 -0.3901  0.5314  2.0069
  154MOL   H26240348   2.774   0.139   0.268  0.6958 -1.5962 -0.8054
  155MOL     C140349   1.823   6.495   2.147 -0.1331  0.6320  0.2227
  155MOL     N240350   1.876   6.414   2.042 -0.5426 -0.1259  0.5258
  155MOL     C340351   1.857   6.284   2.026 -0.7454 -0.1238  0.1775
  155MOL     O440352   1.794   6.223   2.107  0.1730 -0.4617 -0.1430
  155MOL     C540353   1.898   6.217   1.895 -0.4787 -0.9934 -0.3089
  155MOL     C640354   1.875   6.644   2.133  0.5889 -0.7280 -0.8883
  155MOL     H740355   1.715   6.483   2.154 -0.3462  0.7153 -2.3009
  155MOL     H840356   1.929   6.466   1.973  0.2120 -0.4205  0.8694
  155MOL     H940357   1.817   6.240   1.825 -0.3424  1.5532  0.3029
  155MOL    H1040358   1.985   6.267   1.853  0.0407 -0.8328  0.9364
  155MOL    H1140359   1.917   6.110   1.905  5.4245  0.0251  0.9663
  155MOL    H1240360   1.836   6.673   2.036  0.0461 -1.4389 -0.8884
  155MOL    H1340361   1.831   6.713   2.205 -0.1258 -1.0381 -1.0154
  155MOL    H1440362   1.858   6.454   2.241 -0.7312  1.2338  0.7092
  155MOL    C1540363   2.025   6.648   2.141 -0.3142 -0.1927  0.1656
  155MOL    N1640364   2.062   6.619   2.278  0.0782 -0.0489  0.1483
  155MOL    C1740365   2.171   6.573   2.329 -1.1248 -0.3935 -0.3474
  155MOL    O1840366   2.268   6.526   2.268  0.3894  0.0312 -0.2881
  155MOL    C1940367   2.194   6.587   2.481 -0.7857 -0.0752 -0.0146
  155MOL    C2040368   2.096   6.781   2.092 -0.5682  0.3152  0.8518
  155MOL    H2140369   2.069   6.573   2.076  0.1588 -0.8596  1.2465
  155MOL    H2240370   1.998   6.651   2.349 -0.4343 -0.7884  0.0329
  155MOL    H2340371   2.113   6.551   2.545  0.6781 -0.0336  1.8899
  155MOL    H2440372   2.290   6.544   2.510 -1.1845 -0.5162  0.6899
  155MOL    H2540373   2.206   6.693   2.500  2.7346  0.0161 -2.4094
  155MOL    H2640374   2.073   6.864   2.159 -1.6486  1.4651 -0.8814
  155MOL    H2740375   2.203   6.772   2.109  0.0287  2.4608 -1.4076
  155MOL    C2840376   2.077   6.817   1.942 -0.2632  0.0255  0.4583
  155MOL    N2940377   2.173   6.739   1.856 -0.6775  0.3611  0.0401
  155MOL    C3040378   2.149   6.620   1.800 -1.2977 -0.8189 -0.3800
  155MOL    O3140379   2.045   6.553   1.810  0.2118 -0.3253 -0.6639
  155MOL    C3240380   2.268   6.567   1.721  0.0536 -0.4146 -0.3042
  155MOL    C3340381   2.117   6.966   1.917 -0.0970  0.0668 -0.0582
  155MOL    H3440382   1.977   6.807   1.900  0.4159  0.0979 -1.2151
  155MOL    H3540383   2.259   6.788   1.836  0.3216 -1.8527 -1.2985
  155MOL    H3640384   2.315   6.478   1.762  1.4490  0.3210 -0.2994
  155MOL    H3740385   2.240   6.528   1.623  1.1220  1.4648 -1.3854
  155MOL    H3840386   2.348   6.641   1.712 -2.1702  2.1204 -0.0770
  155MOL    H3940387   2.221   6.977   1.946 -0.5339 -0.4476  1.7797
  155MOL    H4040388   2.117   6.982   1.810 -1.7735 -0.2834 -0.1222
  155MOL    C4140389   2.038   7.068   1.993  0.2484 -0.6885  0.0023
  155MOL    N4240390   1.894   7.039   2.004  1.0404  0.3716  0.2920
  155MOL    C4340391   1.802   7.024   1.907 -0.3392 -0.4445 -1.0305
  155MOL    O4440392   1.827   7.037   1.792 -0.2844  0.2123 -0.0641
  155MOL    C4540393   1.652   7.017   1.957 -0.2476 -0.0875  0.3295
  155MOL    C4640394   2.067   7.213   1.959  0.3459 -0.3866 -0.2129
  155MOL    H4740395   2.078   7.067   2.095 -0.8460  0.1694  0.4461
  155MOL    H4840396   1.859   7.018   2.096  0.8836 -0.3044  0.0793
  155MOL    H4940397   1.610   6.917   1.944 -1.3673  0.4883 -0.6107
  155MOL    H5040398   1.641   7.042   2.062 -1.8716 -0.2136  0.2105
  155MOL    H5140399   1.595   7.094   1.905 -0.5386 -1.6603 -1.7576
  155MOL    H5240400   2.058   7.232   1.852  2.7184 -0.0313 -0.3965
  155MOL    H5340401   1.986   7.270   2.003  1.1779  0.4190  0.2930
  155MOL    C5440402   2.201   7.273   2.004  0.6672  0.2666  0.2864
  155MOL    N5540403   2.215   7.266   2.150 -0.0064 -0.0660  0.9114
  155MOL    C5640404   2.309   7.194   2.214 -0.3909  0.2325  0.7773
  155MOL    O5740405   2.402   7.133   2.162  0.4696 -0.8977  0.3422
  155MOL    C5840406   2.307   7.198   2.356  0.7122  0.2124  0.2617
  155MOL    C5940407   2.204   7.423   1.965  0.4709 -0.3034  0.1564
  155MOL    H6040408   2.279   7.217   1.953 -0.1462 -1.1032  0.5238
  155MOL    H6140409   2.134   7.292   2.204 -1.6496  1.3705 -2.1021
  155MOL    H6240410   2.324   7.097   2.391 -2.3485 -0.4145  0.1342
  155MOL    H6340411   2.380   7.262   2.407  1.4493  1.0439 -1.7908
  155MOL    H6440412   2.208   7.213   2.400 -0.3992 -0.0195 -2.1325
  155MOL    H6540413   2.155   7.427   1.868  1.4054  0.5268 -0.2951
  155MOL    H6640414   2.132   7.469   2.033 -0.4233 -2.6715  0.8422
  155MOL    C6740415   2.345   7.496   1.953 -0.3624 -0.5682  0.4497
  155MOL    N6840416   2.425   7.432   1.844 -0.3021  0.0982 -0.4470
  155MOL    C6940417   2.471   7.478   1.729 -0.1102  0.3167 -0.4469
  155MOL    O7040418   2.479   7.599   1.700 -0.4767  0.2491  0.0050
  155MOL    C7140419   2.513   7.368   1.634  0.4937  0.0683 -0.0318
  155MOL    C7240420   2.432   7.497   2.080 -0.2077  0.1500  0.3282
  155MOL    H7340421   2.331   7.602   1.929  2.4503 -0.4427 -0.8925
  155MOL    H7440422   2.423   7.331   1.854 -0.3737  0.0339 -1.1448
  155MOL    H7540423   2.425   7.324   1.587 -0.8716  0.4704  2.0758
  155MOL    H7640424   2.599   7.386   1.569  0.6603 -0.4663  0.0395
  155MOL    H7740425   2.547   7.290   1.701  0.3316  1.1684  1.3543
  155MOL    H7840426   2.444   7.392   2.104  0.5788  0.4279  1.2013
  155MOL    H7940427   2.533   7.539   2.070 -0.7353  1.5472  0.7605
  155MOL    C8040428   2.378   7.572   2.204 -0.5400 -0.1805  0.5772
  155MOL    N8140429   2.364   7.709   2.168 -0.1837  0.6799  0.0030
  155MOL    C8240430   2.260   7.784   2.139 -0.3394 -0.5008 -0.3228
  155MOL    O8340431   2.152   7.740   2.117  0.2603 -0.2192  0.0657
  155MOL    C8440432   2.283   0.091   2.122 -0.4850 -0.7629  0.4629
  155MOL    C8540433   2.463   7.556   2.336 -0.0226 -0.8172  0.3941
  155MOL    H8640434   2.279   7.527   2.216 -0.6572  0.8203  3.9178
  155MOL    H8740435   2.456   7.750   2.164  1.0656 -1.9645  0.1559
  155MOL    H8840436   2.388   0.115   2.107 -0.6374 -1.6536 -2.3154
  155MOL    H8940437   2.233   0.133   2.035  0.9656 -0.5636 -0.2735
  155MOL    H9040438   2.239   0.158   2.197 -0.9069 -1.4299  0.8129
  155MOL    H9140439   2.449   7.454   2.372 -0.7403 -0.9559 -0.2679
  155MOL    H9240440   2.568   7.569   2.309 -0.1854 -0.1616  0.0554
  155MOL    C9340441   2.428   7.653   2.454  0.0084 -0.3811  0.2856
  155MOL    N9440442   2.542   7.647   2.542  0.1048 -0.0139  0.1210
  155MOL    C9540443   2.657   7.716   2.524  0.0820 -0.2272 -0.1083
  155MOL    O9640444   2.684   7.795   2.431 -0.3679 -0.0383 -0.4023
  155MOL    C9740445   2.770   7.681   2.631  0.1843 -0.0092 -0.4983
  155MOL    C9840446   2.297   7.597   2.528 -0.2049 -0.6247  0.5860
  155MOL    H9940447   2.414   7.756   2.421  0.1760 -1.0849 -2.0295
  155MOL   H10040448   2.539   7.587   2.622 -0.8996 -2.4572 -1.6855
  155MOL   H10140449   2.752   7.589   2.685  1.1010 -0.8375 -1.5795
  155MOL   H10240450   2.863   7.678   2.574 -0.7626 -0.0749 -2.0969
  155MOL   H10340451   2.784   7.759   2.706 -0.5548  0.7430 -1.1201
  155MOL   H10440452   2.297   7.490   2.507 -0.7003 -0.5012 -0.0924
  155MOL   H10540453   2.299   7.613   2.636 -0.1199  0.2862  0.4509
  155MOL   C10640454   2.154   7.662   2.489 -0.3455  0.6721 -0.2898
  155MOL   N10740455   2.161   7.803   2.464  0.1835 -0.0671  0.2658
  155MOL   C10840456   2.202   0.060   2.549  0.2009  0.3394  0.1553
  155MOL   O10940457   2.248   0.038   2.664 -0.3194 -0.3735 -0.0856
  155MOL   C11040458   2.203   0.205   2.500 -0.0866 -0.2341 -0.2601
  155MOL   C11140459   2.028   7.620   2.574 -0.2306 -0.0370  0.6802
  155MOL   H11240460   2.142   7.616   2.391  0.7841  1.7937 -0.9678
  155MOL   H11340461   2.138   7.840   2.372 -1.5146 -0.5918  0.4560
  155MOL   H11440462   2.212   0.264   2.591  0.5204  1.4016 -1.3644
  155MOL   H11540463   2.293   0.224   2.442 -0.6553 -1.3941 -1.5590
  155MOL   H11640464   2.110   0.238   2.454 -1.5114  1.6753  3.6868
  155MOL   H11740465   2.061   7.608   2.677  0.7913  1.4847  0.5398
  155MOL   H11840466   1.962   7.707   2.567  0.1842  0.2994  0.9533
  155MOL   C11940467   1.941   7.498   2.513 -0.0974 -0.8657 -0.3420
  155MOL   N12040468   1.903   7.517   2.373  0.2577 -0.0781  0.0892
  155MOL   C12140469   1.917   7.432   2.272 -0.1967 -0.1203  0.1528
  155MOL   O12240470   1.986   7.330   2.271 -0.0940  0.0902 -0.1092
  155MOL   C12340471   1.822   7.461   2.155 -0.0943 -0.2081 -0.2436
  155MOL   C12440472   1.820   7.459   2.598  0.6191 -0.8045  0.9220
  155MOL   H12540473   2.009   7.413   2.523  0.0750 -0.7482 -0.5102
  155MOL   H12640474   1.843   7.596   2.350  1.5984  0.9536  0.0510
  155MOL   H12740475   1.823   7.379   2.084  2.5613 -1.2706  0.9589
  155MOL   H12840476   1.723   7.489   2.193 -1.0397 -1.2621 -1.8847
  155MOL   H12940477   1.863   7.559   2.130 -2.0328  1.2257  1.9352
  155MOL   H13040478   1.848   7.465   2.704 -0.9435 -1.9271  1.4150
  155MOL   H13140479   1.738   7.528   2.578  0.8170 -0.9267 -0.2990
  155MOL   C13240480   1.761   7.322   2.569  0.1184  0.1373 -0.3434
  155MOL   N13340481   1.613   7.303   2.581  0.1947  0.1655  0.3534
  155MOL   C13440482   1.527   7.329   2.679  0.5315  1.3583  0.0411
  155MOL   O13540483   1.567   7.389   2.780 -0.0039  0.4125  0.3564
  155MOL   C13640484   1.391   7.275   2.660  0.2023  0.1238 -0.4950
  155MOL   C13740485   1.834   7.210   2.641 -0.1793 -1.0774 -0.3799
  155MOL   H13840486   1.771   7.305   2.462  2.9642 -0.3876 -0.0371
  155MOL   H13940487   1.566   7.265   2.500  1.5625  1.2193 -0.9640
  155MOL   H14040488   1.385   7.168   2.684  0.5609 -0.1354 -1.5061
  155MOL   H14140489   1.311   7.328   2.711  0.3710 -1.8456  1.9340
  155MOL   H14240490   1.364   7.281   2.554 -1.7050 -0.6453 -0.0703
  155MOL   H14340491   1.931   7.253   2.667 -1.0120  0.5752  0.0932
  155MOL   H14440492   1.798   7.210   2.743  1.0222  2.2022  0.1235
  155MOL   C14540493   1.842   7.070   2.573  0.4242 -0.2979  0.1050
  155MOL   N14640494   1.721   7.016   2.515  0.3639 -0.0514  0.8860
  155MOL   C14740495   1.707   6.975   2.388  0.5015  0.9947  0.3989
  155MOL   O14840496   1.788   6.986   2.296 -0.2468 -0.6798 -0.0884
  155MOL   C14940497   1.566   6.923   2.349 -0.2150  0.5527  0.5479
  155MOL   C15040498   1.898   6.965   2.681  0.6048 -0.4049  0.2985
  155MOL   H15140499   1.910   7.072   2.488 -0.3397  1.6304 -0.4693
  155MOL   H15240500   1.638   7.013   2.573  0.4420 -0.0230  0.9993
  155MOL   H15340501   1.552   6.895   2.245 -0.9651  0.1243  0.7550
  155MOL   H15440502   1.540   6.832   2.404  0.0545  0.6212  0.7865
  155MOL   H15540503   1.498   7.004   2.374 -0.9928  0.2518 -0.5685
  155MOL   H15640504   1.957   6.892   2.625  1.1381 -0.8255  1.4060
  155MOL   H15740505   1.966   7.007   2.756  2.0124 -0.4256 -0.9242
  155MOL   C15840506   1.789   6.875   2.759  0.0096 -0.6730 -0.0369
  155MOL   N15940507   1.711   6.960   2.847 -0.1856 -0.2204 -0.1395
  155MOL   C16040508   1.589   6.999   2.845  1.2320  0.7051 -0.0983
  155MOL   O16140509   1.509   6.969   2.753  0.0924  0.5874  0.4220
  155MOL   C16240510   1.528   7.064   2.971 -0.8618 -0.1289  0.3010
  155MOL   C16340511   1.851   6.759   2.840  0.4046 -0.4014 -0.0352
  155MOL   H16440512   1.717   6.842   2.685 -1.3547  0.4297  0.7872
  155MOL   H16540513   1.755   6.995   2.931 -1.4304  2.7260 -0.6575
  155MOL   H16640514   1.608   7.099   3.035  0.1920 -1.6282 -0.1803
  155MOL   H16740515   1.482   7.161   2.950  0.2281  0.1258 -0.9931
  155MOL   H16840516   1.457   6.999   3.022 -2.4489 -1.2057 -3.1010
  155MOL   H16940517   1.916   6.797   2.919  1.1731 -3.8254  1.0581
  155MOL   H17040518   1.778   6.690   2.882 -2.7776  2.7127 -0.1685
  155MOL   C17140519   1.931   6.660   2.751  0.0143  0.6614  0.0681
  155MOL   N17240520   1.839   6.583   2.666  0.5319 -0.1350 -0.2425
  155MOL   C17340521   1.816   6.616   2.535 -0.3393  0.3680 -0.8558
  155MOL   O17440522   1.894   6.690   2.475  0.3905  0.4553  0.1442
  155MOL   C17540523   1.696   6.549   2.465  0.0729 -0.1057 -0.3747
  155MOL   C17640524   2.013   6.553   2.835  0.3377  0.4516 -0.0864
  155MOL   H17740525   2.007   6.717   2.696 -0.6534  1.0373 -0.4668
  155MOL   H17840526   1.757   6.546   2.712  0.8633 -1.0180 -0.3743
  155MOL   H17940527   1.723   6.445   2.451 -1.9912 -0.4273 -2.2389
  155MOL   H18040528   1.606   6.548   2.526  1.6667  2.0635  2.1180
  155MOL   H18140529   1.679   6.595   2.367  0.1706  2.1837  0.6366
  155MOL   H18240530   1.937   6.502   2.893  0.0769  1.8579  0.8438
  155MOL   H18340531   2.070   6.479   2.780  1.0734  1.0612 -0.1568
  155MOL   C18440532   2.125   6.601   2.939  1.2450  0.2931  0.9164
  155MOL   N18540533   2.231   6.671   2.859 -0.2681  0.0520  0.2108
  155MOL   C18640534   2.245   6.800   2.835  0.1596  0.5528 -0.2642
  155MOL   O18740535   2.174   6.887   2.880  0.3589  0.6435  0.2370
  155MOL   C18840536   2.361   6.835   2.737 -0.5919  0.4558  0.1695
  155MOL   C18940537   2.191   6.485   3.011 -0.1307 -0.1886 -0.5833
  155MOL   H19040538   2.069   6.670   3.002  0.6266  1.7703 -1.1936
  155MOL   H19140539   2.302   6.610   2.822 -0.3213  0.7053 -0.9764
  155MOL   H19240540   2.331   6.934   2.702 -2.4772 -0.0088  0.4362
  155MOL   H19340541   2.459   6.841   2.785 -1.7594 -0.2974  2.7368
  155MOL   H19440542   2.368   6.764   2.654  1.1568 -1.5151  1.9185
  155MOL   H19540543   2.117   6.406   3.023  1.5850 -1.8370 -0.6129
  155MOL   H19640544   2.254   6.444   2.932 -2.4417 -0.2776 -2.4759
  155MOL   C19740545   2.261   6.516   3.147 -0.0902 -0.3425 -0.2908
  155MOL   N19840546   2.406   6.477   3.155  0.2244 -0.3547  0.3176
  155MOL   C19940547   2.504   6.521   3.076  0.0365 -0.8067 -0.0123
  155MOL   O20040548   2.491   6.580   2.967 -0.2820  0.6214 -0.1771
  155MOL   C20140549   2.643   6.493   3.130 -0.2069  0.0982  0.3511
  155MOL   C20240550   2.183   6.473   3.280  0.9892  0.2085  0.8051
  155MOL   H20340551   2.266   6.625   3.153 -0.0813 -0.3795  0.5200
  155MOL   H20440552   2.433   6.422   3.236  1.3610  1.0917  0.9443
  155MOL   H20540553   2.635   6.479   3.237 -0.1888 -1.8418  0.1050
  155MOL   H20640554   2.688   6.401   3.095  0.6700  0.3713  0.7579
  155MOL   H20740555   2.707   6.580   3.115 -0.2522  0.1318  0.3529
  155MOL   H20840556   2.098   6.540   3.290  0.2303 -0.5167 -0.6759
  155MOL   H20940557   2.131   6.378   3.263  3.8554 -1.6145  1.7480
  155MOL   C21040558   2.274   6.460   3.414  0.4615 -0.7614 -0.1916
  155MOL   N21140559   2.295   6.317   3.449  0.2123  0.3176  0.6456
  155MOL   C21240560   2.376   6.228   3.397  0.4452  0.3508 -0.6073
  155MOL   O21340561   2.473   6.262   3.324 -0.1446 -0.4198 -0.7133
  155MOL   C21440562   2.372   6.083   3.444 -0.2814  0.0992  0.1823
  155MOL   C21540563   2.231   6.540   3.537 -0.3165 -0.0705  0.4617
  155MOL   H21640564   2.372   6.501   3.391  0.8498 -1.0281  0.9453
  155MOL   H21740565   2.248   6.285   3.533 -0.0841 -1.7426 -0.2742
  155MOL   H21840566   2.398   6.075   3.549 -0.9544  0.4443  0.3785
  155MOL   H21940567   2.268   6.048   3.446 -1.0654  2.2970 -0.4311
  155MOL   H22040568   2.430   6.012   3.385 -0.4328 -0.5195  0.7712
  155MOL   H22140569   2.123   6.528   3.542 -0.3870  0.4299  0.1066
  155MOL   H22240570   2.278   6.492   3.624 -3.3409 -1.1214  1.6118
  155MOL   C22340571   2.260   6.687   3.547 -0.3909 -0.0791  0.0198
  155MOL   N22440572   2.402   6.702   3.561 -0.1849  0.2578  0.3044
  155MOL   C22540573   2.478   6.805   3.515 -0.1745 -0.3584 -0.1947
  155MOL   O22640574   2.424   6.905   3.475  0.1006 -0.4034 -0.2159
  155MOL   C22740575   2.632   6.810   3.520 -0.1039  0.6300 -0.2101
  155MOL   C22840576   2.191   6.771   3.666  0.2762 -0.5991  0.5203
  155MOL   H22940577   2.237   6.734   3.451  0.4858  0.5496  0.1080
  155MOL   H23040578   2.458   6.621   3.583 -0.9195 -0.4442 -0.3974
  155MOL   H23140579   2.653   6.784   3.624  0.2459 -0.2905 -0.5052
  155MOL   H23240580   2.672   6.729   3.459  2.3313  1.4298  0.2495
  155MOL   H23340581   2.692   6.899   3.501 -0.6335  1.0509  0.0886
  155MOL   H23440582   2.233   6.742   3.762  1.6653  2.2331  0.7863
  155MOL   H23540583   2.196   6.877   3.642  0.9484 -0.7943 -0.2423
  155MOL   C23640584   2.033   6.754   3.675 -0.4302  0.0665 -0.3786
  155MOL   N23740585   1.988   6.875   3.751 -0.6000  0.5660 -0.2497
  155MOL   C23840586   1.914   6.970   3.688 -0.2323  0.2724 -0.1405
  155MOL   O23940587   1.884   6.969   3.566 -0.0418  0.1491 -0.1225
  155MOL   C24040588   1.874   7.090   3.768  0.5923 -0.0371  0.1277
  155MOL   C24140589   1.982   6.629   3.755  0.3044  0.1089  0.3579
  155MOL   H24240590   1.982   6.747   3.579 -2.2161 -1.3017  0.6582
  155MOL   H24340591   2.037   6.887   3.839  1.0996 -1.0536 -0.9374
  155MOL   H24440592   1.949   7.169   3.764 -0.5837  1.1954  1.8494
  155MOL   H24540593   1.783   7.142   3.737 -0.1772  0.0083  2.4125
  155MOL   H24640594   1.856   7.073   3.874  0.4395  0.4222  0.1787
  155MOL   H24740595   2.021   6.532   3.723 -0.8965  0.2369 -1.5807
  155MOL   H24840596   2.022   6.647   3.855 -0.3715  2.6181  0.2019
  155MOL   C24940597   1.824   6.603   3.763 -0.4532  0.3470 -0.1173
  155MOL   N25040598   1.749   6.638   3.637 -0.0148 -0.2732 -0.3060
  155MOL   C25140599   1.661   6.552   3.586  0.5735  0.5889  0.5166
  155MOL   O25240600   1.628   6.446   3.643  0.3230  0.3194 -0.0833
  155MOL   C25340601   1.592   6.593   3.455 -0.4964  0.6207  0.2081
  155MOL   C25440602   1.762   6.684   3.875  0.5744 -0.5449 -0.8217
  155MOL   H25540603   1.822   6.495   3.780 -1.5864  0.3745 -0.0698
  155MOL   H25640604   1.766   6.726   3.590  1.0731 -1.5089 -2.2754
  155MOL   H25740605   1.544   6.689   3.472  0.1821  0.8336  0.9514
  155MOL   H25840606   1.663   6.616   3.375 -1.4620  2.4327 -0.1459
  155MOL   H25940607   1.511   6.525   3.428  0.3801  0.4735 -2.1978
  155MOL   H26040608   1.832   6.686   3.959 -0.0303 -2.2308 -0.2675
  155MOL   H26140609   1.754   6.790   3.852 -0.0441 -0.4044 -0.0138
  155MOL   H26240610   1.662   6.655   3.909  1.0608  0.5421  1.6589
  156MOL     C140611   0.106   6.427   5.781  0.4108 -0.1897  0.5202
  156MOL     N240612   0.206   6.368   5.866 -0.0236 -0.5713  0.1036
  156MOL     C340613   0.299   6.440   5.937 -0.0893  0.3861 -0.0067
  156MOL     O440614   0.315   6.563   5.927  0.3361 -0.7932  0.7348
  156MOL     C540615   0.399   6.358   6.017 -0.3372  0.2422  0.0450
  156MOL     C640616   7.816   6.347   5.790  0.7272  0.4614 -0.2169
  156MOL     H740617   0.095   6.530   5.816 -0.4163  0.1629 -0.7365
  156MOL     H840618   0.215   6.268   5.852 -0.6793 -1.1243  3.3525
  156MOL     H940619   0.340   6.305   6.092  1.2783 -1.3416  0.2265
  156MOL    H1040620   0.446   6.290   5.947  2.5674  1.7728  0.4465
  156MOL    H1140621   0.471   6.420   6.070 -0.9769 -1.2806  2.7773
  156MOL    H1240622   7.752   6.399   5.720 -0.3287  0.8079  0.9947
  156MOL    H1340623   7.824   6.241   5.762 -0.1270  1.0473 -2.8184
  156MOL    H1440624   0.140   6.436   5.678 -0.3091 -3.0500  0.0040
  156MOL    C1540625   7.749   6.345   5.929  0.4850 -0.0855  0.4689
  156MOL    N1640626   7.619   6.279   5.907 -0.6535 -0.4144 -0.2239
  156MOL    C1740627   7.582   6.162   5.963  0.0101 -0.5850  0.6926
  156MOL    O1840628   7.660   6.096   6.031  0.4060  0.2849 -0.0647
  156MOL    C1940629   7.436   6.115   5.932 -0.5883  1.1013  0.2008
  156MOL    C2040630   7.728   6.478   6.000  0.0096  0.2601  0.1595
  156MOL    H2140631   7.809   6.280   5.992  0.6814  0.0805  0.4535
  156MOL    H2240632   7.550   6.325   5.850  0.2797  1.4106  0.0840
  156MOL    H2340633   7.414   6.081   5.831  2.4049 -1.2047  0.2723
  156MOL    H2440634   7.412   6.034   6.001  2.1848  0.6537  0.6910
  156MOL    H2540635   7.371   6.197   5.962  0.6485  2.3364 -0.4572
  156MOL    H2640636   7.825   6.527   6.009 -0.3386  0.9155  0.3288
  156MOL    H2740637   7.684   6.546   5.928 -1.0739 -0.4758  0.1086
  156MOL    C2840638   7.651   6.486   6.133  0.2142  0.0960  0.3917
  156MOL    N2940639   7.582   6.617   6.150  0.5200  1.0056  0.6452
  156MOL    C3040640   7.469   6.661   6.093  0.2014  0.5186  0.6141
  156MOL    O3140641   7.398   6.585   6.026 -0.7636  0.3088 -0.2792
  156MOL    C3240642   7.425   6.807   6.105 -0.3654  0.3673  0.1856
  156MOL    C3340643   7.736   6.446   6.255  0.3678 -0.8893  0.2632
  156MOL    H3440644   7.580   6.404   6.125  0.9792 -0.6801  1.4349
  156MOL    H3540645   7.644   6.686   6.190  1.8698 -0.2559  0.7737
  156MOL    H3640646   7.502   6.878   6.077 -0.9012 -0.2472 -3.0447
  156MOL    H3740647   7.331   6.831   6.056  0.2985  1.1009 -0.7297
  156MOL    H3840648   7.414   6.827   6.212  0.2410  2.8427 -0.2020
  156MOL    H3940649   7.807   6.368   6.225 -0.2034 -1.2392 -0.1721
  156MOL    H4040650   7.799   6.530   6.286 -1.3766  0.0006  1.4473
  156MOL    C4140651   7.654   6.397   6.379 -0.3988  0.1375  0.1011
  156MOL    N4240652   7.731   6.393   6.497  0.6706 -0.2293  0.1630
  156MOL    C4340653   7.700   6.437   6.620  0.4629  0.0597  0.5547
  156MOL    O4440654   7.594   6.489   6.653  0.5718  0.3291 -0.2954
  156MOL    C4540655   7.806   6.418   6.721  0.1842 -0.2653 -0.2548
  156MOL    C4640656   7.577   6.261   6.363 -0.6021 -0.1860 -0.3205
  156MOL    H4740657   7.579   6.476   6.387  1.1442  1.5543  1.1498
  156MOL    H4840658   7.830   6.375   6.483  0.2223 -1.6393 -1.3146
  156MOL    H4940659   0.041   6.490   6.688  0.2534 -1.1950 -2.2300
  156MOL    H5040660   7.770   6.419   6.824 -2.3827  0.3496 -1.1071
  156MOL    H5140661   0.018   6.323   6.709  1.2100  0.3960 -1.1320
  156MOL    H5240662   7.502   6.270   6.442  0.3777  0.9614  0.4924
  156MOL    H5340663   7.529   6.244   6.267 -1.7184 -1.4844  0.4491
  156MOL    C5440664   7.661   6.133   6.379 -0.7477 -0.0089  0.3372
  156MOL    N5540665   7.770   6.130   6.282 -0.4640  0.2848  0.0929
  156MOL    C5640666   0.057   6.101   6.317 -0.2250  0.5844 -0.5034
  156MOL    O5740667   0.084   6.054   6.431 -0.3579 -0.4306 -0.2423
  156MOL    C5840668   0.165   6.120   6.219 -0.5218  0.3508 -0.0601
  156MOL    C5940669   7.588   5.998   6.371  0.8651 -0.1581 -0.2878
  156MOL    H6040670   7.710   6.131   6.477 -0.3702 -1.1401  0.1252
  156MOL    H6140671   7.751   6.149   6.185 -0.5449  0.1971  0.0914
  156MOL    H6240672   0.158   6.218   6.172  0.2408 -0.4297 -1.8778
  156MOL    H6340673   0.257   6.136   6.274 -0.3018  0.3367 -0.4229
  156MOL    H6440674   0.187   6.032   6.158  0.0035  3.0418 -3.8974
  156MOL    H6540675   7.541   5.993   6.272  2.9305 -0.7197 -1.2583
  156MOL    H6640676   7.659   5.919   6.349 -0.1078 -0.6900 -1.6203
  156MOL    C6740677   7.500   5.961   6.490 -0.1191  0.4013 -0.4708
  156MOL    N6840678   7.579   5.909   6.606  0.0378  0.3528  0.0538
  156MOL    C6940679   7.540   5.906   6.736  1.0485  1.4357 -0.1114
  156MOL    O7040680   7.425   5.938   6.776 -0.0240 -0.3934  0.1605
  156MOL    C7140681   7.648   5.869   6.837  0.4646 -0.1402  0.4895
  156MOL    C7240682   7.389   5.857   6.436 -0.2388  0.3149 -0.2683
  156MOL    H7340683   7.435   6.042   6.523 -1.9506 -1.0557 -0.3978
  156MOL    H7440684   7.676   5.883   6.599  0.3879  1.8872 -1.1217
  156MOL    H7540685   7.721   5.949   6.844 -0.4776  0.7065  0.7000
  156MOL    H7640686   7.608   5.834   6.933  1.0244 -1.4076  0.2736
  156MOL    H7740687   7.708   5.786   6.799  1.5254  2.0082 -2.6749
  156MOL    H7840688   7.358   5.869   6.333 -1.5317 -2.1539 -0.1970
  156MOL    H7940689   7.442   5.762   6.425 -0.1636 -0.1385  3.2652
  156MOL    C8040690   7.262   5.847   6.514  0.6468  0.4801  0.0614
  156MOL    N8140691   7.183   5.743   6.453 -0.2766  0.5444  0.3696
  156MOL    C8240692   7.094   5.676   6.532  0.1279  0.1714  1.0398
  156MOL    O8340693   7.081   5.697   6.651 -0.0805  0.4939 -0.4409
  156MOL    C8440694   7.003   5.573   6.466  0.3504 -0.8422 -0.1819
  156MOL    C8540695   7.174   5.977   6.511 -0.1196 -0.7310  0.0039
  156MOL    H8640696   7.289   5.812   6.613  1.9770 -1.5771 -0.9856
  156MOL    H8740697   7.171   5.734   6.353 -0.5751 -1.1633  0.5322
  156MOL    H8840698   7.055   5.483   6.432  0.5032 -0.5667 -0.6766
  156MOL    H8940699   6.939   5.540   6.547 -0.1525  1.3407  0.3447
  156MOL    H9040700   6.952   5.617   6.381 -0.2529  0.4763  0.8553
  156MOL    H9140701   7.091   5.964   6.581  0.3140 -0.3414  0.5955
  156MOL    H9240702   7.240   6.049   6.558 -2.2461 -0.1695  2.2468
  156MOL    C9340703   7.126   6.039   6.378 -0.0884 -0.3016  0.0183
  156MOL    N9440704   7.147   6.180   6.382 -0.4863  0.1736 -0.6704
  156MOL    C9540705   7.197   6.248   6.280  0.6302 -0.3492  0.6273
  156MOL    O9640706   7.213   6.205   6.168 -0.0018 -0.1851  0.3314
  156MOL    C9740707   7.218   6.397   6.306 -0.4313 -0.0921 -0.2632
  156MOL    C9840708   6.979   5.994   6.342  0.1801  0.5133  0.4175
  156MOL    H9940709   7.194   6.004   6.300 -0.4560 -1.3297  0.1473
  156MOL   H10040710   7.146   6.215   6.477  0.5318 -1.7716  0.0981
  156MOL   H10140711   7.141   6.446   6.364  2.4215 -0.8238  4.3948
  156MOL   H10240712   7.312   6.407   6.361 -0.2101 -1.8823 -0.2776
  156MOL   H10340713   7.217   6.458   6.216 -1.8595  1.0396  0.5139
  156MOL   H10440714   6.980   5.891   6.306  0.7948  1.2832 -1.8097
  156MOL   H10540715   6.927   5.989   6.438  1.0766  0.5392  0.9084
  156MOL   C10640716   6.888   6.085   6.258 -0.1311 -0.4908  0.1858
  156MOL   N10740717   6.922   6.111   6.113 -0.1572 -0.2192  0.2199
  156MOL   C10840718   6.842   6.113   6.010 -0.4802 -0.7340  0.0888
  156MOL   O10940719   6.731   6.063   6.021  0.4378  0.6372  0.6630
  156MOL   C11040720   6.890   6.170   5.878  0.3337  0.0829 -0.1073
  156MOL   C11140721   6.854   6.223   6.329  0.0287  0.3883 -0.1767
  156MOL   H11240722   6.797   6.025   6.258 -0.6521  0.2922  0.4714
  156MOL   H11340723   7.017   6.143   6.106 -0.0095 -0.9297 -1.2275
  156MOL   H11440724   6.844   6.101   5.807 -2.0702  1.6351 -0.1326
  156MOL   H11540725   6.869   6.276   5.870  0.7231  0.3584  2.2144
  156MOL   H11640726   6.998   6.162   5.871  0.3413  1.2058 -1.6116
  156MOL   H11740727   6.846   6.206   6.437 -1.8378  0.3962 -0.2884
  156MOL   H11840728   6.934   6.296   6.340  0.3614 -0.1266  0.9062
  156MOL   C11940729   6.709   6.280   6.295  0.3866  0.1980 -0.4184
  156MOL   N12040730   6.726   6.427   6.319 -0.1179 -0.6463  0.1145
  156MOL   C12140731   6.750   6.522   6.232  0.0726  0.0038  0.8426
  156MOL   O12240732   6.759   6.501   6.108  0.1975  0.3190 -0.6749
  156MOL   C12340733   6.746   6.666   6.295 -0.1363 -0.2203 -0.0375
  156MOL   C12440734   6.594   6.221   6.396 -0.1025 -0.0036 -0.2302
  156MOL   H12540735   6.693   6.264   6.189 -1.7369  1.5707 -0.3330
  156MOL   H12640736   6.698   6.463   6.409 -0.2418 -0.8907  0.1735
  156MOL   H12740737   6.683   6.662   6.383 -0.2124 -1.8480 -0.1526
  156MOL   H12840738   6.846   6.693   6.331 -0.5326  1.3650 -0.0810
  156MOL   H12940739   6.699   6.740   6.230  0.7995 -0.3315 -0.8564
  156MOL   H13040740   6.593   6.112   6.385  1.6063 -0.0594  0.0781
  156MOL   H13140741   6.616   6.252   6.498 -2.0244  0.1746  0.1504
  156MOL   C13240742   6.458   6.272   6.357  0.7377  0.7046  0.0185
  156MOL   N13340743   6.358   6.271   6.465  0.1591 -0.1478  0.0582
  156MOL   C13440744   6.330   6.173   6.550  0.4360  0.7702 -0.0290
  156MOL   O13540745   6.389   6.064   6.548  0.4175  0.3466 -0.3515
  156MOL   C13640746   6.215   6.187   6.651 -0.8065  0.1949  0.2510
  156MOL   C13740747   6.414   6.201   6.223  0.3358  0.0775 -0.5001
  156MOL   H13840748   6.464   6.377   6.328  0.2087  0.8684  0.4829
  156MOL   H13940749   6.310   6.357   6.489  2.1818  0.4085  2.2891
  156MOL   H14040750   6.132   6.251   6.621 -0.1779  0.5999 -0.6183
  156MOL   H14140751   6.161   6.096   6.680  0.1672 -0.3013  0.5327
  156MOL   H14240752   6.251   6.233   6.742 -3.5559  0.3386  1.3018
  156MOL   H14340753   6.505   6.196   6.163  0.9843  1.0894  0.3821
  156MOL   H14440754   6.378   6.101   6.247  1.7643 -0.3029  0.1631
  156MOL   C14540755   6.311   6.264   6.128 -0.1285  0.7213  0.0352
  156MOL   N14640756   6.177   6.279   6.190 -0.6060  0.7221 -0.4914
  156MOL   C14740757   6.101   6.393   6.192  0.2035 -0.1143  0.5095
  156MOL   O14840758   6.127   6.489   6.121 -0.2411 -0.0950  0.4532
  156MOL   C14940759   5.989   6.406   6.291 -0.0129 -0.0520 -0.5495
  156MOL   C15040760   6.303   6.202   5.987 -0.0635  0.3665 -0.0556
  156MOL   H15140761   6.349   6.365   6.110  0.3049  0.7374  1.0283
  156MOL   H15240762   6.148   6.225   6.271  1.2088 -2.4994 -1.9077
  156MOL   H15340763   5.952   6.508   6.285  1.9221  1.0359  3.8331
  156MOL   H15440764   5.901   6.352   6.255 -1.5393  0.5527  2.1907
  156MOL   H15540765   6.004   6.382   6.396  3.4911 -0.1206 -0.9931
  156MOL   H15640766   6.380   6.129   5.960 -1.3382 -0.6952 -0.8822
  156MOL   H15740767   6.217   6.135   5.982 -0.4900  1.0781 -4.1836
  156MOL   C15840768   6.269   6.304   5.876 -0.2223  0.3518  0.1113
  156MOL   N15940769   6.199   6.234   5.772 -0.4510 -0.0320  0.3301
  156MOL   C16040770   6.072   6.197   5.776  0.9689  0.6192 -0.2656
  156MOL   O16140771   5.999   6.212   5.876 -0.0785 -0.4712 -0.3850
  156MOL   C16240772   6.016   6.145   5.645  1.4084  0.3763 -0.2905
  156MOL   C16340773   6.392   6.367   5.809  0.3811  0.0968 -0.1646
  156MOL   H16440774   6.205   6.383   5.914 -1.5113 -0.7060  0.1635
  156MOL   H16540775   6.248   6.204   5.689  0.7587  0.8741  0.7114
  156MOL   H16640776   6.068   6.193   5.561 -2.1495  3.1021 -1.0501
  156MOL   H16740777   6.028   6.037   5.649 -1.9665  0.0251  2.0517
  156MOL   H16840778   5.909   6.161   5.642  1.2676  0.1477  2.3026
  156MOL   H16940779   6.461   6.371   5.894  0.6857 -1.0949 -0.3482
  156MOL   H17040780   6.436   6.287   5.750 -0.1381  0.5672 -1.1960
  156MOL   C17140781   6.369   6.503   5.737  0.4568 -0.0606  0.1391
  156MOL   N17240782   6.472   6.523   5.635  0.0344 -0.3428  0.4335
  156MOL   C17340783   6.461   6.530   5.502  0.0083 -0.0678 -0.0568
  156MOL   O17440784   6.359   6.518   5.434  0.3094  0.6976  0.0877
  156MOL   C17540785   6.595   6.549   5.433 -0.2892 -0.1283 -0.2642
  156MOL   C17640786   6.365   6.623   5.837  0.4707  0.3346 -0.3882
  156MOL   H17740787   6.272   6.490   5.687  0.3416 -0.0734  0.3675
  156MOL   H17840788   6.571   6.531   5.654 -0.1663 -0.8355  1.7090
  156MOL   H17940789   6.579   6.639   5.374  1.1062  0.8842  0.8481
  156MOL   H18040790   6.674   6.560   5.508 -0.5545 -1.0476  0.1591
  156MOL   H18140791   6.621   6.464   5.371 -0.7747  0.4230 -1.2394
  156MOL   H18240792   6.329   6.583   5.931 -0.1206 -0.0116 -0.7592
  156MOL   H18340793   6.468   6.652   5.860  0.2032 -0.0961  1.4235
  156MOL   C18440794   6.301   6.746   5.783  0.2562 -0.1700 -0.4160
  156MOL   N18540795   6.362   6.869   5.834  0.2272 -0.0988  0.0775
  156MOL   C18640796   6.465   6.931   5.775  0.4389  0.4446 -0.1749
  156MOL   O18740797   6.509   6.900   5.666  0.0934 -0.8589  0.5262
  156MOL   C18840798   6.538   7.047   5.841  0.0213 -0.0048 -0.1571
  156MOL   C18940799   6.144   6.750   5.803 -0.1015  0.0282 -0.2219
  156MOL   H19040800   6.304   6.745   5.674  0.3943  0.2217 -0.4152
  156MOL   H19140801   6.341   6.899   5.928 -1.1627  1.8466 -0.8299
  156MOL   H19240802   6.646   7.027   5.845  0.0668  0.4470  1.6640
  156MOL   H19340803   6.522   7.141   5.789  3.3737  1.5137  1.3611
  156MOL   H19440804   6.497   7.056   5.942 -0.7242  5.2572 -0.8149
  156MOL   H19540805   6.115   6.797   5.709 -1.7968 -1.6464 -0.5648
  156MOL   H19640806   6.113   6.646   5.793  0.8410 -0.4222  1.4003
  156MOL   C19740807   6.073   6.797   5.934  0.2841  0.2146 -0.7088
  156MOL   N19840808   6.149   6.756   6.058 -0.3469  0.4260  0.1633
  156MOL   C19940809   6.230   6.837   6.127 -0.3815  0.7407 -0.0707
  156MOL   O20040810   6.273   6.950   6.089 -0.1935 -1.3291  0.1310
  156MOL   C20140811   6.270   6.787   6.265 -0.0866 -0.5961  0.2128
  156MOL   C20240812   5.926   6.749   5.952  0.7127 -0.3386  0.7118
  156MOL   H20340813   6.074   6.906   5.931 -2.5822  0.2947 -0.0959
  156MOL   H20440814   6.126   6.663   6.089  1.9778 -0.8452 -1.7605
  156MOL   H20540815   6.352   6.716   6.263  0.4885  0.0495  0.3407
  156MOL   H20640816   6.298   6.863   6.339  0.4585 -2.7791  2.3040
  156MOL   H20740817   6.183   6.730   6.296  0.6015 -0.2577  2.8710
  156MOL   H20840818   5.931   6.642   5.930  3.9620 -0.1478  0.1513
  156MOL   H20940819   5.885   6.757   6.052  1.4805  1.2887  0.9158
  156MOL   C21040820   5.825   6.811   5.854 -0.8473 -0.0128 -0.4064
  156MOL   N21140821   5.775   6.932   5.915 -0.0681 -0.5074 -0.3020
  156MOL   C21240822   5.797   7.054   5.863 -0.0096 -0.3891 -0.2828
  156MOL   O21340823   5.865   7.070   5.758  0.2809  0.1177  0.0984
  156MOL   C21440824   5.742   7.181   5.940  0.0528  0.8788  0.3917
  156MOL   C21540825   5.711   6.719   5.837 -0.2201 -0.3129 -0.4933
  156MOL   H21640826   5.865   6.827   5.754 -0.1360 -0.4527 -0.1949
  156MOL   H21740827   5.745   6.924   6.011  0.0605  1.1781 -0.0955
  156MOL   H21840828   5.704   7.146   6.036  1.6561  0.6145  0.9488
  156MOL   H21940829   5.833   7.239   5.951  0.9078 -0.5886  1.2305
  156MOL   H22040830   5.672   7.241   5.882 -0.2700 -0.2422 -0.3982
  156MOL   H22140831   5.751   6.633   5.783  1.6340  0.1312  0.1277
  156MOL   H22240832   5.684   6.688   5.938  0.9191  2.7763  0.8314
  156MOL   C22340833   5.587   6.775   5.768  0.0979 -0.2851 -0.1822
  156MOL   N22440834   5.482   6.673   5.765 -0.0758  0.8700  0.3444
  156MOL   C22540835   5.398   6.644   5.865 -0.3660  0.2191  0.0708
  156MOL   O22640836   5.410   6.700   5.978  0.0976  0.2990  0.6899
  156MOL   C22740837   5.291   6.538   5.851 -0.6707 -0.2524  0.3640
  156MOL   C22840838   5.612   6.812   5.623  0.0116  0.0311  0.2134
  156MOL   H22940839   5.559   6.862   5.828 -0.9963 -0.7025 -0.0756
  156MOL   H23040840   5.467   6.634   5.673  1.4470 -0.5897  0.6948
  156MOL   H23140841   5.223   6.556   5.768  1.1549  1.5344 -0.7767
  156MOL   H23240842   5.331   6.437   5.842 -1.1673 -0.4966  0.8481
  156MOL   H23340843   5.226   6.528   5.939 -2.3648 -0.2238 -0.8554
  156MOL   H23440844   5.710   6.857   5.611  0.4541 -0.9619  0.0243
  156MOL   H23540845   5.616   6.722   5.561  0.3150 -0.6517  1.2083
  156MOL   C23640846   5.511   6.903   5.552 -0.3450 -0.2614  0.2194
  156MOL   N23740847   5.505   6.891   5.411 -0.4799 -0.6972 -0.4809
  156MOL   C23840848   5.412   6.828   5.342  0.0887  0.0213 -0.0456
  156MOL   O23940849   5.330   6.751   5.396 -0.3193 -0.2346 -0.1763
  156MOL   C24040850   5.407   6.857   5.191  0.4563 -0.0077 -0.1268
  156MOL   C24140851   5.541   7.054   5.598  0.5104  0.5581 -0.6903
  156MOL   H24240852   5.413   6.881   5.593 -1.6822  2.6652 -1.2510
  156MOL   H24340853   5.585   6.934   5.366 -0.0091  2.6300  3.2825
  156MOL   H24440854   5.304   6.874   5.158 -0.9742 -3.5859  2.2350
  156MOL   H24540855   5.466   6.947   5.175  0.1803  0.2983  0.5519
  156MOL   H24640856   5.455   6.780   5.131 -0.5879  0.3786 -1.4993
  156MOL   H24740857   5.524   7.052   5.706 -0.6113 -0.8267 -0.8776
  156MOL   H24840858   5.647   7.078   5.587  0.7427  0.8845  1.7862
  156MOL   C24940859   5.467   7.172   5.534  0.2595  0.3402 -0.2736
  156MOL   N25040860   5.493   7.301   5.600 -0.1355  0.3838  0.1539
  156MOL   C25140861   5.439   7.341   5.711 -0.6429 -0.1057  0.0081
  156MOL   O25240862   5.366   7.263   5.774  0.3321 -0.8383 -0.0662
  156MOL   C25340863   5.490   7.478   5.767  0.2885 -0.1519 -0.3368
  156MOL   C25440864   5.318   7.148   5.516  0.1281  0.5217  0.2566
  156MOL   H25540865   5.509   7.166   5.434 -0.8030  0.1405 -0.7146
  156MOL   H25640866   5.561   7.357   5.550  2.0216 -0.5991  1.8975
  156MOL   H25740867   5.508   7.477   5.874  2.6800  0.6935 -0.6900
  156MOL   H25840868   5.586   7.510   5.726  0.1150  0.8321  0.0071
  156MOL   H25940869   5.413   7.550   5.741  0.0255 -0.3038  0.0281
  156MOL   H26040870   5.310   7.093   5.422 -0.0261 -0.3033  0.7392
  156MOL   H26140871   5.281   7.076   5.589 -0.2696 -2.0424 -2.3907
  156MOL   H26240872   5.262   7.241   5.523 -1.4176 -0.3774 -0.0145
  157MOL     C140873   0.125   0.692   2.613 -0.2333 -0.6249 -0.7645
  157MOL     N240874   0.114   0.553   2.611 -0.3632 -0.3290  0.0910
  157MOL     C340875   0.143   0.471   2.713  0.3390  0.0124 -0.2349
  157MOL     O440876   0.175   0.513   2.827  0.4055 -0.1552  0.5011
  157MOL     C540877   0.143   0.323   2.685  0.5784  0.1926  0.1302
  157MOL     C640878   7.837   0.753   2.680  0.3038 -0.0455  0.0460
  157MOL     H740879   0.217   0.730   2.657 -0.2771 -0.9995 -0.3465
  157MOL     H840880   0.088   0.512   2.522  1.5890 -2.2425  0.3522
  157MOL     H940881   0.080   0.282   2.606  3.4341 -2.0164 -1.0438
  157MOL    H1040882   0.241   0.281   2.668 -0.4765 -2.3939  0.2802
  157MOL    H1140883   0.109   0.262   2.768  1.2838 -0.6477 -0.1975
  157MOL    H1240884   7.743   0.712   2.643 -0.0883 -0.2298  1.2289
  157MOL    H1340885   7.828   0.711   2.780  0.8152 -0.0188  0.1048
  157MOL    H1440886   0.139   0.715   2.507 -2.4873 -1.8245 -1.3536
  157MOL    C1540887   0.006   0.906   2.675  0.2510 -0.3228  0.0455
  157MOL    N1640888   0.025   0.958   2.533  0.4859 -0.6772  1.0256
  157MOL    C1740889   7.773   1.010   2.448  0.1223  0.2849 -0.0283
  157MOL    O1840890   7.655   1.025   2.470 -0.4733  0.6096  0.2100
  157MOL    C1940891   7.835   1.069   2.317 -0.1627  0.0943 -0.7461
  157MOL    C2040892   0.113   0.967   2.763  0.2065  0.0974  0.4987
  157MOL    H2140893   7.748   0.947   2.699 -0.7096 -1.6090 -1.6644
  157MOL    H2240894   0.122   0.962   2.505 -0.5714 -0.3476 -2.7598
  157MOL    H2340895   0.100   1.039   2.319 -0.0403  0.5701  0.0365
  157MOL    H2440896   7.783   1.044   2.224 -3.5681  1.6296  0.6717
  157MOL    H2540897   7.836   1.178   2.326  0.9916 -0.0237  0.7862
  157MOL    H2640898   0.212   0.924   2.746 -0.0730 -0.3074 -0.1308
  157MOL    H2740899   0.124   1.071   2.734  0.1174  0.0440  0.2774
  157MOL    C2840900   0.086   0.957   2.918 -0.0935 -1.1480 -0.0916
  157MOL    N2940901   0.041   1.088   2.956  0.3572  0.2269 -0.1072
  157MOL    C3040902   7.764   1.140   2.931 -0.2931 -0.3688 -0.3786
  157MOL    O3140903   7.670   1.086   2.880 -0.4070  0.3668 -0.0208
  157MOL    C3240904   7.749   1.280   2.980  0.0947  0.5485 -0.7364
  157MOL    C3340905   0.215   0.918   3.002 -0.4406  0.2814 -0.3773
  157MOL    H3440906   0.013   0.877   2.931 -0.3754 -0.8438  0.2325
  157MOL    H3540907   0.108   1.136   3.015 -0.7874  0.1833  1.2540
  157MOL    H3640908   7.689   1.337   2.909  1.9285  1.7115 -1.3866
  157MOL    H3740909   7.706   1.282   3.080 -0.0075  1.6122 -0.7942
  157MOL    H3840910   0.002   1.335   2.992  1.1787 -1.2741 -0.5620
  157MOL    H3940911   0.245   0.822   2.960 -0.8977  0.5511 -1.3420
  157MOL    H4040912   0.295   0.986   2.976  0.9221 -1.4878 -0.8602
  157MOL    C4140913   0.207   0.918   3.156  0.1235 -0.2014 -0.2807
  157MOL    N4240914   0.278   1.020   3.222  0.5404 -0.0701 -0.0451
  157MOL    C4340915   0.251   1.145   3.243  0.0998  0.0010 -0.5000
  157MOL    O4440916   0.148   1.196   3.206  0.9380  0.2961  0.3495
  157MOL    C4540917   0.353   1.242   3.307  0.4896  0.0761  0.2099
  157MOL    C4640918   0.243   0.782   3.226 -0.2905  0.1487  0.0654
  157MOL    H4740919   0.102   0.935   3.178  0.1904 -0.9887  0.6913
  157MOL    H4840920   0.371   0.986   3.245  1.1599  0.9790 -0.9424
  157MOL    H4940921   0.442   1.196   3.350  0.1078 -0.0771  0.8527
  157MOL    H5040922   0.388   1.315   3.235 -2.5176  2.2202  0.8024
  157MOL    H5140923   0.309   1.289   3.395  2.2956 -2.0681  2.3552
  157MOL    H5240924   0.343   0.761   3.188  0.2431 -0.6226  1.8407
  157MOL    H5340925   0.251   0.788   3.335 -0.6296 -0.0164  0.1002
  157MOL    C5440926   0.160   0.650   3.201  0.2618 -0.6695  0.1924
  157MOL    N5540927   0.025   0.671   3.246  0.2334  0.2733 -0.8124
  157MOL    C5640928   7.754   0.661   3.176 -0.7389 -0.3774  0.2660
  157MOL    O5740929   7.743   0.660   3.054 -0.1434 -0.1239  0.2287
  157MOL    C5840930   7.621   0.660   3.248  0.2945  0.1639  0.4565
  157MOL    C5940931   0.222   0.525   3.269 -0.2693  0.7765  0.9224
  157MOL    H6040932   0.161   0.633   3.093  0.6472 -0.7698  0.2079
  157MOL    H6140933   0.008   0.670   3.345 -0.1902  1.1676 -0.8665
  157MOL    H6240934   7.546   0.686   3.174  0.4282  1.4003  0.7472
  157MOL    H6340935   7.609   0.560   3.291  1.7318 -0.1547  0.1472
  157MOL    H6440936   7.605   0.728   3.331 -1.9951  1.1698 -0.7701
  157MOL    H6540937   0.325   0.558   3.276 -0.2869  1.9088 -2.9963
  157MOL    H6640938   0.181   0.522   3.370 -0.4644 -1.0711  0.8018
  157MOL    C6740939   0.205   0.392   3.199 -0.1964 -0.0222 -0.2430
  157MOL    N6840940   0.268   0.394   3.068 -0.5608  0.9808 -0.1906
  157MOL    C6940941   0.400   0.360   3.046  0.4874  0.4238  0.0122
  157MOL    O7040942   0.478   0.319   3.126 -0.2732 -0.1794 -0.4400
  157MOL    C7140943   0.443   0.374   2.903 -0.0721 -0.6306  0.0424
  157MOL    C7240944   0.059   0.345   3.171 -0.1479 -0.4365 -0.6385
  157MOL    H7340945   0.243   0.302   3.248 -0.4917 -0.6810 -1.2141
  157MOL    H7440946   0.209   0.436   2.998 -1.6036  1.2104  0.8145
  157MOL    H7540947   0.393   0.302   2.839  0.7976 -0.2793 -1.0365
  157MOL    H7640948   0.442   0.479   2.876 -2.6074 -0.8694 -0.9052
  157MOL    H7740949   0.547   0.341   2.903 -0.4781 -1.9576  0.4816
  157MOL    H7840950   0.001   0.364   3.262 -1.3491  2.7486 -1.9878
  157MOL    H7940951   0.011   0.410   3.098 -1.0694 -0.0556  0.2879
  157MOL    C8040952   0.035   0.213   3.110 -0.2796 -0.3069  1.0458
  157MOL    N8140953   7.738   0.204   3.055 -0.4498 -0.7668  0.1564
  157MOL    C8240954   7.697   0.103   2.971 -0.7621 -0.3922 -0.0514
  157MOL    O8340955   7.773   0.019   2.937  0.1498 -0.1505  0.1412
  157MOL    C8440956   7.550   0.089   2.945  0.3871  0.0285  0.5489
  157MOL    C8540957   0.085   0.088   3.191 -0.9620 -0.1434 -0.5420
  157MOL    H8640958   0.085   0.213   3.013 -0.7900  1.4220  0.7564
  157MOL    H8740959   7.662   0.262   3.087  0.8506  0.8290  0.3600
  157MOL    H8840960   7.529   0.113   2.841  0.6600 -2.5580 -0.1349
  157MOL    H8940961   7.522   7.824   2.962 -0.9973  0.0949 -1.2301
  157MOL    H9040962   7.485   0.141   3.016 -1.1233 -1.7257  0.4856
  157MOL    H9140963   0.094   0.139   3.287 -1.3033  1.3923 -1.3079
  157MOL    H9240964   0.004   0.017   3.206 -1.8787  0.7820 -1.0590
  157MOL    C9340965   0.215   0.022   3.137  0.6285 -0.6860 -0.2836
  157MOL    N9440966   0.202   7.826   3.000  0.2820 -0.3387 -0.7865
  157MOL    C9540967   0.302   7.839   2.912  0.3980 -0.0114 -0.2725
  157MOL    O9640968   0.417   0.030   2.947  0.6382 -0.1785  0.4753
  157MOL    C9740969   0.262   7.818   2.766  0.1448  0.2192 -0.1529
  157MOL    C9840970   0.270   7.752   3.224 -0.0211 -0.0071  0.8490
  157MOL    H9940971   0.292   0.098   3.151  0.2742 -0.2539 -0.6932
  157MOL   H10040972   0.105   7.819   2.969 -0.0120 -0.7509  0.2294
  157MOL   H10140973   0.215   7.721   2.751 -0.0831 -0.0055  1.9805
  157MOL   H10240974   0.181   0.046   2.739 -2.2423 -2.4791  0.0133
  157MOL   H10340975   0.352   7.826   2.704  0.4434  2.7834  0.5568
  157MOL   H10440976   0.187   7.682   3.214  0.3811 -0.5303  1.1669
  157MOL   H10540977   0.349   7.691   3.179 -1.1728 -1.4460  0.7625
  157MOL   C10640978   0.277   7.764   3.375  0.0723 -0.1365  0.2992
  157MOL   N10740979   0.375   0.033   3.402 -0.9992 -0.1980 -0.3855
  157MOL   C10840980   0.379   0.113   3.508  1.1104  0.1589  0.7192
  157MOL   O10940981   0.283   0.120   3.589  0.2120 -0.0936  0.3565
  157MOL   C11040982   0.492   0.212   3.509  0.9746  0.6600 -0.1573
  157MOL   C11140983   0.309   7.631   3.445  0.8314  0.1448  0.8456
  157MOL   H11240984   0.180   7.796   3.411 -0.6648  0.9893 -2.6158
  157MOL   H11340985   0.460   0.019   3.349 -1.5783 -0.4141 -1.2764
  157MOL   H11440986   0.586   0.158   3.496 -0.1351 -1.3271 -0.0930
  157MOL   H11540987   0.475   0.286   3.432 -0.9444  0.2295 -0.1647
  157MOL   H11640988   0.490   0.279   3.595 -2.3101  0.9183 -0.3765
  157MOL   H11740989   0.242   7.637   3.531 -0.0770  2.1709  0.0237
  157MOL   H11840990   0.268   7.549   3.387 -0.5449  0.1901  1.7162
  157MOL   C11940991   0.455   7.601   3.473 -0.4862  0.6196 -0.0593
  157MOL   N12040992   0.538   7.599   3.347 -0.2048  0.0440  0.1504
  157MOL   C12140993   0.646   7.680   3.327  0.0516 -0.5891 -0.3084
  157MOL   O12240994   0.685   7.751   3.420  0.2061  0.3149 -0.2873
  157MOL   C12340995   0.713   7.690   3.193  0.1986  0.6962  0.0514
  157MOL   C12440996   0.485   7.468   3.540 -0.3884  0.2601  0.1313
  157MOL   H12540997   0.492   7.679   3.541 -0.6476 -2.2290  3.4486
  157MOL   H12640998   0.516   7.538   3.270 -3.5739 -0.1589  1.2168
  157MOL   H12740999   0.764   7.595   3.176  0.5316  0.6558  1.2430
  157MOL   H12841000   0.649   7.713   3.108 -2.9898 -1.2990  1.8352
  157MOL   H12941001   0.789   7.768   3.192 -0.8306  1.7329  1.0426
  157MOL   H13041002   0.447   7.397   3.467  1.3532  1.3865 -1.9182
  157MOL   H13141003   0.594   7.465   3.549 -0.3927  0.8748  0.3768
  157MOL   C13241004   0.413   7.430   3.674  0.2118  0.7562  0.5479
  157MOL   N13341005   0.500   7.338   3.752  0.7714 -1.0262 -0.2129
  157MOL   C13441006   0.575   7.378   3.858  1.0642  0.3598  0.2967
  157MOL   O13541007   0.581   7.498   3.897 -0.5027 -0.1299 -0.0849
  157MOL   C13641008   0.656   7.274   3.923  0.1955  0.3919  0.3325
  157MOL   C13741009   0.277   7.361   3.629 -0.1321  0.6215 -0.7451
  157MOL   H13841010   0.392   7.516   3.736 -0.8061  0.1190  1.1084
  157MOL   H13941011   0.494   7.239   3.733 -3.1445 -0.9369  0.0049
  157MOL   H14041012   0.752   7.315   3.955  0.6178 -0.6632  0.4460
  157MOL   H14141013   0.612   7.244   4.018 -0.3013 -1.3317 -0.4288
  157MOL   H14241014   0.691   7.189   3.864  0.7969 -0.0437  1.2888
  157MOL   H14341015   0.224   7.424   3.557  0.0466  3.3852  1.4396
  157MOL   H14441016   0.294   7.273   3.568 -0.9281  1.1210 -1.6946
  157MOL   C14541017   0.177   7.307   3.739 -0.4534 -0.5009  0.1850
  157MOL   N14641018   0.048   7.266   3.679 -0.2903  0.1302 -0.4937
  157MOL   C14741019   0.030   7.143   3.632 -0.0536 -0.2360  0.0469
  157MOL   O14841020   0.111   7.057   3.643  0.4773 -0.1830  0.2987
  157MOL   C14941021   7.739   7.108   3.564  0.4099 -0.3333 -0.1245
  157MOL   C15041022   0.152   7.419   3.847  0.5600 -0.0215  0.1622
  157MOL   H15141023   0.227   7.225   3.791  0.1282 -0.7598 -0.7718
  157MOL   H15241024   7.815   7.333   3.659 -0.1315  0.3971 -0.1776
  157MOL   H15341025   7.667   7.190   3.569  1.0227  0.2294 -0.4714
  157MOL   H15441026   7.774   7.082   3.465  2.3931  1.9766 -0.0562
  157MOL   H15541027   7.694   7.014   3.597  0.4164 -0.8578 -1.5756
  157MOL   H15641028   0.244   7.458   3.891 -0.3351  4.1679 -1.4784
  157MOL   H15741029   0.102   7.505   3.803  1.3886  0.2745 -0.2142
  157MOL   C15841030   0.047   7.374   3.948  0.0438 -0.5252  0.8776
  157MOL   N15941031   0.023   7.490   4.045  0.2124  0.1845 -0.2399
  157MOL   C16041032   7.744   7.511   4.102 -0.1079  0.0050  0.3161
  157MOL   O16141033   7.653   7.435   4.087 -0.2202 -0.0018  0.5314
  157MOL   C16241034   7.740   7.629   4.197  0.3674  0.2074  0.5240
  157MOL   C16341035   0.109   7.253   4.021 -0.6460 -0.3253 -0.6162
  157MOL   H16441036   7.796   7.344   3.896  0.2065 -0.1376  0.3730
  157MOL   H16541037   0.091   7.563   4.060 -0.9034  1.1633  0.0903
  157MOL   H16641038   7.836   7.679   4.193  0.4441  0.0767  0.7009
  157MOL   H16741039   7.659   7.696   4.167  1.2815  1.5259  0.9584
  157MOL   H16841040   7.725   7.598   4.301 -0.3537 -1.3535 -0.0263
  157MOL   H16941041   0.092   7.166   3.957  0.4598 -1.2796  0.3652
  157MOL   H17041042   0.213   7.280   4.037 -0.3163 -1.9047  0.0068
  157MOL   C17141043   0.047   7.202   4.155 -0.1762  1.0195 -0.2597
  157MOL   N17241044   0.149   7.123   4.225 -0.3288  0.3317  0.2011
  157MOL   C17341045   0.269   7.166   4.275 -0.1956  0.3308  0.2647
  157MOL   O17441046   0.327   7.272   4.266  0.3524  0.1127  1.0947
  157MOL   C17541047   0.346   7.053   4.349  0.7489 -0.3764  0.7721
  157MOL   C17641048   7.753   7.127   4.125  0.4499 -0.0431 -0.2489
  157MOL   H17741049   0.030   7.283   4.226 -1.4424  2.9117 -2.6387
  157MOL   H17841050   0.123   7.025   4.234  0.9624 -0.1096 -0.7263
  157MOL   H17941051   0.438   7.100   4.385  1.0677  0.0282 -0.5352
  157MOL   H18041052   0.294   7.016   4.438  1.6268  0.1165  1.5036
  157MOL   H18141053   0.382   6.979   4.277  3.7559 -0.3575  2.1848
  157MOL   H18241054   7.701   7.195   4.057  0.0307 -1.1733 -1.0801
  157MOL   H18341055   7.760   7.036   4.066  0.2063 -0.5316  0.4680
  157MOL   C18441056   7.667   7.117   4.253 -0.0653 -0.0080 -0.2976
  157MOL   N18541057   7.722   7.046   4.369 -0.4239  0.7176  0.6055
  157MOL   C18641058   7.757   6.912   4.365 -0.2287  0.5408  0.0291
  157MOL   O18741059   7.729   6.840   4.269 -0.2060 -0.4975  0.0623
  157MOL   C18841060   7.823   6.851   4.490  0.1023 -0.0710 -0.0285
  157MOL   C18941061   7.522   7.070   4.220 -0.1792 -0.0593  0.4653
  157MOL   H19041062   7.665   7.220   4.288 -2.0097 -0.1341  0.0379
  157MOL   H19141063   7.758   7.104   4.443  0.0808 -0.9716  1.7037
  157MOL   H19241064   7.817   6.747   4.457 -2.0185  1.2121 -4.0032
  157MOL   H19341065   0.084   6.887   4.509  0.2567 -0.8964  0.7390
  157MOL   H19441066   7.750   6.863   4.570 -0.8397  0.6311 -0.9905
  157MOL   H19541067   7.518   6.970   4.176 -1.1159  0.4792 -0.6733
  157MOL   H19641068   7.467   7.056   4.313 -0.3708 -0.4292  0.2991
  157MOL   C19741069   7.444   7.168   4.126  0.6881  0.3417  0.0106
  157MOL   N19841070   7.438   7.310   4.180 -0.0359 -0.4267  0.4824
  157MOL   C19941071   7.376   7.352   4.295 -0.2719  0.9058 -0.0308
  157MOL   O20041072   7.294   7.280   4.351 -0.3283 -0.4901  0.1526
  157MOL   C20141073   7.404   7.500   4.338 -0.5504  0.2986  0.3534
  157MOL   C20241074   7.303   7.119   4.082  0.9664 -0.1021  0.5740
  157MOL   H20341075   7.501   7.181   4.033 -0.2750 -1.7673 -0.9110
  157MOL   H20441076   7.510   7.368   4.141  1.3845 -1.8979  0.8646
  157MOL   H20541077   7.378   7.558   4.249 -1.7413 -0.5285  0.1499
  157MOL   H20641078   7.347   7.552   4.415  0.0378 -1.9589  2.3797
  157MOL   H20741079   7.512   7.509   4.351 -0.4672  1.0222 -0.7612
  157MOL   H20841080   7.231   7.128   4.164  0.2129 -3.2111  0.3100
  157MOL   H20941081   7.277   7.191   4.004  0.8181 -0.1040  0.6218
  157MOL   C21041082   7.295   6.974   4.024 -0.0834 -0.1491  0.2341
  157MOL   N21141083   7.295   6.972   3.880 -0.2589 -0.0703  0.1353
  157MOL   C21241084   7.407   6.975   3.806  0.0716 -0.2504 -0.3557
  157MOL   O21341085   7.516   6.955   3.859 -1.0306  0.5490  0.1788
  157MOL   C21441086   7.395   7.019   3.667  0.3739 -0.7561 -0.0481
  157MOL   C21541087   7.187   6.883   4.084 -0.2585  0.4701 -0.1750
  157MOL   H21641088   7.380   6.913   4.054 -0.2592 -0.1490  0.7322
  157MOL   H21741089   7.208   7.006   3.841 -0.4673 -1.0427 -0.2571
  157MOL   H21841090   7.453   6.952   3.604  0.7476 -0.6887  0.2192
  157MOL   H21941091   7.291   7.008   3.634  0.1298 -0.3847  0.5873
  157MOL   H22041092   7.430   7.122   3.666  0.2986 -0.6537  2.9973
  157MOL   H22141093   7.097   6.938   4.057 -0.1089  0.0682 -1.5182
  157MOL   H22241094   7.188   6.790   4.027  0.4850 -0.3128  1.0917
  157MOL   C22341095   7.202   6.863   4.234 -0.0471  0.3969  0.3878
  157MOL   N22441096   7.293   6.750   4.263  0.3728 -0.1489  0.4254
  157MOL   C22541097   7.382   6.742   4.364 -0.5292 -0.0150 -0.3063
  157MOL   O22641098   7.392   6.833   4.446  0.2034 -0.3349  0.2447
  157MOL   C22741099   7.470   6.614   4.366  0.4273  0.4053  0.8583
  157MOL   C22841100   7.062   6.849   4.290 -0.6291  0.4974  0.5410
  157MOL   H22941101   7.254   6.949   4.276 -0.6614  1.0712 -0.2299
  157MOL   H23041102   7.282   6.668   4.204 -3.5816 -0.8709  1.9786
  157MOL   H23141103   7.415   6.524   4.340 -0.4613  1.0919  0.3191
  157MOL   H23241104   7.562   6.620   4.307 -0.8270  1.6984 -1.0485
  157MOL   H23341105   7.499   6.588   4.468 -1.7164 -0.0034  1.3795
  157MOL   H23441106   6.998   6.782   4.232 -0.8228  0.2040  1.0840
  157MOL   H23541107   7.076   6.804   4.388  1.7323 -1.1084 -0.4870
  157MOL   C23641108   6.991   6.981   4.307  0.6741  0.0937  0.0485
  157MOL   N23741109   7.041   7.055   4.420  0.1433  0.1692  0.0689
  157MOL   C23841110   7.025   7.015   4.549  1.0883  0.5486 -0.4943
  157MOL   O23941111   6.989   6.903   4.579 -0.0218  0.0675 -0.4261
  157MOL   C24041112   7.053   7.112   4.663 -0.2282  0.4743  0.6648
  157MOL   C24141113   6.842   6.976   4.279  0.4448 -0.4778 -0.6751
  157MOL   H24241114   7.015   7.059   4.234  1.0129  0.2017  0.2699
  157MOL   H24341115   7.067   7.153   4.416  0.1857  0.1644  0.2169
  157MOL   H24441116   7.154   7.151   4.657 -0.1439  0.1431 -0.1086
  157MOL   H24541117   6.978   7.192   4.659 -0.3358  0.3681  0.5440
  157MOL   H24641118   7.048   7.066   4.761  2.0061  1.0252  1.0634
  157MOL   H24741119   6.810   7.080   4.274 -0.7112 -0.6909  1.6193
  157MOL   H24841120   6.830   6.937   4.178 -2.6911  1.5812 -1.1503
  157MOL   C24941121   6.755   6.895   4.378 -0.4248 -0.3323  0.0193
  157MOL   N25041122   6.641   6.836   4.300 -0.5743 -0.3265  0.1125
  157MOL   C25141123   6.650   6.716   4.241  0.0532 -0.6441  0.3767
  157MOL   O25241124   6.755   6.655   4.230  0.1052  0.2170  0.2901
  157MOL   C25341125   6.520   6.665   4.173 -0.3421 -0.3127 -0.0878
  157MOL   C25441126   6.690   6.981   4.486 -0.6986 -0.0634 -0.0730
  157MOL   H25541127   6.811   6.813   4.420  1.4725 -0.7423 -3.1742
  157MOL   H25641128   6.560   6.895   4.296 -0.2425  0.0594 -1.1943
  157MOL   H25741129   6.483   6.582   4.232  0.4880  0.2983  1.3213
  157MOL   H25841130   6.455   6.752   4.161 -2.1590 -1.4845  1.1608
  157MOL   H25941131   6.558   6.622   4.080  0.9816  1.5410 -0.4580
  157MOL   H26041132   6.619   7.052   4.443 -1.0853  0.3208  1.1782
  157MOL   H26141133   6.625   6.920   4.548 -0.9799 -0.0771 -0.3813
  157MOL   H26241134   6.756   7.040   4.550  0.3537  0.0989 -1.2993
  158MOL     C141135   5.342   6.126   4.173  0.1191  0.1898 -0.0421
  158MOL     N241136   5.462   6.074   4.234 -0.4739 -0.5457 -0.1958
  158MOL     C341137   5.586   6.098   4.195 -0.1647 -0.0948  0.5112
  158MOL     O441138   5.612   6.168   4.096 -0.2632  0.4537 -0.1445
  158MOL     C541139   5.694   6.040   4.278 -0.5335 -0.5010 -0.6493
  158MOL     C641140   5.259   6.193   4.291 -0.7343 -0.2437  0.9259
  158MOL     H741141   5.358   6.183   4.082 -1.2655  2.1160  0.8802
  158MOL     H841142   5.435   6.020   4.315  1.3051 -1.9530 -0.5066
  158MOL     H941143   5.795   6.071   4.253 -0.7632  0.5937 -0.2457
  158MOL    H1041144   5.673   6.067   4.382  1.8885 -1.2629  0.0681
  158MOL    H1141145   5.692   5.933   4.260 -2.5816 -0.1597 -2.6337
  158MOL    H1241146   5.231   6.116   4.363 -1.0968 -1.6224 -0.6651
  158MOL    H1341147   5.324   6.258   4.348 -0.2235  1.4315 -1.5132
  158MOL    H1441148   5.287   6.036   4.147  0.9442 -0.9637  2.0776
  158MOL    C1541149   5.125   6.260   4.243  0.3422 -0.1659  0.4330
  158MOL    N1641150   5.077   6.327   4.364  0.3484 -0.3133 -0.0312
  158MOL    C1741151   5.039   6.455   4.369 -0.4731 -0.0972  0.3109
  158MOL    O1841152   5.013   6.523   4.268  0.5986  0.1302  0.5859
  158MOL    C1941153   5.022   6.516   4.507  0.2462 -1.1559 -0.3034
  158MOL    C2041154   5.029   6.157   4.183 -0.1302  0.2174 -0.1121
  158MOL    H2141155   5.134   6.336   4.166 -0.0139  0.5195  1.0521
  158MOL    H2241156   5.096   6.275   4.449  1.2986 -0.2252 -0.1851
  158MOL    H2341157   5.091   6.476   4.581  1.7734  0.7071 -0.6920
  158MOL    H2441158   5.030   6.624   4.493  2.1386 -1.2625 -0.1315
  158MOL    H2541159   4.921   6.498   4.545 -0.1415  0.7875 -0.3507
  158MOL    H2641160   5.049   6.067   4.242  1.9239 -0.6197 -1.9920
  158MOL    H2741161   4.929   6.192   4.210  0.1582  2.0186 -1.2901
  158MOL    C2841162   5.024   6.140   4.028  0.2041  0.2262 -0.0465
  158MOL    N2941163   4.967   6.267   3.971 -0.4634  0.1198 -0.3783
  158MOL    C3041164   4.854   6.329   3.992 -0.5205 -0.3458 -0.0299
  158MOL    O3141165   4.761   6.274   4.043  0.4834 -0.6611  0.6301
  158MOL    C3241166   4.844   6.480   3.959 -0.7107 -0.4677 -0.2424
  158MOL    C3341167   4.947   6.013   3.990  0.4963 -0.0796 -0.4167
  158MOL    H3441168   5.129   6.131   4.003  0.0381  0.6995 -0.9543
  158MOL    H3541169   5.038   6.322   3.925  0.9273 -1.2174  0.1245
  158MOL    H3641170   4.943   6.526   3.964 -0.8449 -0.2494  0.4825
  158MOL    H3741171   4.799   6.490   3.860 -0.1430 -3.1896 -0.8244
  158MOL    H3841172   4.780   6.527   4.033  1.8018  0.0475  1.6999
  158MOL    H3941173   5.003   5.924   4.019 -0.5362 -0.4816  0.3261
  158MOL    H4041174   4.858   6.006   4.052  0.6191  1.0080 -0.1063
  158MOL    C4141175   4.890   5.999   3.845  0.0004 -0.2928 -0.7757
  158MOL    N4241176   4.759   6.059   3.845 -1.3676  0.6256 -0.6443
  158MOL    C4341177   4.672   6.069   3.748 -0.1581  0.5744 -0.3206
  158MOL    O4441178   4.701   6.019   3.637  0.7145 -0.3993  0.3593
  158MOL    C4541179   4.548   6.153   3.779  0.2662 -0.5380 -0.5266
  158MOL    C4641180   4.892   5.851   3.798 -0.5950  0.3812 -0.1223
  158MOL    H4741181   4.957   6.053   3.779 -0.3181  0.0575 -0.8095
  158MOL    H4841182   4.728   6.104   3.931  1.1571 -0.3150  0.7991
  158MOL    H4941183   4.562   6.187   3.882 -0.1588  1.1306 -1.0080
  158MOL    H5041184   4.540   6.243   3.718  0.0150 -0.1061  0.1388
  158MOL    H5141185   4.462   6.090   3.762  0.8232 -0.6080 -3.2583
  158MOL    H5241186   4.830   5.783   3.856  0.0739 -1.3275 -1.3534
  158MOL    H5341187   4.851   5.852   3.697 -0.3232  0.4724 -0.2337
  158MOL    C5441188   5.036   5.786   3.789 -0.3002  0.2469 -0.1776
  158MOL    N5541189   5.125   5.875   3.706  0.3168  0.2014  0.3835
  158MOL    C5641190   5.229   5.941   3.765 -0.2714  0.1788  0.5545
  158MOL    O5741191   5.266   5.920   3.878  0.1398  0.0477 -0.3026
  158MOL    C5841192   5.310   6.033   3.675  0.5870  0.4495  0.2621
  158MOL    C5941193   5.037   5.642   3.735 -0.1584  0.7944  0.0217
  158MOL    H6041194   5.079   5.760   3.885  4.2322  0.7233 -1.9682
  158MOL    H6141195   5.107   5.895   3.609 -2.7895  4.0188  1.6366
  158MOL    H6241196   5.241   6.082   3.606 -1.3664  0.5444  2.2264
  158MOL    H6341197   5.370   6.108   3.727  1.3962  0.8194 -1.1646
  158MOL    H6441198   5.374   5.971   3.613  0.6124  2.3464 -1.6571
  158MOL    H6541199   4.978   5.640   3.643 -2.5471 -0.3844  1.5239
  158MOL    H6641200   5.136   5.623   3.693 -1.3701  0.6972 -2.9339
  158MOL    C6741201   4.996   5.527   3.828  0.1995 -0.3974 -0.3812
  158MOL    N6841202   5.082   5.508   3.943 -0.1826 -0.4255  0.0708
  158MOL    C6941203   5.062   5.568   4.064  0.1044 -0.3658 -0.5902
  158MOL    O7041204   4.960   5.641   4.086 -0.2401 -0.5633  0.3451
  158MOL    C7141205   5.159   5.532   4.167  0.0437 -1.0111 -0.0708
  158MOL    C7241206   4.954   5.399   3.746  0.2757 -0.0936  0.1707
  158MOL    H7341207   4.898   5.559   3.863 -0.4152  0.4079 -2.7065
  158MOL    H7441208   5.167   5.456   3.929 -0.0557 -0.3209  0.4583
  158MOL    H7541209   5.228   5.613   4.189  0.2567 -0.4146 -2.7879
  158MOL    H7641210   5.100   5.514   4.257  0.5442  0.7766  0.6333
  158MOL    H7741211   5.215   5.440   4.149  0.4441 -0.8354  0.2512
  158MOL    H7841212   4.865   5.431   3.692  0.9173  0.5190 -0.5539
  158MOL    H7941213   5.028   5.380   3.668  0.7039 -0.7103  0.7227
  158MOL    C8041214   4.932   5.269   3.819 -0.6358  0.0817 -0.0612
  158MOL    N8141215   5.057   5.192   3.829 -0.3898  0.0567  0.3129
  158MOL    C8241216   5.118   5.166   3.946 -0.2842  0.7649  0.1963
  158MOL    O8341217   5.072   5.199   4.054  0.2948 -0.3618 -0.6172
  158MOL    C8441218   5.256   5.103   3.945 -0.3061  0.5021 -0.4741
  158MOL    C8541219   4.830   5.181   3.742 -0.2207  0.3834 -0.8923
  158MOL    H8641220   4.885   5.281   3.917 -0.4578  0.2055  0.0090
  158MOL    H8741221   5.097   5.171   3.739  3.2343  1.0862  1.5811
  158MOL    H8841222   5.258   5.021   4.017 -0.3296  1.0685  0.1723
  158MOL    H8941223   5.268   5.073   3.840  0.3817  3.5001 -1.2882
  158MOL    H9041224   5.332   5.176   3.971 -0.8958  0.1815  2.3041
  158MOL    H9141225   4.754   5.243   3.694 -0.6479  0.8822  0.4036
  158MOL    H9241226   4.889   5.145   3.658 -2.8545  1.4662 -3.3053
  158MOL    C9341227   4.762   5.080   3.833 -0.0380 -0.1502 -0.4031
  158MOL    N9441228   4.704   4.974   3.747 -0.1423  0.4281  0.3232
  158MOL    C9541229   4.697   4.839   3.767  0.6151 -0.1871 -0.0318
  158MOL    O9641230   4.749   4.786   3.860 -0.3790 -0.3999  0.0325
  158MOL    C9741231   4.621   4.759   3.661  0.4496 -0.0901  0.3992
  158MOL    C9841232   4.666   5.127   3.941  0.4083  0.2276  0.5799
  158MOL    H9941233   4.849   5.044   3.887 -2.0852 -0.3504  2.8785
  158MOL   H10041234   4.672   4.995   3.654  0.6673 -1.5146 -0.4208
  158MOL   H10141235   4.640   4.802   3.563 -1.7887  0.0243 -0.0027
  158MOL   H10241236   4.671   4.662   3.656 -0.5313 -0.5058 -1.3247
  158MOL   H10341237   4.516   4.743   3.686  0.5402 -0.6435  0.4159
  158MOL   H10441238   4.654   5.044   4.011  1.0292  1.9830  2.8082
  158MOL   H10541239   4.705   5.206   4.004 -2.2944  3.4955 -1.6969
  158MOL   C10641240   4.531   5.183   3.891 -0.8615  0.1924 -0.2873
  158MOL   N10741241   4.537   5.315   3.824  0.1785  0.0070 -0.2358
  158MOL   C10841242   4.578   5.419   3.895  0.4777 -0.0946  0.1972
  158MOL   O10941243   4.617   5.415   4.008 -0.5392 -0.2549 -0.0802
  158MOL   C11041244   4.585   5.555   3.826 -0.0926  0.6950  0.8074
  158MOL   C11141245   4.415   5.170   3.992  0.7586  0.0094 -0.5873
  158MOL   H11241246   4.506   5.116   3.810 -0.6976 -0.5428  0.2590
  158MOL   H11341247   4.504   5.316   3.728  0.0213 -1.6096 -0.2107
  158MOL   H11441248   4.638   5.628   3.887 -0.7007  0.8221  1.1892
  158MOL   H11541249   4.642   5.542   3.734  0.2535 -1.9470  1.3625
  158MOL   H11641250   4.483   5.591   3.810  0.1324  1.1828  0.4508
  158MOL   H11741251   4.419   5.070   4.036  0.4458 -0.4546 -1.5893
  158MOL   H11841252   4.432   5.239   4.074 -0.1947 -0.0432 -0.3300
  158MOL   C11941253   4.276   5.186   3.929  0.3306  0.5302  0.0059
  158MOL   N12041254   4.187   5.158   4.037  0.7276 -0.5219  0.5137
  158MOL   C12141255   4.163   5.237   4.146  0.7432  0.8272  0.6043
  158MOL   O12241256   4.214   5.348   4.151  0.1470  0.2858  0.0108
  158MOL   C12341257   4.068   5.176   4.251 -0.5442  0.0403  0.3524
  158MOL   C12441258   4.228   5.100   3.804 -0.0565  0.3677 -0.4328
  158MOL   H12541259   4.250   5.288   3.900 -3.3836 -0.3126  0.0304
  158MOL   H12641260   4.137   5.070   4.031  0.2007 -0.3549  2.1894
  158MOL   H12741261   4.105   5.074   4.267  0.2629  0.2480 -0.1635
  158MOL   H12841262   4.055   5.235   4.341 -2.0105 -1.2758  1.0246
  158MOL   H12941263   3.970   5.171   4.204 -0.4125  1.0808 -0.0384
  158MOL   H13041264   4.266   4.998   3.811 -1.0863  0.0518  0.7407
  158MOL   H13141265   4.120   5.084   3.810  0.0881 -1.6668 -2.5095
  158MOL   C13241266   4.253   5.150   3.661 -0.0073 -0.0564 -0.6731
  158MOL   N13341267   4.199   5.291   3.645 -0.4128 -0.0846 -0.8032
  158MOL   C13441268   4.243   5.386   3.566 -0.8777  0.7877  0.8789
  158MOL   O13541269   4.359   5.394   3.537  0.4986  0.2303  0.0511
  158MOL   C13641270   4.142   5.492   3.525  0.2342  0.2432 -0.4452
  158MOL   C13741271   4.187   5.057   3.559 -0.3447  0.3634  0.2766
  158MOL   H13841272   4.361   5.150   3.648 -0.2117  0.6789 -2.5401
  158MOL   H13941273   4.104   5.295   3.678 -0.6490 -0.1732 -1.4674
  158MOL   H14041274   4.057   5.435   3.490  0.3035  0.6978 -1.3707
  158MOL   H14141275   4.111   5.546   3.614 -2.3131 -0.3305 -0.9619
  158MOL   H14241276   4.179   5.554   3.443 -0.0577  2.6719  1.2103
  158MOL   H14341277   4.097   5.005   3.592  0.4125 -0.0240  1.7440
  158MOL   H14441278   4.153   5.125   3.481 -2.3166 -1.4739 -0.5048
  158MOL   C14541279   4.280   4.952   3.488 -0.3341  0.3699  0.1761
  158MOL   N14641280   4.367   5.026   3.396 -0.8281 -0.0294  0.1432
  158MOL   C14741281   4.486   5.081   3.424  0.5100  0.7693 -0.0976
  158MOL   O14841282   4.543   5.067   3.532  0.0510  0.3112 -0.4879
  158MOL   C14941283   4.539   5.172   3.321 -0.3255  0.6097  0.2296
  158MOL   C15041284   4.185   4.854   3.409 -0.4789 -0.9648 -0.1188
  158MOL   H15141285   4.339   4.885   3.550  0.2656 -0.3181 -1.1087
  158MOL   H15241286   4.345   5.052   3.301  1.8622 -1.6156 -0.9681
  158MOL   H15341287   4.644   5.189   3.344  1.3830 -2.9468 -4.3797
  158MOL   H15441288   4.535   5.131   3.221 -1.9208  0.1483  0.4722
  158MOL   H15541289   4.490   5.268   3.343 -2.5977 -0.7857  1.5016
  158MOL   H15641290   4.103   4.822   3.473 -1.3115  0.9194 -0.2182
  158MOL   H15741291   4.146   4.916   3.329 -1.5073 -1.3717  0.0702
  158MOL   C15841292   4.249   4.726   3.354  0.1336  0.1576 -0.6579
  158MOL   N15941293   4.357   4.750   3.253 -0.3500 -0.2862 -0.2112
  158MOL   C16041294   4.490   4.730   3.258 -0.4267 -0.2463 -0.3219
  158MOL   O16141295   4.541   4.674   3.351  0.8422 -0.3764 -0.6679
  158MOL   C16241296   4.566   4.776   3.142 -0.5806 -0.5039 -0.0811
  158MOL   C16341297   4.143   4.637   3.280 -0.5332 -0.5531  0.1305
  158MOL   H16441298   4.292   4.681   3.443 -1.6490  1.7529  1.0672
  158MOL   H16541299   4.319   4.780   3.164  2.0549  2.2273 -0.4682
  158MOL   H16641300   4.652   4.836   3.173 -1.9151  1.7891 -0.7136
  158MOL   H16741301   4.600   4.697   3.075 -0.8265 -1.5669  1.0348
  158MOL   H16841302   4.518   4.841   3.069 -0.3826  2.0962  1.9986
  158MOL   H16941303   4.095   4.698   3.204  0.2258 -0.5582 -0.3515
  158MOL   H17041304   4.198   4.554   3.237  1.3760  0.5324  0.4569
  158MOL   C17141305   4.022   4.574   3.359 -0.2442 -0.3600  0.3207
  158MOL   N17241306   4.065   4.512   3.494 -0.1783 -0.7857 -0.2374
  158MOL   C17341307   4.011   4.530   3.616 -0.7255  0.0961  0.4592
  158MOL   O17441308   3.915   4.603   3.632  0.5292  0.2928 -0.2148
  158MOL   C17541309   4.075   4.450   3.727  0.1968  1.2678  0.9041
  158MOL   C17641310   3.937   4.488   3.261 -0.1883  0.7271 -0.4496
  158MOL   H17741311   3.961   4.660   3.386 -0.3417 -0.5328  0.6579
  158MOL   H17841312   4.139   4.443   3.489  1.1708  0.7344 -1.2641
  158MOL   H17941313   4.001   4.384   3.772  1.2623 -0.4753  0.1326
  158MOL   H18041314   4.166   4.395   3.701 -0.4997  0.0607  0.9856
  158MOL   H18141315   4.085   4.517   3.813 -0.5430 -0.3301  2.2554
  158MOL   H18241316   3.945   4.530   3.161  0.4488  2.4009  0.2726
  158MOL   H18341317   3.995   4.396   3.256  0.8320  1.4397 -2.3809
  158MOL   C18441318   3.787   4.473   3.288 -0.0448  0.0383  0.3721
  158MOL   N18541319   3.727   4.385   3.188 -0.0512  0.4647  0.4192
  158MOL   C18641320   3.730   4.250   3.198 -0.0363  1.0507  0.1694
  158MOL   O18741321   3.805   4.200   3.283 -0.3650 -0.0870  0.6454
  158MOL   C18841322   3.643   4.173   3.109 -0.1132 -0.3778  0.2053
  158MOL   C18941323   3.713   4.612   3.281  0.1326 -0.4019 -1.3138
  158MOL   H19041324   3.790   4.429   3.388  1.0895  2.5123  1.4776
  158MOL   H19141325   3.659   4.421   3.123 -0.5048  0.3003  0.8052
  158MOL   H19241326   3.629   4.070   3.140  0.5331 -1.4712 -3.0473
  158MOL   H19341327   3.545   4.222   3.106 -0.2320 -0.6593 -0.5058
  158MOL   H19441328   3.683   4.175   3.008 -0.6895 -0.1693 -0.0256
  158MOL   H19541329   3.771   4.674   3.213  2.4576 -2.8455 -1.6476
  158MOL   H19641330   3.614   4.598   3.238 -0.1586 -3.0169  0.1080
  158MOL   C19741331   3.683   4.685   3.416 -0.0062 -1.1880 -0.2218
  158MOL   N19841332   3.625   4.601   3.521  0.2397 -0.3307 -0.2640
  158MOL   C19941333   3.499   4.550   3.519 -0.1050  0.2773 -0.4321
  158MOL   O20041334   3.426   4.550   3.421 -0.0700  0.1504 -0.2975
  158MOL   C20141335   3.451   4.481   3.651  0.1543  0.1307 -0.5751
  158MOL   C20241336   3.609   4.814   3.407 -0.0182 -0.1079 -0.7510
  158MOL   H20341337   3.778   4.705   3.465 -0.9799 -0.4230  1.3977
  158MOL   H20441338   3.671   4.596   3.610 -1.0067  0.2820  0.4387
  158MOL   H20541339   3.494   4.525   3.741  0.8447 -1.9903  0.1564
  158MOL   H20641340   3.342   4.485   3.651  0.0987 -1.2620 -0.6308
  158MOL   H20741341   3.479   4.376   3.650 -1.7277 -0.4131  0.7150
  158MOL   H20841342   3.505   4.807   3.378  0.3415 -0.9116 -1.8776
  158MOL   H20941343   3.605   4.863   3.505 -0.4694 -0.7255 -0.4563
  158MOL   C21041344   3.672   4.922   3.316  0.2268  0.6482 -0.4921
  158MOL   N21141345   3.665   5.058   3.368 -0.4624 -0.0437  0.2706
  158MOL   C21241346   3.774   5.120   3.415 -0.8547 -0.5245 -0.0967
  158MOL   O21341347   3.881   5.064   3.427  0.0388  1.0618 -0.2112
  158MOL   C21441348   3.769   5.270   3.454 -0.1672  0.2211  0.2017
  158MOL   C21541349   3.604   4.917   3.175  0.2649 -0.4849 -1.0308
  158MOL   H21641350   3.777   4.902   3.295  0.4344 -0.1220  1.1760
  158MOL   H21741351   3.578   5.105   3.388 -1.3360 -1.1460 -0.8076
  158MOL   H21841352   3.676   5.322   3.430 -0.2294 -0.8335 -1.9659
  158MOL   H21941353   3.772   5.246   3.560  1.8387  0.0086  0.1243
  158MOL   H22041354   3.855   5.337   3.438  0.0636 -0.5055 -1.7449
  158MOL   H22141355   3.610   4.814   3.139 -0.1837 -0.8246 -0.1472
  158MOL   H22241356   3.500   4.938   3.200  0.3207  1.5752 -2.4248
  158MOL   C22341357   3.650   5.025   3.075  0.3610 -0.1150  0.5767
  158MOL   N22441358   3.577   5.017   2.952 -0.2522 -0.0310  0.1287
  158MOL   C22541359   3.453   5.057   2.919  0.4233 -0.0347  1.0290
  158MOL   O22641360   3.380   5.088   3.014 -0.6996 -0.4437  0.2136
  158MOL   C22741361   3.407   5.066   2.777  0.1770  0.7907  0.6344
  158MOL   C22841362   3.803   5.022   3.045  0.2040  0.4068 -0.0073
  158MOL   H22941363   3.640   5.126   3.115  0.7167  0.7942 -1.5446
  158MOL   H23041364   3.637   4.999   2.873  0.5524  0.3271  0.6594
  158MOL   H23141365   3.468   5.138   2.722 -0.6004  1.8657  1.1460
  158MOL   H23241366   3.404   4.972   2.722 -2.8201  0.7828  0.7535
  158MOL   H23341367   3.304   5.101   2.778 -0.8446 -1.8781 -2.7347
  158MOL   H23441368   3.866   5.039   3.133  0.7847 -0.6094 -0.2086
  158MOL   H23541369   3.831   4.923   3.009 -2.8391 -1.1234  1.6753
  158MOL   C23641370   3.846   5.114   2.928 -0.5222 -0.1538  0.0037
  158MOL   N23741371   3.816   5.051   2.794 -0.5579 -0.9264 -0.3031
  158MOL   C23841372   3.767   5.117   2.688  0.8635 -0.0129  0.4452
  158MOL   O23941373   3.744   5.235   2.682  0.4883  0.1061 -0.2580
  158MOL   C24041374   3.744   5.033   2.565  0.1973  0.1464  0.0985
  158MOL   C24141375   4.005   5.130   2.928 -0.3472 -0.1482 -0.3355
  158MOL   H24241376   3.802   5.213   2.943  2.0519  1.3407 -1.7350
  158MOL   H24341377   3.840   4.954   2.781 -2.0031 -1.1910 -1.1295
  158MOL   H24441378   3.840   4.997   2.528  0.9536  2.7801 -0.6059
  158MOL   H24541379   3.683   4.943   2.574  0.8336 -0.6127 -2.5452
  158MOL   H24641380   3.698   5.095   2.488  0.8961  0.3469 -0.1606
  158MOL   H24741381   4.048   5.038   2.968  2.3650  0.6158 -1.3290
  158MOL   H24841382   4.046   5.149   2.828 -1.4676 -1.5336 -1.0893
  158MOL   C24941383   4.073   5.235   3.023 -0.4764 -0.5409  0.6350
  158MOL   N25041384   4.220   5.247   2.996  0.7119  0.3957 -0.6082
  158MOL   C25141385   4.319   5.166   3.026 -0.2632  0.2924  0.0267
  158MOL   O25241386   4.303   5.063   3.090  0.4030 -0.1682  0.3683
  158MOL   C25341387   4.444   5.209   2.974  0.2131 -0.1395  0.3065
  158MOL   C25441388   4.048   5.225   3.171  0.3297  0.7056  0.4867
  158MOL   H25541389   4.039   5.330   2.982  1.5087 -0.5368 -1.0637
  158MOL   H25641390   4.246   5.324   2.935  0.4753  1.0699  0.1319
  158MOL   H25741391   4.506   5.125   2.945 -0.3690  0.0852 -1.6400
  158MOL   H25841392   4.435   5.276   2.888 -0.4170 -1.2419 -0.4914
  158MOL   H25941393   4.500   5.267   3.048 -0.1632  0.0095  0.4722
  158MOL   H26041394   3.940   5.241   3.177 -0.0151 -1.4204  0.4702
  158MOL   H26141395   4.077   5.131   3.218 -0.9134 -1.1659 -2.2972
  158MOL   H26241396   4.094   5.307   3.225  0.5962  0.8997 -0.0334
  159MOL     C141397   0.134   4.740   0.094 -0.6511  0.3191 -0.7830
  159MOL     N241398   0.018   4.704   0.172  0.4900  0.2051 -0.2072
  159MOL     C341399   7.833   4.721   0.302 -0.1635 -0.0990  0.0944
  159MOL     O441400   0.062   4.789   0.373  0.5345 -0.8773 -0.1385
  159MOL     C541401   7.710   4.651   0.356 -0.8867  0.3049  0.0564
  159MOL     C641402   0.256   4.641   0.105 -1.0421 -0.0914  0.2046
  159MOL     H741403   0.114   4.756   7.828 -0.8275  1.1272 -0.6302
  159MOL     H841404   7.784   4.661   0.117 -1.0476  0.8773  1.2752
  159MOL     H941405   7.628   4.671   0.287  0.3588 -2.1844 -2.2511
  159MOL    H1041406   7.723   4.546   0.380  0.8318  0.8121  1.4649
  159MOL    H1141407   7.700   4.693   0.457 -0.7755  1.3785 -0.3674
  159MOL    H1241408   0.303   4.648   0.203  0.5541 -0.7613 -0.4972
  159MOL    H1341409   0.215   4.541   0.117 -0.3219 -0.4643 -0.4153
  159MOL    H1441410   0.176   4.836   0.124  1.1508 -0.6456 -0.1124
  159MOL    C1541411   0.349   4.662   7.821  0.4557  0.6584  0.1951
  159MOL    N1641412   0.363   4.807   7.786  0.0138 -0.2280  0.0320
  159MOL    C1741413   0.443   4.896   0.007  0.5152 -0.0902 -0.7256
  159MOL    O1841414   0.513   4.860   0.099 -0.2918 -0.0124 -0.1081
  159MOL    C1941415   0.446   5.039   7.791 -0.1974 -0.1593 -0.1740
  159MOL    C2041416   0.293   4.593   7.694  0.0913  0.4872  0.6547
  159MOL    H2141417   0.449   4.627   0.009 -0.0967  0.4250  1.9636
  159MOL    H2241418   0.317   4.850   7.707 -0.1126  1.7299  1.1275
  159MOL    H2341419   0.384   5.106   0.011 -0.0525 -0.0491 -0.1478
  159MOL    H2441420   0.543   5.085   7.808  0.2907 -2.7509  5.0933
  159MOL    H2541421   0.420   5.048   7.686 -2.8694 -1.0128  0.3638
  159MOL    H2641422   0.189   4.619   7.676 -0.2522 -2.1916 -1.5788
  159MOL    H2741423   0.332   4.631   7.599  1.7676 -0.7537  0.8223
  159MOL    C2841424   0.313   4.441   7.699  0.0057  0.1611  0.7016
  159MOL    N2941425   0.449   4.408   7.665  0.0139 -0.1444  0.2859
  159MOL    C3041426   0.534   4.341   7.741 -0.0067 -0.3800 -0.7134
  159MOL    O3141427   0.518   4.303   0.014 -0.2869  0.1580  0.3494
  159MOL    C3241428   0.665   4.302   7.670  0.1336 -0.0202  0.2858
  159MOL    C3341429   0.218   4.351   7.619  0.0670 -0.8561 -0.0812
  159MOL    H3441430   0.304   4.400   7.800 -0.1782  0.9509  1.0048
  159MOL    H3541431   0.477   4.426   7.569 -1.0217  0.0145  0.0042
  159MOL    H3641432   0.635   4.263   7.573 -0.4858 -1.6227  1.0959
  159MOL    H3741433   0.730   4.389   7.665  0.0683 -0.0238 -0.5930
  159MOL    H3841434   0.719   4.221   7.718  2.3377  0.1597 -1.7926
  159MOL    H3941435   0.220   4.392   7.518 -1.0206  1.6501  0.8655
  159MOL    H4041436   0.254   4.248   7.616 -0.4145 -1.0132 -0.4319
  159MOL    C4141437   0.076   4.345   7.677 -0.0502 -0.0077  0.5347
  159MOL    N4241438   0.084   4.300   7.815  0.0106  0.9505 -0.4010
  159MOL    C4341439   0.112   4.176   0.015  0.3563  0.4291  0.5950
  159MOL    O4441440   0.138   4.084   7.778  0.8792 -0.9418  0.0352
  159MOL    C4541441   0.119   4.143   0.165 -0.6405  1.5668  0.4607
  159MOL    C4641442   7.809   4.281   7.583 -0.6860 -0.8193 -0.5017
  159MOL    H4741443   0.040   4.448   7.678  1.1551  0.4151  0.7392
  159MOL    H4841444   0.059   4.370   0.044 -0.9493  0.0773  0.1501
  159MOL    H4941445   0.204   4.079   0.189 -0.7327  0.4728 -2.0167
  159MOL    H5041446   0.106   4.223   0.239 -2.1378  2.1005 -0.3384
  159MOL    H5141447   0.033   4.075   0.160  0.8850 -0.3916  0.3882
  159MOL    H5241448   7.817   4.172   7.577 -0.9701 -0.9930  1.7429
  159MOL    H5341449   7.709   4.302   7.622 -0.2962 -1.1130  0.6754
  159MOL    C5441450   7.822   4.335   7.438  0.4746 -0.7589 -0.4059
  159MOL    N5541451   7.689   4.327   7.375  0.4166  0.1241 -0.0976
  159MOL    C5641452   7.608   4.429   7.335 -0.5906  0.8106  0.7410
  159MOL    O5741453   7.624   4.547   7.362  0.3872  0.2952 -0.7411
  159MOL    C5841454   7.493   4.391   7.244  0.3127 -0.6001 -0.6037
  159MOL    C5941455   0.077   4.263   7.345  0.0567  0.1030 -0.1693
  159MOL    H6041456   0.024   4.435   7.443  1.7355 -1.3861  2.7175
  159MOL    H6141457   7.666   4.236   7.338  0.0137  1.6234 -3.7597
  159MOL    H6241458   7.443   4.306   7.291 -2.6215  0.6471 -1.3808
  159MOL    H6341459   7.427   4.477   7.255 -0.0639 -0.9008 -0.4985
  159MOL    H6441460   7.524   4.384   7.140  1.0479 -0.1434 -0.4199
  159MOL    H6541461   0.151   4.210   7.404 -0.1042 -1.1549 -1.0858
  159MOL    H6641462   0.020   4.180   7.304  1.5419 -0.4806 -1.0769
  159MOL    C6741463   0.141   4.343   7.224 -0.0679  0.0496 -0.3485
  159MOL    N6841464   0.040   4.351   7.108 -0.4125 -0.3908  0.5616
  159MOL    C6941465   0.034   4.440   7.007 -0.0627 -0.4381  0.0960
  159MOL    O7041466   0.106   4.533   6.996 -0.0578  0.0488  0.1708
  159MOL    C7141467   7.777   4.400   6.891  0.1672 -0.3447 -0.2571
  159MOL    C7241468   0.266   4.280   7.160 -0.1894  0.6715 -0.3263
  159MOL    H7341469   0.159   4.445   7.256 -1.1643  0.5830 -1.3797
  159MOL    H7441470   7.813   4.278   7.088  1.1323 -1.7801  0.3181
  159MOL    H7541471   7.824   4.318   6.836  2.3728  0.8721 -0.2636
  159MOL    H7641472   7.678   4.364   6.920  0.7384  0.2170  2.4722
  159MOL    H7741473   7.734   4.482   6.833  1.5548  1.0905  0.6974
  159MOL    H7841474   0.244   4.176   7.137  0.8812  0.1237  1.0190
  159MOL    H7941475   0.277   4.341   7.071 -0.6706  1.9791  0.4861
  159MOL    C8041476   0.403   4.294   7.235 -0.6818  0.9323 -0.0352
  159MOL    N8141477   0.461   4.424   7.207  0.1946  0.8306  0.5853
  159MOL    C8241478   0.516   4.499   7.300 -0.0486 -0.7037 -0.9212
  159MOL    O8341479   0.532   4.458   7.415 -0.3239  0.8549 -0.7285
  159MOL    C8441480   0.536   4.646   7.280  0.6837 -0.2586  0.1865
  159MOL    C8541481   0.512   4.188   7.202  0.2180 -0.0788  0.1366
  159MOL    H8641482   0.378   4.274   7.339 -0.1067 -2.1160 -0.4273
  159MOL    H8741483   0.443   4.463   7.116  0.9249  0.8000  0.4206
  159MOL    H8841484   0.469   4.688   7.356  0.0938 -1.4243  0.3308
  159MOL    H8941485   0.634   4.678   7.315  1.0606 -2.7302  1.4616
  159MOL    H9041486   0.512   4.676   7.178 -0.5109 -0.7370  0.3210
  159MOL    H9141487   0.536   4.191   7.095 -0.1376  0.4515  0.0682
  159MOL    H9241488   0.608   4.209   7.249 -0.2104 -0.3831  1.1553
  159MOL    C9341489   0.484   4.046   7.237  0.0799 -0.0740  0.4566
  159MOL    N9441490   0.452   4.031   7.383  0.2917  0.3904 -0.1039
  159MOL    C9541491   0.536   4.023   7.486  0.3956 -0.1196 -0.3881
  159MOL    O9641492   0.655   4.022   7.468  0.3258  0.4935  0.5651
  159MOL    C9741493   0.481   3.994   7.626 -0.3286  0.6845 -0.2097
  159MOL    C9841494   0.581   3.936   7.171 -0.4468  0.4515  0.2724
  159MOL    H9941495   0.384   4.035   7.196  0.0940  1.0326  0.1115
  159MOL   H10041496   0.360   3.998   7.409  0.7240 -1.5259 -0.9153
  159MOL   H10141497   0.525   4.063   7.698  0.6064 -1.0597  0.9317
  159MOL   H10241498   0.374   4.015   7.638  0.0072  1.4521  1.8094
  159MOL   H10341499   0.517   3.897   7.659  0.5573  1.7679  2.1894
  159MOL   H10441500   0.590   3.973   7.069  0.4004 -4.1815 -1.4523
  159MOL   H10541501   0.683   3.921   7.207  0.0305  0.4474 -1.0433
  159MOL   C10641502   0.528   3.785   7.162  0.4466  0.1848  0.5062
  159MOL   N10741503   0.492   3.740   7.295 -0.1349 -0.0266 -0.4168
  159MOL   C10841504   0.409   3.642   7.330  0.6378  0.4207 -0.5153
  159MOL   O10941505   0.349   3.575   7.253 -0.1677  0.3120 -0.1215
  159MOL   C11041506   0.390   3.605   7.478  0.0294 -0.0357 -0.7554
  159MOL   C11141507   0.633   3.695   7.097  0.0083 -0.1910 -0.5880
  159MOL   H11241508   0.437   3.791   7.102  1.9700 -0.3261 -1.9385
  159MOL   H11341509   0.547   3.783   7.369 -1.0624  1.6549 -0.6885
  159MOL   H11441510   0.284   3.586   7.496 -0.1178 -0.4253 -1.9923
  159MOL   H11541511   0.446   3.514   7.500 -0.7063 -0.5070 -0.8004
  159MOL   H11641512   0.424   3.685   7.544  2.5169 -0.0727 -1.9483
  159MOL   H11741513   0.710   3.695   7.174  0.8825 -0.9505 -1.4497
  159MOL   H11841514   0.595   3.593   7.101  0.3843 -0.4439 -2.7743
  159MOL   C11941515   0.670   3.723   6.949 -0.6539  0.5917 -0.2978
  159MOL   N12041516   0.550   3.707   6.868 -0.1719 -0.5929  0.5919
  159MOL   C12141517   0.491   3.798   6.791 -0.8647 -1.0422  0.0805
  159MOL   O12241518   0.537   3.916   6.785 -0.0904  0.2792  0.1464
  159MOL   C12341519   0.363   3.759   6.715  0.2869 -0.4078  0.1287
  159MOL   C12441520   0.788   3.630   6.899 -0.2322 -0.5852  0.4132
  159MOL   H12541521   0.705   3.827   6.942 -0.2475  0.6347  2.0357
  159MOL   H12641522   0.516   3.612   6.871  1.3639 -1.1446  1.7181
  159MOL   H12741523   0.277   3.788   6.775  1.1931  0.2430  1.1190
  159MOL   H12841524   0.350   3.806   6.617 -0.3387 -0.2519  0.2836
  159MOL   H12941525   0.354   3.651   6.700 -3.6193 -0.1468  0.1283
  159MOL   H13041526   0.755   3.529   6.874  2.5645 -1.4630  0.0806
  159MOL   H13141527   0.826   3.668   6.804 -1.2250 -0.9237 -0.1239
  159MOL   C13241528   0.910   3.639   6.995  1.0285  0.6664 -0.0578
  159MOL   N13341529   0.972   3.773   6.990  0.0661  0.0819  0.0518
  159MOL   C13441530   1.002   3.854   7.098  0.6636 -0.6476  0.3948
  159MOL   O13541531   0.974   3.826   7.215 -0.5451 -0.0777 -0.0512
  159MOL   C13641532   1.052   3.994   7.059  0.0935 -0.0058  0.2151
  159MOL   C13741533   1.019   3.534   6.956 -0.1876 -0.3276  0.4098
  159MOL   H13841534   0.880   3.603   7.094  2.0881  0.9849  0.3929
  159MOL   H13941535   1.010   3.802   6.901  1.3430 -1.4279  0.0766
  159MOL   H14041536   1.118   3.982   6.973 -2.1493  1.1606 -1.7551
  159MOL   H14141537   0.970   4.063   7.039 -0.0204  0.1767  1.2860
  159MOL   H14241538   1.106   4.026   7.148  0.0465 -0.7470  0.5115
  159MOL   H14341539   0.965   3.439   6.954 -0.6930 -0.0395  0.4047
  159MOL   H14441540   1.052   3.544   6.853  2.7691 -0.3926  1.3086
  159MOL   C14541541   1.150   3.528   7.050 -0.1494 -0.3290 -0.2230
  159MOL   N14641542   1.241   3.427   6.996 -0.0417  0.0674  0.3093
  159MOL   C14741543   1.310   3.448   6.888 -0.0679 -0.2586  0.2770
  159MOL   O14841544   1.293   3.550   6.826 -1.1197 -0.1174  0.1852
  159MOL   C14941545   1.414   3.340   6.854 -0.3649 -0.4368  0.0146
  159MOL   C15041546   1.108   3.497   7.194  0.2335  0.0502 -1.1022
  159MOL   H15141547   1.202   3.623   7.038  0.0103 -0.1398  1.7313
  159MOL   H15241548   1.247   3.339   7.045 -1.3255  0.8937  2.0104
  159MOL   H15341549   1.492   3.403   6.811 -1.7633  1.0984 -0.3196
  159MOL   H15441550   1.447   3.281   6.939 -1.6596 -0.5848  0.4195
  159MOL   H15541551   1.382   3.273   6.774  0.1630 -0.4417 -0.1976
  159MOL   H15641552   1.020   3.557   7.220 -1.2121 -1.1625 -3.0241
  159MOL   H15741553   1.071   3.394   7.193  0.8747 -0.1775 -1.7029
  159MOL   C15841554   1.207   3.529   7.306  0.1921  0.4941 -0.5059
  159MOL   N15941555   1.137   3.513   7.441  0.0598  0.1439 -0.1895
  159MOL   C16041556   1.106   3.399   7.493 -0.1211  0.7880  0.0177
  159MOL   O16141557   1.149   3.293   7.449  0.0298 -0.0658 -0.2154
  159MOL   C16241558   1.024   3.409   7.620 -1.0814  0.3310 -0.7625
  159MOL   C16341559   1.290   3.663   7.307  0.6102 -0.6499  0.1441
  159MOL   H16441560   1.287   3.455   7.299 -0.5262 -0.1362 -2.2920
  159MOL   H16541561   1.111   3.597   7.491  1.2747 -0.8810  2.2146
  159MOL   H16641562   1.096   3.393   7.700 -1.5418  0.3042 -0.3520
  159MOL   H16741563   0.973   3.503   7.641  0.7908  1.0297  0.8097
  159MOL   H16841564   0.957   3.323   7.619  0.6111 -1.0314 -0.2342
  159MOL   H16941565   1.215   3.735   7.271  2.5003  1.3886  0.1671
  159MOL   H17041566   1.302   3.690   7.412 -1.3197  0.7991  0.0136
  159MOL   C17141567   1.416   3.660   7.224 -0.4763 -0.1291  0.4510
  159MOL   N17241568   1.530   3.606   7.306  0.5084 -0.3948 -0.2282
  159MOL   C17341569   1.611   3.504   7.269  0.0963  0.1448 -0.7133
  159MOL   O17441570   1.594   3.447   7.161  0.2892  0.3590  0.1256
  159MOL   C17541571   1.723   3.462   7.361 -0.5407 -0.3378 -0.4208
  159MOL   C17641572   1.460   3.809   7.190  0.0782  0.1112 -0.0373
  159MOL   H17741573   1.395   3.608   7.130  0.3269 -0.8674  0.6829
  159MOL   H17841574   1.554   3.655   7.390 -0.5554 -0.4524  0.1149
  159MOL   H17941575   1.782   3.380   7.322 -1.1217  0.0881 -2.2454
  159MOL   H18041576   1.779   3.548   7.397 -1.6536 -0.0731  0.7362
  159MOL   H18141577   1.673   3.417   7.447 -2.8140 -0.3950 -1.7239
  159MOL   H18241578   1.384   3.885   7.172  0.2191 -0.0216 -1.2345
  159MOL   H18341579   1.518   3.851   7.272 -1.4681 -0.2629  1.2947
  159MOL   C18441580   1.560   3.809   7.074  0.0243 -0.3100  0.8797
  159MOL   N18541581   1.635   3.939   7.068 -0.1440  0.1519 -0.5276
  159MOL   C18641582   1.747   3.965   7.141 -0.0688  0.5073  1.0951
  159MOL   O18741583   1.800   3.891   7.221 -0.0019  0.3670  0.2539
  159MOL   C18841584   1.810   4.099   7.122  0.1542  0.4852  0.0072
  159MOL   C18941585   1.500   3.801   6.930 -0.1275  0.4854 -0.1737
  159MOL   H19041586   1.635   3.733   7.093 -0.1746 -0.9772 -0.9413
  159MOL   H19141587   1.605   4.000   6.993 -2.0335  0.7043  0.6416
  159MOL   H19241588   1.915   4.081   7.101  0.2322 -1.0649  1.6625
  159MOL   H19341589   1.753   4.140   7.039 -1.1192 -0.3628  0.4454
  159MOL   H19441590   1.798   4.148   7.218 -0.7232  0.4132 -0.0642
  159MOL   H19541591   1.454   3.703   6.919 -1.6044  1.3123 -1.7339
  159MOL   H19641592   1.414   3.867   6.929 -1.6011 -1.3800  0.5158
  159MOL   C19741593   1.599   3.819   6.812  0.1002  0.1660  0.9861
  159MOL   N19841594   1.516   3.797   6.690  0.3409 -0.3216  0.1324
  159MOL   C19941595   1.541   3.840   6.567  0.0889  0.4608  0.3022
  159MOL   O20041596   1.634   3.917   6.549  0.1140  0.9214 -0.1426
  159MOL   C20141597   1.447   3.796   6.457 -0.0902  0.1038  0.3583
  159MOL   C20241598   1.712   3.712   6.823  0.1387  0.0005 -0.5703
  159MOL   H20341599   1.638   3.920   6.803 -0.2257  0.3551  1.6539
  159MOL   H20441600   1.430   3.745   6.701  0.1292 -0.1469 -0.6775
  159MOL   H20541601   1.491   3.712   6.404 -0.0042 -0.1425  0.8217
  159MOL   H20641602   1.345   3.776   6.489  0.3077 -0.1394  1.5000
  159MOL   H20741603   1.439   3.879   6.386  1.0802  0.1144  0.2177
  159MOL   H20841604   1.766   3.713   6.918  1.2609  0.6912 -1.2062
  159MOL   H20941605   1.678   3.609   6.817  0.4114 -0.0037 -2.2018
  159MOL   C21041606   1.824   3.722   6.720 -0.1650 -0.9706  0.0546
  159MOL   N21141607   1.906   3.603   6.725  0.3576 -0.2002  0.2288
  159MOL   C21241608   1.979   3.546   6.822 -0.9135 -0.1331 -0.2605
  159MOL   O21341609   1.979   3.580   6.937  0.6296  0.7649 -0.0545
  159MOL   C21441610   2.056   3.427   6.779 -0.7239 -0.2125 -0.5410
  159MOL   C21541611   1.906   3.854   6.730 -0.4840  0.6753 -0.4665
  159MOL   H21641612   1.769   3.711   6.627  1.2067 -0.9942 -0.7761
  159MOL   H21741613   1.912   3.553   6.637  0.9935  1.3551 -0.6266
  159MOL   H21841614   2.106   3.439   6.683 -1.4885  0.8123 -0.8193
  159MOL   H21941615   2.134   3.410   6.854 -1.0230  1.0432  0.0635
  159MOL   H22041616   1.995   3.337   6.781  0.3899 -0.9821 -0.6618
  159MOL   H22141617   1.835   3.936   6.715 -0.0409  1.5186  1.8377
  159MOL   H22241618   1.952   3.862   6.829  0.0719  0.3747 -0.7004
  159MOL   C22341619   2.016   3.877   6.626  0.7333  0.0021  0.6089
  159MOL   N22441620   2.093   3.994   6.669  0.5860 -0.0051  0.3351
  159MOL   C22541621   2.223   4.017   6.645  0.2188 -0.1825 -0.2735
  159MOL   O22641622   2.297   3.960   6.570  0.6681  0.1098 -0.1835
  159MOL   C22741623   2.280   4.128   6.728 -0.6451  0.3775 -0.2592
  159MOL   C22841624   1.959   3.894   6.480 -0.0180 -0.2809  0.3013
  159MOL   H22941625   2.069   3.783   6.645  0.9862  0.3860  1.8526
  159MOL   H23041626   2.044   4.056   6.732 -0.5202 -1.9671  1.4733
  159MOL   H23141627   2.277   4.098   6.833  0.0634  1.3680  0.0495
  159MOL   H23241628   2.381   4.143   6.692 -1.0196 -1.2285 -2.0020
  159MOL   H23341629   2.233   4.226   6.716  1.7892  1.3807 -1.9656
  159MOL   H23441630   1.867   3.837   6.471 -1.1942  1.3772  1.5845
  159MOL   H23541631   1.948   4.002   6.468  0.1557 -0.3323 -0.3404
  159MOL   C23641632   2.055   3.817   6.392  0.5974 -0.4360 -0.6965
  159MOL   N23741633   2.062   3.874   6.260 -1.4271 -0.1151  0.7668
  159MOL   C23841634   2.171   3.945   6.203  0.5050  0.6190 -0.2803
  159MOL   O23941635   2.270   3.974   6.266 -0.2977 -0.0130  0.1518
  159MOL   C24041636   2.165   3.955   6.053 -0.3203 -0.0285 -0.1644
  159MOL   C24141637   2.017   3.669   6.386 -0.1495 -0.3775 -0.2455
  159MOL   H24241638   2.153   3.821   6.441  0.2723 -0.3643 -0.0538
  159MOL   H24341639   1.986   3.853   6.197  0.8422 -1.8967 -1.4812
  159MOL   H24441640   2.254   3.905   6.015 -0.5053 -1.4170  1.1949
  159MOL   H24541641   2.075   3.901   6.025 -0.3426 -0.2187  0.2713
  159MOL   H24641642   2.152   4.057   6.018  0.3351 -1.3863 -4.7436
  159MOL   H24741643   2.007   3.626   6.486 -1.2490  2.5449  0.9724
  159MOL   H24841644   1.920   3.656   6.337 -0.8274  1.0003  0.6696
  159MOL   C24941645   2.112   3.563   6.333 -0.2000  0.4815  0.5937
  159MOL   N25041646   2.050   3.429   6.325  0.4989 -0.3158 -0.6651
  159MOL   C25141647   2.101   3.331   6.241  0.6425  0.3089 -0.4302
  159MOL   O25241648   2.214   3.325   6.190  0.3952  0.0421 -0.1717
  159MOL   C25341649   1.997   3.233   6.208 -0.9697  0.9012 -0.5592
  159MOL   C25441650   2.247   3.549   6.412  0.5721  0.6963  0.5234
  159MOL   H25541651   2.140   3.600   6.235  0.4964  1.5793  1.1930
  159MOL   H25641652   1.950   3.424   6.339  0.5750  2.7340  1.5311
  159MOL   H25741653   1.915   3.293   6.169 -2.2453 -0.8040 -0.5411
  159MOL   H25841654   2.029   3.176   6.121  2.1417  1.4760  0.1406
  159MOL   H25941655   1.958   3.174   6.291 -0.0560 -0.2430 -0.9369
  159MOL   H26041656   2.218   3.541   6.517 -1.9583 -0.4188 -0.2229
  159MOL   H26141657   2.314   3.467   6.386 -0.2016  0.0371  0.5817
  159MOL   H26241658   2.311   3.636   6.401  1.1615  0.0605 -1.2083
  160MOL     C141659   2.205   6.558   7.608 -0.5982  1.0462 -0.3567
  160MOL     N241660   2.065   6.601   7.632 -0.0928 -0.2526 -0.5388
  160MOL     C341661   1.967   6.529   7.688  0.0590  0.0791 -0.3837
  160MOL     O441662   1.991   6.425   7.745  0.0293 -0.0034  0.0247
  160MOL     C541663   1.832   6.601   7.688 -0.2459  0.4107 -0.0527
  160MOL     C641664   2.304   6.599   7.714 -0.5665  0.2961  0.2573
  160MOL     H741665   2.215   6.453   7.580  1.1594  0.9098  0.7188
  160MOL     H841666   2.037   6.689   7.590 -0.7370  0.4728  1.3231
  160MOL     H941667   1.832   6.677   7.766  0.7872  1.0222 -0.6384
  160MOL    H1041668   1.809   6.646   7.591 -1.3281 -0.6727 -0.3116
  160MOL    H1141669   1.743   6.541   7.707 -0.4146  0.5924 -0.2499
  160MOL    H1241670   2.356   6.689   7.683  0.3555 -0.1574  0.4795
  160MOL    H1341671   2.248   6.635   7.800 -0.5817  5.1960 -1.6174
  160MOL    H1441672   2.228   6.594   7.508  2.1336 -2.7717 -1.1935
  160MOL    C1541673   2.397   6.486   7.757  0.1384 -0.0138 -0.1262
  160MOL    N1641674   2.319   6.376   7.812 -1.0249 -0.7819  0.1677
  160MOL    C1741675   2.356   6.243   7.806  0.1347 -0.2088 -0.0308
  160MOL    O1841676   2.468   6.203   7.773 -0.4968  0.5823  0.1599
  160MOL    C1941677   2.244   6.150   7.833  0.0659 -0.2382  0.2680
  160MOL    C2041678   2.503   6.524   0.031  0.1767  0.2835 -0.1551
  160MOL    H2141679   2.448   6.444   7.669 -0.0285  2.6879 -1.5553
  160MOL    H2241680   2.229   6.413   7.838 -2.1656 -1.1958 -3.0392
  160MOL    H2341681   2.146   6.179   7.796 -0.3428  0.5259  1.9390
  160MOL    H2441682   2.259   6.049   7.794 -0.2281 -0.3778  0.5245
  160MOL    H2541683   2.240   6.154   0.102 -1.3535  1.1183  0.1876
  160MOL    H2641684   2.446   6.594   0.092 -1.2838  1.6663 -2.9780
  160MOL    H2741685   2.534   6.443   0.096 -0.7898  0.1645  0.1600
  160MOL    C2841686   2.640   6.583   7.819  0.5951 -0.3401 -0.6055
  160MOL    N2941687   2.617   6.671   7.708  0.3214  0.3934  0.3804
  160MOL    C3041688   2.595   6.806   7.707 -1.4955 -0.0266 -0.2325
  160MOL    O3141689   2.582   6.882   7.804  0.5943 -0.0415  0.3662
  160MOL    C3241690   2.593   6.870   7.573 -0.2648  0.0593 -0.1072
  160MOL    C3341691   2.757   6.482   7.784 -0.0372  0.5434  0.3969
  160MOL    H3441692   2.677   6.648   0.059  1.5575  0.2633 -1.5312
  160MOL    H3541693   2.640   6.633   7.617  2.3475  0.8065  0.6905
  160MOL    H3641694   2.501   6.844   7.522  0.5161 -0.8779 -1.0641
  160MOL    H3741695   2.581   6.978   7.583  0.0422  0.1677 -0.8191
  160MOL    H3841696   2.682   6.841   7.517 -0.3956 -1.6180  0.5241
  160MOL    H3941697   2.775   6.414   0.028  0.7940 -0.8837 -0.9069
  160MOL    H4041698   2.724   6.407   7.712 -0.4438 -1.3429  2.4939
  160MOL    C4141699   2.898   6.540   7.754  0.7331  0.3391  0.5800
  160MOL    N4241700   2.979   6.475   7.652  0.1130 -0.6919 -0.1282
  160MOL    C4341701   2.951   6.471   7.522  0.1862 -0.3343  0.6452
  160MOL    O4441702   2.850   6.519   7.471  0.1069  0.0881  0.0613
  160MOL    C4541703   3.062   6.413   7.432  0.9785  0.3684 -0.4797
  160MOL    C4641704   2.979   6.535   0.049 -0.1609  0.5006  0.3578
  160MOL    H4741705   2.906   6.643   7.718 -1.7883  0.3848  0.0884
  160MOL    H4841706   3.062   6.428   7.684  1.6634  1.9378 -0.1228
  160MOL    H4941707   3.059   6.304   7.436  0.0296  0.4188  0.3394
  160MOL    H5041708   3.046   6.453   7.332 -1.1032  0.3810 -0.1560
  160MOL    H5141709   3.157   6.441   7.479 -0.7048 -1.9384  4.7816
  160MOL    H5241710   2.914   6.552   0.136 -0.5672  1.6622 -0.1625
  160MOL    H5341711   3.022   6.436   0.061  2.7850  1.7998  0.9304
  160MOL    C5441712   3.097   6.638   0.061  0.3234  0.2870 -0.1447
  160MOL    N5541713   3.170   6.607   0.180  0.1776  0.2571  0.4784
  160MOL    C5641714   3.241   6.498   0.221 -0.1035 -0.3007  0.1360
  160MOL    O5741715   3.274   6.404   0.150  0.1086 -0.8309  0.0164
  160MOL    C5841716   3.299   6.490   0.367  0.1644 -0.7361  0.5633
  160MOL    C5941717   3.055   6.791   0.060 -0.7966  0.0962  0.1983
  160MOL    H6041718   3.162   6.625   7.814 -0.4719 -0.2340 -0.6771
  160MOL    H6141719   3.194   6.692   0.229  1.4168 -0.5756  1.3421
  160MOL    H6241720   3.343   6.391   0.378  1.4200 -0.0950  1.4277
  160MOL    H6341721   3.391   6.548   0.362 -1.5712  2.1938  1.1493
  160MOL    H6441722   3.239   6.525   0.452  0.8603  1.3466  0.2241
  160MOL    H6541723   2.993   6.814   7.813  2.8441 -0.9578 -2.7841
  160MOL    H6641724   2.984   6.799   0.143 -2.0763 -2.8099 -0.5333
  160MOL    C6741725   3.162   6.898   0.071 -0.2726  0.0278  1.0091
  160MOL    N6841726   3.161   6.962   0.203  0.4348 -0.1367 -0.0127
  160MOL    C6941727   3.229   6.928   0.313  0.3574  0.2777 -0.1420
  160MOL    O7041728   3.292   6.822   0.322 -0.2253 -0.7214  0.3210
  160MOL    C7141729   3.240   7.034   0.427 -0.1691  0.1340 -0.2347
  160MOL    C7241730   3.152   7.023   7.817 -0.5159 -0.3571  0.3607
  160MOL    H7341731   3.254   6.844   0.051 -0.4645 -0.6423  1.8989
  160MOL    H7441732   3.117   7.052   0.205  0.0080 -0.3270 -0.5562
  160MOL    H7541733   3.337   7.083   0.419  0.7208 -1.1990  1.9649
  160MOL    H7641734   3.156   7.103   0.413 -0.8753 -1.0132 -1.7749
  160MOL    H7741735   3.240   6.987   0.525  1.8087  0.7702  0.0907
  160MOL    H7841736   3.131   6.977   7.720 -1.3536 -1.2854  0.9802
  160MOL    H7941737   3.064   7.084   7.837  0.9602  2.8136 -2.2541
  160MOL    C8041738   3.269   7.125   7.808 -0.3196  0.3745 -0.0673
  160MOL    N8141739   3.210   7.264   7.811 -0.4282 -0.1454  0.2460
  160MOL    C8241740   3.163   7.314   0.085  0.0013 -0.0324 -0.6197
  160MOL    O8341741   3.144   7.241   0.185 -0.1200  0.2358  0.6860
  160MOL    C8441742   3.121   7.465   0.081  0.6018 -0.3879 -0.4357
  160MOL    C8541743   3.362   7.106   7.685  0.3537 -0.2641 -0.3259
  160MOL    H8641744   3.333   7.117   0.057  1.4877  2.1897 -1.1609
  160MOL    H8741745   3.226   7.340   7.746 -0.5500  0.8392  1.3454
  160MOL    H8841746   3.079   7.493   0.177  2.2578  0.5616  0.0406
  160MOL    H8941747   3.208   7.525   0.052 -0.7402  1.6758 -0.2917
  160MOL    H9041748   3.055   7.484   7.836 -0.0396 -3.1630 -0.5897
  160MOL    H9141749   3.296   7.110   7.598  0.4339  0.3507 -0.3592
  160MOL    H9241750   3.433   7.187   7.671 -0.3052  1.0141  3.2443
  160MOL    C9341751   3.438   6.974   7.684  0.0121  0.0049 -0.1071
  160MOL    N9441752   3.530   6.963   7.798  0.2268  0.2471  0.4061
  160MOL    C9541753   3.568   6.860   0.032  0.3728  0.2152 -0.1181
  160MOL    O9641754   3.529   6.743   0.012 -0.6562 -0.5659  0.2538
  160MOL    C9741755   3.652   6.893   0.149 -0.2906  0.2305  0.0252
  160MOL    C9841756   3.525   6.954   7.558 -0.3046 -0.3553  0.3347
  160MOL    H9941757   3.361   6.897   7.676 -0.7593  0.6698  0.7631
  160MOL   H10041758   3.584   7.046   7.820  2.5294 -1.2531  0.5483
  160MOL   H10141759   3.627   6.827   0.232 -1.2322 -1.8543 -1.8640
  160MOL   H10241760   3.761   6.893   0.142 -0.1348  1.8281  1.9824
  160MOL   H10341761   3.617   6.990   0.185 -1.2157 -0.7036  1.7083
  160MOL   H10441762   3.474   7.012   7.480  0.6835  0.3283  0.1922
  160MOL   H10541763   3.625   6.996   7.570 -1.2847  1.7434  1.4899
  160MOL   C10641764   3.534   6.804   7.511 -0.5461 -0.2403  0.8152
  160MOL   N10741765   3.646   6.772   7.421 -0.1811 -0.0551 -0.4941
  160MOL   C10841766   3.726   6.667   7.424 -0.9360  0.2938  0.0358
  160MOL   O10941767   3.713   6.571   7.502 -0.4856  0.1278 -0.0337
  160MOL   C11041768   3.854   6.675   7.341  0.0684 -0.1388  0.2406
  160MOL   C11141769   3.397   6.748   7.454  0.2887 -0.1399 -0.7574
  160MOL   H11241770   3.553   6.739   7.596  0.1434 -1.2512 -0.1003
  160MOL   H11341771   3.680   6.841   7.355  1.1276  1.1172  1.3738
  160MOL   H11441772   3.944   6.697   7.398 -0.9958  1.6507  1.2942
  160MOL   H11541773   3.854   6.582   7.286 -1.1742 -0.2431  0.4048
  160MOL   H11641774   3.847   6.753   7.265 -0.8973 -0.9737 -0.5457
  160MOL   H11741775   3.409   6.640   7.441  0.5582 -0.2051  0.0312
  160MOL   H11841776   3.324   6.752   7.535 -1.3830 -0.7207 -2.1893
  160MOL   C11941777   3.325   6.818   7.337 -0.3535 -1.1728 -0.0505
  160MOL   N12041778   3.187   6.778   7.337  0.2379  0.5354 -0.5340
  160MOL   C12141779   3.088   6.850   7.399 -0.2093  0.6290  0.1437
  160MOL   O12241780   3.122   6.934   7.478 -0.2762 -1.2110 -0.1406
  160MOL   C12341781   2.937   6.824   7.369 -0.3625  0.6593 -0.2758
  160MOL   C12441782   3.388   6.778   7.206 -0.4874  0.4158  0.0660
  160MOL   H12541783   3.327   6.926   7.347 -2.9879 -1.1062  0.0551
  160MOL   H12641784   3.150   6.712   7.270 -0.1593 -0.2591  0.4542
  160MOL   H12741785   2.921   6.743   7.297 -0.0489  1.9566 -1.8417
  160MOL   H12841786   2.890   6.784   7.459 -1.5546  1.4539 -0.5315
  160MOL   H12941787   2.896   6.921   7.340 -0.6990  0.0930 -1.7545
  160MOL   H13041788   3.496   6.778   7.216 -0.3783  2.1557 -0.8622
  160MOL   H13141789   3.356   6.675   7.191  0.8357 -0.2671  1.7839
  160MOL   C13241790   3.333   6.850   7.076 -0.1011 -0.1150  0.6201
  160MOL   N13341791   3.324   6.756   6.962  0.4000  0.5242  0.8979
  160MOL   C13441792   3.206   6.696   6.933  0.5883  0.0794 -0.1103
  160MOL   O13541793   3.113   6.670   7.012  1.2438 -0.1617  0.3003
  160MOL   C13641794   3.178   6.655   6.789  0.7936 -0.0253 -0.4549
  160MOL   C13741795   3.417   6.982   7.035  0.6942 -0.2310  0.1049
  160MOL   H13841796   3.238   6.895   7.104 -0.5198 -0.4426 -0.2368
  160MOL   H13941797   3.404   6.749   6.900 -1.0630 -1.2781 -0.8230
  160MOL   H14041798   3.214   6.555   6.764  0.8431 -0.0923 -0.1189
  160MOL   H14141799   3.069   6.661   6.783  0.8552  1.2298 -0.3803
  160MOL   H14241800   3.226   6.732   6.728  2.4150 -1.1277 -0.5775
  160MOL   H14341801   3.363   7.034   6.955 -0.5056 -3.0993 -0.9946
  160MOL   H14441802   3.407   7.045   7.124 -0.8674 -2.7419  1.7553
  160MOL   C14541803   3.563   6.967   6.997  0.1980  0.8890  0.2348
  160MOL   N14641804   3.637   7.086   7.038  0.4013  0.6458 -0.0668
  160MOL   C14741805   3.707   7.095   7.155 -0.6836  0.0770 -0.8407
  160MOL   O14841806   3.677   7.029   7.251  0.1806 -0.6169  0.0681
  160MOL   C14941807   3.844   7.175   7.147  0.1949  0.0887  0.0964
  160MOL   C15041808   3.580   6.973   6.840 -0.2918 -0.1867  0.2850
  160MOL   H15141809   3.598   6.874   7.040 -0.0441  1.0038  0.6884
  160MOL   H15241810   3.671   7.138   6.958 -0.9958  0.0657 -1.0478
  160MOL   H15341811   3.913   7.108   7.097  0.6459  1.6129 -1.3276
  160MOL   H15441812   3.848   7.263   7.083  1.1902  2.3241  3.1021
  160MOL   H15541813   3.886   7.193   7.246 -1.2994  0.0319  0.7707
  160MOL   H15641814   3.500   6.910   6.802  0.9703 -0.8189 -1.4210
  160MOL   H15741815   3.565   7.068   6.788 -1.7163 -0.6622 -0.1791
  160MOL   C15841816   3.714   6.905   6.782  0.2655  0.0188 -0.4642
  160MOL   N15941817   3.752   6.781   6.848 -0.7870  0.1186 -0.0435
  160MOL   C16041818   3.673   6.672   6.843 -0.2730 -0.3234 -0.0061
  160MOL   O16141819   3.557   6.671   6.804 -0.2258  0.1228  0.9366
  160MOL   C16241820   3.742   6.551   6.901 -0.0412  0.0878 -0.4472
  160MOL   C16341821   3.821   7.016   6.784  0.2408 -0.1665  0.1233
  160MOL   H16441822   3.692   6.888   6.677  0.1167 -1.6110 -0.1745
  160MOL   H16541823   3.846   6.778   6.885 -0.3297 -1.9757 -1.3042
  160MOL   H16641824   3.850   6.543   6.888 -0.0526 -0.4686 -0.2177
  160MOL   H16741825   3.711   6.534   7.004  0.9383  1.7046  0.1490
  160MOL   H16841826   3.709   6.460   6.850 -0.8044 -0.4894  1.0493
  160MOL   H16941827   3.783   7.089   6.712 -1.2859 -1.1464 -0.0929
  160MOL   H17041828   3.813   7.062   6.882 -0.6152  1.0021 -0.4912
  160MOL   C17141829   3.966   6.973   6.752  0.3747 -0.0401 -0.1720
  160MOL   N17241830   4.050   7.064   6.828 -0.3109  0.2474 -0.3383
  160MOL   C17341831   4.168   7.037   6.875 -0.1297 -0.0013 -0.0212
  160MOL   O17441832   4.230   6.934   6.860  0.0140 -0.2809 -1.4245
  160MOL   C17541833   4.237   7.142   6.958  0.1522  0.3063  0.2945
  160MOL   C17641834   4.007   6.988   6.606 -0.3990 -0.0329 -0.4907
  160MOL   H17741835   3.980   6.869   6.782  2.8701  0.1810 -0.4842
  160MOL   H17841836   4.026   7.161   6.843 -0.3137  0.7162 -3.0705
  160MOL   H17941837   4.332   7.112   7.004 -0.6450  0.0681  1.8281
  160MOL   H18041838   4.262   7.224   6.890 -0.9567  0.3297 -0.0848
  160MOL   H18141839   4.168   7.184   7.031 -1.7343 -2.3075  0.0572
  160MOL   H18241840   4.042   7.089   6.586 -1.4446 -0.0127 -2.3842
  160MOL   H18341841   4.094   6.923   6.600 -1.2824 -1.3766  0.7437
  160MOL   C18441842   3.924   6.926   6.492  0.5242 -0.1346 -0.2484
  160MOL   N18541843   3.883   6.784   6.503  0.4386 -0.5278 -0.2737
  160MOL   C18641844   3.966   6.678   6.528  0.8891  0.5435  0.0401
  160MOL   O18741845   4.089   6.683   6.518 -0.1173 -0.2611 -0.4549
  160MOL   C18841846   3.905   6.538   6.564  0.9623 -0.9961  0.8576
  160MOL   C18941847   3.980   6.946   6.352 -0.1168 -0.3956 -0.6556
  160MOL   H19041848   3.823   6.967   6.495 -0.0421 -1.4764 -0.7843
  160MOL   H19141849   3.787   6.755   6.492  0.6578 -0.3769 -3.0302
  160MOL   H19241850   3.969   6.452   6.585 -0.1132 -2.4816 -1.7255
  160MOL   H19341851   3.851   6.552   6.658  2.4856  0.7312  1.5021
  160MOL   H19441852   3.831   6.511   6.489  0.7064 -0.3695  0.8831
  160MOL   H19541853   4.082   6.910   6.338  0.0032 -0.7512  1.0562
  160MOL   H19641854   3.928   6.880   6.282 -1.1091 -0.6999  0.3519
  160MOL   C19741855   3.965   7.089   6.300 -0.6487  0.2495  0.0390
  160MOL   N19841856   3.827   7.129   6.281  0.4134 -0.0015  0.5887
  160MOL   C19941857   3.739   7.188   6.365 -1.0425  0.1763  0.2639
  160MOL   O20041858   3.764   7.215   6.481 -0.1694 -0.4740  0.2194
  160MOL   C20141859   3.594   7.206   6.328 -0.1868  0.2898 -0.3678
  160MOL   C20241860   4.036   7.115   6.168  0.1535 -0.1458 -0.1384
  160MOL   H20341861   4.008   7.170   6.360 -2.5072  0.6468  0.8740
  160MOL   H20441862   3.804   7.129   6.183 -0.4628  1.5075  0.7863
  160MOL   H20541863   3.576   7.313   6.344  0.3078  0.1437  1.1836
  160MOL   H20641864   3.568   7.177   6.226 -0.4045  2.4806 -0.9743
  160MOL   H20741865   3.528   7.152   6.396  0.8875 -1.3061 -0.6009
  160MOL   H20841866   3.978   7.065   6.091 -1.2996  0.0283  0.8178
  160MOL   H20941867   4.017   7.219   6.143  0.2649  0.3295  1.6458
  160MOL   C21041868   4.193   7.087   6.178  0.3008 -0.2046 -0.3310
  160MOL   N21141869   4.252   7.123   6.313 -0.5861  0.5066  0.3420
  160MOL   C21241870   4.264   7.245   6.366  0.5414 -0.6342  0.2505
  160MOL   O21341871   4.222   7.345   6.307  0.4625 -0.4050 -0.5077
  160MOL   C21441872   4.324   7.254   6.507  0.2158  0.4303  0.1624
  160MOL   C21541873   4.279   7.148   6.060 -0.7693  0.2408  0.2157
  160MOL   H21641874   4.209   6.980   6.173 -1.3647 -0.6186  2.2961
  160MOL   H21741875   4.287   7.045   6.367 -0.7292  0.0848 -0.1673
  160MOL   H21841876   4.242   7.247   6.578  1.0817 -1.9010  0.9914
  160MOL   H21941877   4.391   7.171   6.533  1.3858  1.2643 -0.1246
  160MOL   H22041878   4.383   7.344   6.524  0.2078  1.2062 -3.6095
  160MOL   H22141879   4.261   7.255   6.060  1.0468  0.5711  1.4098
  160MOL   H22241880   4.383   7.129   6.086 -0.4870 -0.3350 -1.2943
  160MOL   C22341881   4.248   7.088   5.920 -0.7057 -0.6751  0.9946
  160MOL   N22441882   4.226   6.951   5.914 -0.1630  0.0824  0.6321
  160MOL   C22541883   4.101   6.898   5.899 -0.1990 -0.4793  0.1987
  160MOL   O22641884   3.995   6.956   5.887  0.0366  0.1709 -0.3062
  160MOL   C22741885   4.105   6.752   5.927 -0.0413  0.6768  0.1175
  160MOL   C22841886   4.368   7.122   5.820  0.5898  0.5008  0.3978
  160MOL   H22941887   4.160   7.132   5.874 -0.0246  0.2565  0.5724
  160MOL   H23041888   4.308   6.894   5.903  0.1689  0.5602  0.6358
  160MOL   H23141889   4.169   6.702   5.855 -0.3298  0.4107  0.0452
  160MOL   H23241890   4.138   6.722   6.026  0.4239  0.3096 -0.1476
  160MOL   H23341891   4.006   6.707   5.920 -0.5416  1.6423  0.8781
  160MOL   H23441892   4.387   7.229   5.810  1.4716  0.3236  0.1355
  160MOL   H23541893   4.459   7.075   5.857 -0.0616 -1.0199  0.0967
  160MOL   C23641894   4.346   7.080   5.668  0.3822  0.6564 -0.3950
  160MOL   N23741895   4.463   7.012   5.625 -0.0034 -0.5539 -0.1501
  160MOL   C23841896   4.488   6.887   5.662  0.4546 -0.3723  0.5886
  160MOL   O23941897   4.426   6.830   5.755 -0.2215  0.4762  0.1462
  160MOL   C24041898   4.612   6.820   5.597 -0.6108 -0.2178 -0.4823
  160MOL   C24141899   4.304   7.199   5.573 -0.2838  0.2117 -0.1195
  160MOL   H24241900   4.265   7.008   5.670 -0.2670  1.3914  1.8910
  160MOL   H24341901   4.522   7.057   5.557  0.2191  0.4472  0.6908
  160MOL   H24441902   4.694   6.852   5.660  0.8467 -0.8467 -2.0213
  160MOL   H24541903   4.622   6.711   5.593  0.1871 -0.1289 -0.8487
  160MOL   H24641904   4.619   6.861   5.496 -0.8075 -0.4319 -0.5850
  160MOL   H24741905   4.208   7.235   5.611 -1.3420 -0.3641 -2.1684
  160MOL   H24841906   4.383   7.274   5.564  0.1827 -0.1678  0.7704
  160MOL   C24941907   4.256   7.161   5.431  0.4606  0.1325  0.3435
  160MOL   N25041908   4.201   7.281   5.360  0.1937 -1.0859  0.6393
  160MOL   C25141909   4.187   7.291   5.232 -0.3170 -0.4946  0.1587
  160MOL   O25241910   4.202   7.200   5.153 -0.9742 -0.2979 -0.1277
  160MOL   C25341911   4.142   7.431   5.178 -0.1192 -0.5502 -0.2658
  160MOL   C25441912   4.152   7.049   5.425 -0.1326  0.9697  0.8023
  160MOL   H25541913   4.346   7.134   5.375 -0.2032 -0.2010 -0.5798
  160MOL   H25641914   4.185   7.368   5.409 -1.9839 -1.7380  1.1340
  160MOL   H25741915   4.228   7.489   5.147 -0.7441  0.1029 -0.7970
  160MOL   H25841916   4.084   7.420   5.086 -1.3905 -2.1689  0.7014
  160MOL   H25941917   4.088   7.495   5.248 -2.4336 -1.8474 -0.7809
  160MOL   H26041918   4.060   7.077   5.476 -0.1420 -0.2230  1.4685
  160MOL   H26141919   4.134   7.023   5.320  0.5829  0.9631  0.6823
  160MOL   H26241920   4.192   6.959   5.473  1.6397  1.9694  1.2287
  161MOL     C141921   1.439   2.245   6.726  0.0410  0.2332 -0.2161
  161MOL     N241922   1.514   2.119   6.738  0.4234 -0.0526  0.2133
  161MOL     C341923   1.623   2.082   6.668 -1.0203  0.2870 -0.0323
  161MOL     O441924   1.680   1.976   6.693  0.1202  0.5198  0.2874
  161MOL     C541925   1.690   2.186   6.572 -0.0571 -0.6565 -0.1184
  161MOL     C641926   1.321   2.230   6.631 -0.9745  0.2042 -0.0115
  161MOL     H741927   1.404   2.284   6.822 -2.3006  1.2196 -1.4154
  161MOL     H841928   1.475   2.048   6.799 -2.0702  1.3621  0.3257
  161MOL     H941929   1.781   2.144   6.530 -1.3782 -1.3500 -2.4009
  161MOL    H1041930   1.626   2.218   6.489  1.3578  1.8472 -0.2787
  161MOL    H1141931   1.726   2.275   6.624 -1.0754 -0.3024  0.0044
  161MOL    H1241932   1.339   2.153   6.556  0.0538 -1.6875  2.1168
  161MOL    H1341933   1.245   2.179   6.691  0.0779 -0.8574  0.4248
  161MOL    H1441934   1.502   2.321   6.680 -1.9500  1.1731 -1.4706
  161MOL    C1541935   1.261   2.356   6.560 -0.5595 -0.6951 -0.1488
  161MOL    N1641936   1.191   2.434   6.657 -0.3045  0.2003 -0.2098
  161MOL    C1741937   1.252   2.503   6.752 -0.5935  0.8376 -0.3113
  161MOL    O1841938   1.373   2.529   6.756 -0.6972  0.6347 -0.1993
  161MOL    C1941939   1.164   2.571   6.859  0.3680  0.3103 -0.1757
  161MOL    C2041940   1.186   2.317   6.430 -0.3948  0.0060 -0.7306
  161MOL    H2141941   1.343   2.416   6.523 -0.1654 -0.0832  1.6908
  161MOL    H2241942   1.098   2.470   6.638 -0.2345  0.0368 -0.8872
  161MOL    H2341943   1.241   2.625   6.914 -0.2365  0.7289  0.2655
  161MOL    H2441944   1.095   2.646   6.820 -0.4076 -0.1215  0.3511
  161MOL    H2541945   1.126   2.509   6.940  0.3233  0.3321 -0.1807
  161MOL    H2641946   1.254   2.316   6.344  1.0353  0.8251  0.3680
  161MOL    H2741947   1.157   2.212   6.428 -1.6704  0.3167  0.7338
  161MOL    C2841948   1.059   2.389   6.392  0.4337  0.1427 -0.3060
  161MOL    N2941949   0.945   2.354   6.475 -0.1791 -0.5803  0.4865
  161MOL    C3041950   0.882   2.425   6.568  0.9326 -0.3273 -0.1179
  161MOL    O3141951   0.927   2.531   6.607 -0.0176  0.4548  0.4439
  161MOL    C3241952   0.760   2.352   6.634  0.7984  0.0347 -0.6537
  161MOL    C3341953   1.047   2.388   6.238 -0.2560  0.6680 -0.7032
  161MOL    H3441954   1.079   2.491   6.424  3.2458 -0.1172 -1.0610
  161MOL    H3541955   0.887   2.284   6.431  0.3216 -1.6206  1.4571
  161MOL    H3641956   0.678   2.321   6.569 -1.0368  0.9550  1.1631
  161MOL    H3741957   0.781   2.264   6.694 -0.2706  0.2053 -0.0234
  161MOL    H3841958   0.713   2.422   6.703 -0.0309  0.4384 -1.6126
  161MOL    H3941959   1.132   2.441   6.194 -0.5507 -0.1719 -2.3137
  161MOL    H4041960   1.062   2.289   6.196  0.7546  0.1680  0.7831
  161MOL    C4141961   0.924   2.446   6.174 -0.1492 -0.0384  0.4189
  161MOL    N4241962   0.837   2.350   6.107  0.0554  0.9643  0.4784
  161MOL    C4341963   0.781   2.245   6.166 -0.0510  0.3777  0.1160
  161MOL    O4441964   0.787   2.215   6.286  0.0741 -0.5375 -0.2701
  161MOL    C4541965   0.702   2.150   6.080 -0.4532 -0.4056 -0.2575
  161MOL    C4641966   0.942   2.555   6.068 -0.1886  0.1837  0.0312
  161MOL    H4741967   0.872   2.500   6.253  0.0663  0.0084  0.5282
  161MOL    H4841968   0.819   2.364   6.008 -0.6443 -0.9102  0.3080
  161MOL    H4941969   0.620   2.205   6.034  0.2872  1.0543  0.1111
  161MOL    H5041970   0.780   2.112   6.014  1.3965  1.6243  0.6880
  161MOL    H5141971   0.652   2.076   6.142  0.4724  0.1918  1.2381
  161MOL    H5241972   0.988   2.505   5.983 -0.2000  1.6746 -0.8688
  161MOL    H5341973   0.847   2.587   6.026 -1.1069  1.4682  2.9799
  161MOL    C5441974   1.023   2.681   6.105  0.1142  0.3451  0.8949
  161MOL    N5541975   0.996   2.729   6.244 -0.2230  0.5557  0.4615
  161MOL    C5641976   1.086   2.785   6.322 -0.9749 -0.1011  1.0372
  161MOL    O5741977   1.206   2.794   6.284  0.2625  0.4674 -0.1210
  161MOL    C5841978   1.036   2.821   6.463 -0.5136  0.1194 -0.4479
  161MOL    C5941979   1.024   2.791   5.992 -1.0351 -0.0309  0.6773
  161MOL    H6041980   1.127   2.649   6.106  0.3374  1.0337  2.8996
  161MOL    H6141981   0.899   2.718   6.273 -0.5983  0.2172 -0.8918
  161MOL    H6241982   0.946   2.763   6.484  0.7736 -1.3753  1.1389
  161MOL    H6341983   1.113   2.813   6.540 -1.5402  0.8861  0.6818
  161MOL    H6441984   1.014   2.928   6.471  0.3162  0.2150  0.7255
  161MOL    H6541985   1.093   2.863   6.036 -0.6210  0.0704 -0.1308
  161MOL    H6641986   1.080   2.757   5.905  0.9175  1.0671  1.4726
  161MOL    C6741987   0.893   2.865   5.958 -0.4536 -0.7403 -0.0049
  161MOL    N6841988   0.907   2.935   5.828 -0.7261  0.0082  0.3828
  161MOL    C6941989   0.908   2.873   5.706  0.9272 -0.0496 -0.1766
  161MOL    O7041990   0.870   2.753   5.696  0.3122  0.3560  0.1803
  161MOL    C7141991   0.969   2.944   5.594  0.1552  0.1743 -0.0296
  161MOL    C7241992   0.845   2.972   6.066  0.0875 -0.2696 -0.1566
  161MOL    H7341993   0.812   2.797   5.935 -1.3404  0.0335  0.7841
  161MOL    H7441994   0.919   3.035   5.825 -0.1090 -0.0280  1.2181
  161MOL    H7541995   1.025   3.034   5.619 -0.7301  1.3820 -2.2067
  161MOL    H7641996   1.033   2.882   5.530  1.7047  0.2608  1.4044
  161MOL    H7741997   0.899   2.971   5.514 -0.1629  0.9107  0.4971
  161MOL    H7841998   0.870   2.922   6.160 -1.7318 -0.0518  0.4621
  161MOL    H7941999   0.903   3.063   6.051 -0.7436 -0.0714 -2.3021
  161MOL    C8042000   0.699   3.007   6.060 -0.7695  0.7498  0.8808
  161MOL    N8142001   0.666   3.091   5.941 -0.4149 -0.4067 -1.0159
  161MOL    C8242002   0.546   3.099   5.877  0.2126 -0.1224  0.1820
  161MOL    O8342003   0.448   3.030   5.907  0.5610 -0.0491 -0.1834
  161MOL    C8442004   0.533   3.184   5.748 -0.3729  0.5947  0.0644
  161MOL    C8542005   0.666   3.098   6.179  0.4010  0.2087  0.2399
  161MOL    H8642006   0.629   2.923   6.068  1.3541 -0.9297  2.7955
  161MOL    H8742007   0.745   3.147   5.912 -0.0230  0.0876  0.8932
  161MOL    H8842008   0.598   3.156   5.666  0.4814  0.6668  0.7122
  161MOL    H8942009   0.433   3.159   5.714 -0.7773  0.8941  1.0033
  161MOL    H9042010   0.532   3.290   5.775 -1.0316  0.6485 -0.1583
  161MOL    H9142011   0.733   3.183   6.191  0.3553  0.4560 -1.0971
  161MOL    H9242012   0.572   3.147   6.150  0.2107  0.8629  1.9033
  161MOL    C9342013   0.671   3.031   6.316  0.1266  0.2511  0.2852
  161MOL    N9442014   0.585   2.907   6.317  0.1059 -0.8535 -0.3949
  161MOL    C9542015   0.619   2.775   6.310 -0.4984 -0.7234 -0.2744
  161MOL    O9642016   0.734   2.739   6.299  0.1035  0.8584 -0.0220
  161MOL    C9742017   0.505   2.675   6.334  0.7816  0.2336 -0.1943
  161MOL    C9842018   0.635   3.121   6.439 -0.1195  0.8122  0.3330
  161MOL    H9942019   0.768   2.987   6.338 -0.6994 -1.7293  0.0676
  161MOL   H10042020   0.489   2.934   6.334 -0.8107 -4.6551  0.8428
  161MOL   H10142021   0.437   2.667   6.249  0.7961  2.5413 -0.4505
  161MOL   H10242022   0.540   2.574   6.356  2.6246  0.9004  0.0366
  161MOL   H10342023   0.452   2.705   6.425 -3.0981  2.0484 -2.9103
  161MOL   H10442024   0.563   3.200   6.417 -0.4211  0.5774  0.4752
  161MOL   H10542025   0.577   3.051   6.500  0.2921 -0.1706 -0.3872
  161MOL   C10642026   0.753   3.171   6.515 -0.0597  0.0487 -0.0823
  161MOL   N10742027   0.713   3.221   6.643  0.3710  0.3044 -0.0733
  161MOL   C10842028   0.714   3.152   6.763  0.1657 -0.2796  0.1013
  161MOL   O10942029   0.765   3.044   6.785  0.0370  0.1653 -0.0066
  161MOL   C11042030   0.671   3.233   6.881  0.1867  0.7964  0.1445
  161MOL   C11142031   0.851   3.265   6.450  0.2952 -0.4580  0.5232
  161MOL   H11242032   0.802   3.076   6.537 -0.4094 -0.5425 -1.8228
  161MOL   H11342033   0.676   3.315   6.643  1.9753  0.9738 -2.1513
  161MOL   H11442034   0.614   3.167   6.947  0.4470  2.5049  2.1359
  161MOL   H11542035   0.752   3.281   6.937  0.5116  1.0309 -0.5252
  161MOL   H11642036   0.607   3.314   6.848  0.5213  0.3119 -1.7518
  161MOL   H11742037   0.949   3.257   6.496 -0.0307  1.2113  1.5335
  161MOL   H11842038   0.869   3.218   6.353  1.4586 -0.8836  0.9395
  161MOL   C11942039   0.816   3.412   6.442 -0.2981 -0.1899  0.6070
  161MOL   N12042040   0.676   3.445   6.398  0.3721  0.0148 -0.3543
  161MOL   C12142041   0.577   3.475   6.481 -0.7682 -0.4204 -0.5923
  161MOL   O12242042   0.584   3.458   6.600 -0.1318  0.7827 -0.2163
  161MOL   C12342043   0.443   3.523   6.433 -0.0214 -0.5672  0.2748
  161MOL   C12442044   0.920   3.472   6.350  0.4017 -0.0170 -0.2280
  161MOL   H12542045   0.825   3.457   6.541 -2.0345 -1.3163  1.2949
  161MOL   H12642046   0.661   3.482   6.306  0.5191 -0.2926 -0.5019
  161MOL   H12742047   0.407   3.463   6.349  0.5755 -1.3953  0.6034
  161MOL   H12842048   0.365   3.490   6.502 -0.2057 -0.0958  0.2934
  161MOL   H12942049   0.449   3.626   6.397  0.8919 -0.1533  1.5686
  161MOL   H13042050   1.013   3.420   6.371  0.6347  1.9388  4.3070
  161MOL   H13142051   0.890   3.441   6.250  1.0287  0.7592 -0.6576
  161MOL   C13242052   0.940   3.626   6.346 -0.1285  0.0995  0.3916
  161MOL   N13342053   1.009   3.674   6.228 -0.0750  0.3560  0.3420
  161MOL   C13442054   1.135   3.647   6.192 -0.1202  0.9637 -0.9231
  161MOL   O13542055   1.201   3.557   6.245  0.2132  0.2997  0.4675
  161MOL   C13642056   1.186   3.725   6.074  0.0305 -0.0008  0.1218
  161MOL   C13742057   0.996   3.693   6.468 -0.5732  0.1135  0.1173
  161MOL   H13842058   0.838   3.661   6.330 -0.5181 -2.6149 -3.9605
  161MOL   H13942059   0.962   3.745   6.173 -2.5409 -0.3059  1.5186
  161MOL   H14042060   1.195   3.832   6.092  0.8768  0.1235 -0.9641
  161MOL   H14142061   1.289   3.698   6.048  0.1020  0.9229 -0.5755
  161MOL   H14242062   1.118   3.711   5.990  1.1284 -0.8455 -0.6419
  161MOL   H14342063   0.952   3.655   6.560 -1.5649 -0.0153 -0.4010
  161MOL   H14442064   1.103   3.672   6.466 -0.6476 -0.1772 -0.8358
  161MOL   C14542065   0.957   3.839   6.462  0.3278 -0.0717 -0.2117
  161MOL   N14642066   1.070   3.906   6.520  0.0568  0.1792 -0.5717
  161MOL   C14742067   1.105   3.927   6.649  0.2480  0.6444  1.0145
  161MOL   O14842068   1.034   3.892   6.736 -0.1207  0.4999 -0.1101
  161MOL   C14942069   1.233   4.006   6.676  0.3265 -0.2453 -0.1073
  161MOL   C15042070   0.814   3.864   6.517  0.5134  0.2958 -0.3413
  161MOL   H15142071   0.946   3.874   6.359  1.3045  1.4305  0.1867
  161MOL   H15242072   1.123   3.959   6.452 -0.2198  1.8640  0.4954
  161MOL   H15342073   1.319   3.990   6.610  0.9816  0.3594  0.5814
  161MOL   H15442074   1.197   4.109   6.674 -1.8070 -0.9715  0.0203
  161MOL   H15542075   1.270   3.987   6.777 -2.6534 -0.2596  1.0110
  161MOL   H15642076   0.739   3.800   6.470  0.0302  0.5397  0.0953
  161MOL   H15742077   0.805   3.842   6.623  0.1931 -1.3616 -0.6988
  161MOL   C15842078   0.764   4.013   6.486  0.8256 -0.8209 -0.3040
  161MOL   N15942079   0.712   4.071   6.612  0.1563 -0.9510 -0.0192
  161MOL   C16042080   0.765   4.175   6.677 -0.0251  0.4093 -0.4584
  161MOL   O16142081   0.839   4.250   6.613 -0.4246  0.4395 -0.3911
  161MOL   C16242082   0.721   4.206   6.821 -0.1367  0.2151  0.4769
  161MOL   C16342083   0.652   4.017   6.382 -0.2037 -0.3363  0.3439
  161MOL   H16442084   0.841   4.081   6.449 -1.6636  1.0660 -2.2201
  161MOL   H16542085   0.633   4.023   6.650 -0.2568 -1.7799 -1.8645
  161MOL   H16642086   0.616   4.194   6.850 -0.7783 -0.0907 -1.8252
  161MOL   H16742087   0.763   4.132   6.889 -0.5532 -0.7553 -0.2950
  161MOL   H16842088   0.762   4.297   6.863 -0.2404  0.5622 -0.1609
  161MOL   H16942089   0.567   3.962   6.424 -0.8355  0.4667  0.1257
  161MOL   H17042090   0.625   4.122   6.372 -0.3301 -0.4516 -0.5744
  161MOL   C17142091   0.680   3.961   6.235  0.1850  0.4116  0.4159
  161MOL   N17242092   0.788   4.037   6.169  0.1478  0.0749 -0.1377
  161MOL   C17342093   0.861   3.979   6.070 -0.0729  0.0015 -0.4303
  161MOL   O17442094   0.867   3.856   6.054 -1.2567  0.4280  0.3859
  161MOL   C17542095   0.936   4.064   5.980 -0.1038 -0.0461  0.0532
  161MOL   C17642096   0.550   3.971   6.151  0.2262  0.2040 -0.6019
  161MOL   H17742097   0.715   3.858   6.243 -0.2184  0.1771 -0.8138
  161MOL   H17842098   0.778   4.137   6.164 -4.3053 -0.2510  0.3687
  161MOL   H17942099   1.025   4.006   5.957  0.4195 -0.0864  2.1422
  161MOL   H18042100   0.876   4.086   5.891 -1.1060 -0.9795  0.4835
  161MOL   H18142101   0.968   4.153   6.035 -1.4973  1.9401 -2.2005
  161MOL   H18242102   0.506   4.063   6.188  1.9218  0.1377  1.7432
  161MOL   H18342103   0.576   3.987   6.047  2.6706  2.4823  0.3021
  161MOL   C18442104   0.452   3.848   6.159 -0.1722  0.4072  0.5412
  161MOL   N18542105   0.495   3.748   6.062  0.1935 -0.4682 -0.2368
  161MOL   C18642106   0.591   3.658   6.081  0.4482  0.8643 -0.7385
  161MOL   O18742107   0.630   3.625   6.194  0.4470 -0.0500  0.5629
  161MOL   C18842108   0.662   3.607   5.959  0.1597 -0.2664  0.2546
  161MOL   C18942109   0.304   3.875   6.129 -0.3594  0.3664  0.0917
  161MOL   H19042110   0.458   3.800   6.257 -1.7201 -1.7685 -0.3747
  161MOL   H19142111   0.477   3.775   5.966  1.3128 -0.3860 -0.4340
  161MOL   H19242112   0.583   3.561   5.900  1.5201 -3.4773  0.8110
  161MOL   H19342113   0.714   3.686   5.905 -0.3583  0.5306  0.9212
  161MOL   H19442114   0.733   3.529   5.988 -1.6057 -2.3542 -0.9139
  161MOL   H19542115   0.278   3.971   6.173 -0.8321 -0.4804  1.7240
  161MOL   H19642116   0.289   3.903   6.025 -2.1401  0.4967  0.3782
  161MOL   C19742117   0.197   3.767   6.161  0.5025  0.0272  0.6856
  161MOL   N19842118   0.100   3.742   6.051 -0.0302  0.6312  0.1988
  161MOL   C19942119   0.005   3.820   5.992  0.7233  0.5668  0.5544
  161MOL   O20042120   7.816   3.931   6.031  0.2683 -0.3406  0.3892
  161MOL   C20142121   7.766   3.764   5.876  0.8914  0.0163 -0.1130
  161MOL   C20242122   0.119   3.800   6.294 -0.7157 -0.4957  0.1471
  161MOL   H20342123   0.243   3.669   6.173 -0.3767 -0.7613 -2.0430
  161MOL   H20442124   0.119   3.659   5.997 -1.1047 -0.0194  0.7881
  161MOL   H20542125   7.726   3.663   5.886  0.8224 -0.1599 -2.1187
  161MOL   H20642126   7.687   3.833   5.848  0.0503 -0.1907  1.6662
  161MOL   H20742127   7.836   3.768   5.793  0.6110  2.0258 -0.2767
  161MOL   H20842128   0.193   3.783   6.373  0.8914  2.2104 -0.7202
  161MOL   H20942129   0.099   3.907   6.298 -0.4463 -0.3964 -0.9954
  161MOL   C21042130   7.834   3.728   6.332  0.0285  0.1430 -0.5883
  161MOL   N21142131   7.787   3.776   6.469 -0.4087 -0.3116 -0.0235
  161MOL   C21242132   7.659   3.786   6.511 -0.1345 -0.0590 -0.3286
  161MOL   O21342133   7.567   3.782   6.430  0.0327  0.6812 -0.1759
  161MOL   C21442134   7.637   3.813   6.660 -0.3648  0.0124 -0.1281
  161MOL   C21542135   0.019   3.575   6.345  0.1765  0.3291  0.4665
  161MOL   H21642136   7.759   3.753   6.257 -0.2613 -1.7408 -0.9358
  161MOL   H21742137   0.020   3.790   6.538  0.3566  0.2852 -0.9353
  161MOL   H21842138   7.538   3.772   6.681  0.3539 -0.3123  2.8332
  161MOL   H21942139   7.710   3.770   6.727  1.5200  1.7652 -1.0051
  161MOL   H22042140   7.632   3.917   6.692  0.6140 -0.1279  0.4875
  161MOL   H22142141   0.112   3.546   6.295 -0.0289  1.3308 -0.5353
  161MOL   H22242142   0.050   3.559   6.448 -1.7935  0.4957  1.0966
  161MOL   C22342143   7.736   3.477   6.321 -0.3535 -0.4789  0.2043
  161MOL   N22442144   7.780   3.343   6.368 -0.0826 -0.9328 -0.6363
  161MOL   C22542145   7.743   3.287   6.486 -0.3198  0.2354 -0.2440
  161MOL   O22642146   7.683   3.341   6.577 -0.5169  0.0812  0.4106
  161MOL   C22742147   7.777   3.137   6.497  0.6651 -0.1075  0.9525
  161MOL   C22842148   7.693   3.471   6.171 -0.0700  0.0359 -0.4336
  161MOL   H22942149   7.654   3.515   6.382 -1.3390 -1.3991 -0.5378
  161MOL   H23042150   7.840   3.295   6.302  1.0512 -0.3366 -0.0523
  161MOL   H23142151   0.021   3.106   6.434  0.8226 -1.1070  1.6382
  161MOL   H23242152   7.790   3.090   6.594 -1.1437 -0.4266  1.0627
  161MOL   H23342153   7.689   3.094   6.448  1.6552  1.4758 -2.4177
  161MOL   H23442154   7.667   3.571   6.135  1.2780  0.1439 -1.1671
  161MOL   H23542155   7.780   3.434   6.115 -1.3595 -1.3302 -1.5833
  161MOL   C23642156   7.568   3.371   6.151 -0.0535 -0.2634 -0.0288
  161MOL   N23742157   7.572   3.307   6.022 -0.5949 -0.1256  0.0906
  161MOL   C23842158   7.650   3.204   5.983 -0.4511  0.1077 -0.0382
  161MOL   O23942159   7.756   3.168   6.034  0.3089  0.5056  0.3897
  161MOL   C24042160   7.606   3.134   5.857  0.8535  0.3568  0.4041
  161MOL   C24142161   7.432   3.446   6.154  0.4414  0.3894  1.1745
  161MOL   H24242162   7.560   3.288   6.222  0.4909  0.6922  1.1814
  161MOL   H24342163   7.489   3.311   5.965 -1.0320  2.4042  0.8268
  161MOL   H24442164   7.607   3.025   5.864 -0.1787  0.2513 -0.8936
  161MOL   H24542165   7.513   3.169   5.812  0.5319 -0.4092  0.4491
  161MOL   H24642166   7.680   3.157   5.781 -0.2114  0.0054 -0.7630
  161MOL   H24742167   7.449   3.530   6.221 -1.6198  1.1518  0.7646
  161MOL   H24842168   7.423   3.486   6.053 -0.1207 -0.7738  0.7577
  161MOL   C24942169   7.307   3.364   6.194  0.5087  0.1017 -0.2364
  161MOL   N25042170   7.341   3.295   6.316  0.1838 -0.3071  0.0768
  161MOL   C25142171   7.276   3.287   6.427  0.3785 -0.3701 -0.6888
  161MOL   O25242172   7.162   3.319   6.444 -0.0746 -0.2218 -0.1680
  161MOL   C25342173   7.357   3.239   6.546  0.5489 -0.6351 -0.2710
  161MOL   C25442174   7.270   3.255   6.087  0.5463 -0.3624  0.3654
  161MOL   H25542175   7.224   3.433   6.208 -1.3606 -2.0445 -0.4405
  161MOL   H25642176   7.435   3.258   6.325  0.5798  0.6175 -0.1425
  161MOL   H25742177   7.414   3.313   6.602  0.1269  0.5197 -1.3565
  161MOL   H25842178   7.287   3.201   6.621  1.1918 -1.4369 -0.0778
  161MOL   H25942179   7.422   3.154   6.527  0.4212 -0.9112  0.4976
  161MOL   H26042180   7.268   3.295   5.986 -0.9949 -0.2970  0.4124
  161MOL   H26142181   7.325   3.161   6.099 -0.6908 -1.3209 -1.2632
  161MOL   H26242182   7.171   3.213   6.106  0.2962  0.3867  0.7188
  162MOL     C142183   1.269   7.779   1.728 -0.7447 -0.1879 -0.8411
  162MOL     N242184   1.316   0.020   1.842  0.0187  0.3100  0.4950
  162MOL     C342185   1.318   7.818   1.970  0.1747 -0.3302 -0.6971
  162MOL     O442186   1.259   7.721   2.009 -0.6249 -0.8023 -0.0762
  162MOL     C542187   1.392   0.056   2.077 -0.2828  0.2258  0.5446
  162MOL     C642188   1.291   7.831   1.593  0.2407  0.0074 -0.4405
  162MOL     H742189   1.328   7.689   1.739  1.2512  1.1781 -0.2236
  162MOL     H842190   1.350   0.112   1.814 -0.4152 -0.4141 -2.6600
  162MOL     H942191   1.333   0.067   2.168  0.5940 -1.3747  1.3246
  162MOL    H1042192   1.479   7.839   2.112 -0.1888  0.6913  1.0734
  162MOL    H1142193   1.425   0.152   2.038 -2.3456  0.3698 -0.9360
  162MOL    H1242194   1.357   0.077   1.605 -2.1972  1.7115  1.5282
  162MOL    H1342195   1.329   7.751   1.530  0.0159 -0.9226  0.5738
  162MOL    H1442196   1.170   7.736   1.742  0.2110 -1.7242  1.5292
  162MOL    C1542197   1.159   0.036   1.520  0.1939 -0.0700  0.2087
  162MOL    N1642198   1.172   0.011   1.371  0.4404  0.6741  0.6197
  162MOL    C1742199   1.274   0.055   1.297 -0.1644  0.2293 -0.1610
  162MOL    O1842200   1.371   0.118   1.339  0.4546 -0.3409  0.0980
  162MOL    C1942201   1.262   0.014   1.152 -0.0572  0.3879  0.4856
  162MOL    C2042202   1.116   0.177   1.539  0.5124 -0.1775  0.0432
  162MOL    H2142203   1.075   7.813   1.550 -0.5778 -0.2710 -2.2705
  162MOL    H2242204   1.105   7.791   1.325  0.8936  0.9911 -0.4750
  162MOL    H2342205   1.338   0.060   1.089  0.1424  0.6837  0.9387
  162MOL    H2442206   1.264   7.749   1.121 -2.7757  0.6807 -0.7833
  162MOL    H2542207   1.167   0.054   1.116 -0.6181 -0.2670  1.2229
  162MOL    H2642208   1.195   0.236   1.493  0.7522  0.3476  1.1178
  162MOL    H2742209   1.024   0.195   1.483  0.2200  1.8867  1.1319
  162MOL    C2842210   1.075   0.226   1.677 -0.6558  0.1478  0.6449
  162MOL    N2942211   0.999   0.129   1.753  0.3157  0.1283 -0.0615
  162MOL    C3042212   0.871   0.098   1.753  0.2144  0.2475  0.1401
  162MOL    O3142213   0.783   0.158   1.687 -0.2749 -0.3864  0.5810
  162MOL    C3242214   0.830   7.821   1.844  0.3677  0.3009  1.2303
  162MOL    C3342215   1.002   0.363   1.670  0.7244  0.0869 -0.1088
  162MOL    H3442216   1.174   0.237   1.721  0.6548 -3.9507 -1.0076
  162MOL    H3542217   1.059   0.065   1.804 -1.3865 -0.3705  1.3388
  162MOL    H3642218   0.895   7.804   1.931  1.2641 -0.7762  0.3778
  162MOL    H3742219   0.734   7.836   1.893  0.2638 -1.3963  1.6078
  162MOL    H3842220   0.809   7.725   1.797  0.8122 -0.0427  1.7131
  162MOL    H3942221   1.045   0.410   1.581 -0.6005  0.7238 -0.4342
  162MOL    H4042222   0.897   0.362   1.640  0.8004 -1.1202 -0.3464
  162MOL    C4142223   1.032   0.458   1.791  0.1050  0.5305 -0.1701
  162MOL    N4242224   0.989   0.401   1.917  0.0317  1.1578 -0.6518
  162MOL    C4342225   1.076   0.332   1.996  0.0259  0.7170 -0.0270
  162MOL    O4442226   1.190   0.307   1.963  0.1472  0.0882  0.2028
  162MOL    C4542227   1.025   0.275   2.128 -0.1049 -0.0186 -0.2309
  162MOL    C4642228   0.958   0.591   1.788  0.3910 -0.2925  0.1843
  162MOL    H4742229   1.140   0.475   1.789  0.1268  1.1013  3.4664
  162MOL    H4842230   0.895   0.418   1.949  0.4174  2.7266 -0.3136
  162MOL    H4942231   0.943   0.207   2.106 -0.0769  0.3647 -1.5914
  162MOL    H5042232   1.108   0.236   2.187 -0.3398  0.7992  0.6494
  162MOL    H5142233   0.981   0.358   2.183  0.6630  0.4856 -0.3603
  162MOL    H5242234   0.850   0.576   1.785 -0.2357  3.5470  0.0564
  162MOL    H5342235   0.986   0.646   1.878  3.2967  0.5505 -1.1655
  162MOL    C5442236   1.008   0.678   1.666  0.1078  0.7656  0.7525
  162MOL    N5542237   1.151   0.711   1.667 -0.0125 -0.0545 -0.0732
  162MOL    C5642238   1.244   0.657   1.587  1.0745  0.2920 -0.3883
  162MOL    O5742239   1.220   0.577   1.493 -0.0079  0.2587  0.1217
  162MOL    C5842240   1.385   0.704   1.619 -0.2104 -0.7475  0.7862
  162MOL    C5942241   0.927   0.810   1.652 -0.2355 -0.0590  0.0840
  162MOL    H6042242   0.977   0.605   1.591  1.7869  1.1709 -0.3611
  162MOL    H6142243   1.174   0.784   1.733  0.5889 -0.9281  0.6982
  162MOL    H6242244   1.452   0.647   1.684 -0.3237 -0.2438  1.3541
  162MOL    H6342245   1.442   0.722   1.529  1.1689 -1.3193  1.5359
  162MOL    H6442246   1.389   0.805   1.662  2.2147  0.0936 -1.3506
  162MOL    H6542247   0.828   0.784   1.689  0.0888  0.5426  1.4191
  162MOL    H6642248   0.973   0.889   1.710  1.9295 -1.2000 -0.0113
  162MOL    C6742249   0.900   0.863   1.515  0.2476  0.5805  0.3432
  162MOL    N6842250   0.861   0.757   1.421 -0.4078 -0.8808  0.5046
  162MOL    C6942251   0.733   0.725   1.391  0.3276 -0.3887  0.2328
  162MOL    O7042252   0.636   0.755   1.459  1.2948  0.7564  0.0578
  162MOL    C7142253   0.713   0.643   1.269 -0.2160  0.2168  0.1321
  162MOL    C7242254   1.019   0.943   1.447  0.0722  0.4759 -0.2188
  162MOL    H7342255   0.811   0.924   1.529 -1.6096 -1.6594 -1.3389
  162MOL    H7442256   0.933   0.724   1.359  0.1749 -0.3342  0.8824
  162MOL    H7542257   0.794   0.652   1.197  0.6947  0.3186  1.1499
  162MOL    H7642258   0.697   0.538   1.290 -2.3963  0.2223 -1.3097
  162MOL    H7742259   0.628   0.668   1.206  1.2237 -0.0672 -1.9599
  162MOL    H7842260   1.112   0.891   1.471  0.1922  1.0310  0.5414
  162MOL    H7942261   1.021   0.943   1.338 -0.8538  0.8211 -0.2450
  162MOL    C8042262   1.044   1.088   1.496  0.2228  0.4864  0.6570
  162MOL    N8142263   0.931   1.181   1.473  0.2923  0.1370 -0.2428
  162MOL    C8242264   0.848   1.212   1.572  0.1462  0.5740  0.3762
  162MOL    O8342265   0.834   1.158   1.680 -0.6544  0.7558 -0.8217
  162MOL    C8442266   0.764   1.338   1.544 -0.2732 -0.1910 -0.7571
  162MOL    C8542267   1.166   1.150   1.432 -0.3236  0.9572 -0.3308
  162MOL    H8642268   1.062   1.087   1.604 -1.9707  3.1320  1.1150
  162MOL    H8742269   0.927   1.219   1.380  2.7760 -0.6641 -0.7419
  162MOL    H8842270   0.825   1.410   1.489  0.9821 -1.3287 -0.8617
  162MOL    H8942271   0.684   1.309   1.475 -1.6566  0.1880  0.6618
  162MOL    H9042272   0.727   1.392   1.631  0.1237 -0.1682 -0.6025
  162MOL    H9142273   1.189   1.097   1.340  0.5567  0.0660  0.3835
  162MOL    H9242274   1.156   1.257   1.415 -0.1890  0.9904 -0.2000
  162MOL    C9342275   1.299   1.143   1.526  0.8391  0.1249  0.1520
  162MOL    N9442276   1.280   1.194   1.658  0.5297 -0.0698  0.2049
  162MOL    C9542277   1.261   1.135   1.777  0.4820  1.2252  0.3418
  162MOL    O9642278   1.249   1.018   1.778 -0.3837  0.2523  0.0894
  162MOL    C9742279   1.248   1.223   1.907  0.3820  0.5073  0.0526
  162MOL    C9842280   1.417   1.213   1.458  0.6518  0.0857 -0.1092
  162MOL    H9942281   1.306   1.035   1.534  0.2203  0.0057 -0.7506
  162MOL   H10042282   1.281   1.294   1.667  0.0736 -0.1036  0.6262
  162MOL   H10142283   1.151   1.208   1.955 -0.1388  0.7102 -0.9136
  162MOL   H10242284   1.339   1.199   1.960  1.1415  0.3509 -1.3021
  162MOL   H10342285   1.252   1.326   1.871 -0.9024  0.3564 -0.5766
  162MOL   H10442286   1.381   1.313   1.435  0.3525 -0.2301 -1.0753
  162MOL   H10542287   1.490   1.237   1.535 -2.1205  0.0051  2.6337
  162MOL   C10642288   1.484   1.149   1.346 -0.2445  1.0495  0.9030
  162MOL   N10742289   1.582   1.060   1.401 -0.3931  0.3695  0.3138
  162MOL   C10842290   1.600   0.926   1.373  0.0732 -0.1712 -0.0869
  162MOL   O10942291   1.522   0.858   1.309  0.5847  0.6050 -0.3969
  162MOL   C11042292   1.722   0.863   1.439 -0.6840  0.5067 -0.1420
  162MOL   C11142293   1.538   1.252   1.241  0.1867  0.5692 -0.5098
  162MOL   H11242294   1.411   1.092   1.289  1.6099 -0.6018  0.1130
  162MOL   H11342295   1.665   1.108   1.434  0.4556  0.1937 -1.4985
  162MOL   H11442296   1.816   0.915   1.420 -0.4027 -0.8371 -2.6157
  162MOL   H11542297   1.706   0.853   1.547 -2.0217 -1.2539 -0.4885
  162MOL   H11642298   1.717   0.761   1.401 -0.7215  1.1129 -1.7722
  162MOL   H11742299   1.452   1.308   1.205 -0.9469 -0.1309  1.0416
  162MOL   H11842300   1.608   1.322   1.286 -0.4521  0.6749  0.3124
  162MOL   C11942301   1.606   1.199   1.118  1.0554  0.3371  0.3495
  162MOL   N12042302   1.700   1.297   1.062  0.1692 -0.6273  0.4200
  162MOL   C12142303   1.655   1.404   1.001  0.7626 -0.5832 -0.1580
  162MOL   O12242304   1.538   1.423   0.981  0.1008 -0.2645 -0.1941
  162MOL   C12342305   1.753   1.504   0.948 -0.6901 -0.0695  0.2646
  162MOL   C12442306   1.506   1.127   1.020  0.1787 -0.0991 -0.6588
  162MOL   H12542307   1.671   1.117   1.149  0.5030 -0.4647 -0.5484
  162MOL   H12642308   1.800   1.285   1.075  0.0154 -1.8754  0.5211
  162MOL   H12742309   1.723   1.573   0.869  0.7541  0.8321  0.4813
  162MOL   H12842310   1.782   1.572   1.028 -0.9300 -0.4578  0.6824
  162MOL   H12942311   1.834   1.445   0.906 -0.8233 -0.2128  0.2111
  162MOL   H13042312   1.487   1.029   1.064 -0.6062  1.3841  2.4189
  162MOL   H13142313   1.408   1.172   1.033 -0.3007 -0.5125 -2.7793
  162MOL   C13242314   1.551   1.111   0.874 -0.4003  0.2264 -0.2295
  162MOL   N13342315   1.444   1.034   0.799 -0.0841  0.1246 -0.4804
  162MOL   C13442316   1.418   1.059   0.669  1.0934  0.4774 -0.2995
  162MOL   O13542317   1.487   1.124   0.592  0.3242 -0.4580 -0.2701
  162MOL   C13642318   1.281   1.009   0.630  0.2674 -0.0911 -0.5676
  162MOL   C13742319   1.675   1.026   0.869 -0.0781 -0.2289  0.3136
  162MOL   H13842320   1.565   1.214   0.839 -0.5836  0.3087 -0.0600
  162MOL   H13942321   1.378   0.975   0.847 -0.7819  0.9199 -0.4581
  162MOL   H14042322   1.256   1.049   0.532  0.5715 -2.7995 -1.7883
  162MOL   H14142323   1.272   0.901   0.628  1.2466 -0.3327  3.1568
  162MOL   H14242324   1.204   1.063   0.686  0.6613  0.4274 -0.5241
  162MOL   H14342325   1.744   1.054   0.949  2.6599 -1.1847 -1.6662
  162MOL   H14442326   1.664   0.918   0.877 -0.5264 -0.2456 -0.5004
  162MOL   C14542327   1.763   1.038   0.745  0.3843 -0.6233 -0.0891
  162MOL   N14642328   1.888   0.961   0.760 -0.2908  0.5422 -0.1847
  162MOL   C14742329   1.920   0.833   0.730  0.4256  0.6530 -0.3175
  162MOL   O14842330   1.836   0.751   0.687  0.0738  0.4237 -0.5432
  162MOL   C14942331   2.065   0.805   0.746 -0.0142  0.1721  0.3364
  162MOL   C15042332   1.791   1.186   0.697 -0.7995 -0.7772  0.2559
  162MOL   H15142333   1.711   0.998   0.658 -0.0949  1.4383 -0.7995
  162MOL   H15242334   1.970   1.017   0.781 -1.0344  0.8070  2.2786
  162MOL   H15342335   2.100   0.783   0.645 -1.0174 -0.3255  0.0796
  162MOL   H15442336   2.121   0.890   0.785 -0.6122  1.1196 -0.8262
  162MOL   H15542337   2.077   0.725   0.819  0.5543 -0.1390 -0.0965
  162MOL   H15642338   1.699   1.231   0.662 -0.4167 -2.2207 -2.7610
  162MOL   H15742339   1.815   1.250   0.782  3.8453 -0.6231 -1.0299
  162MOL   C15842340   1.898   1.197   0.592  0.1058  0.4240 -0.2095
  162MOL   N15942341   1.925   1.338   0.579  0.1177 -0.5543  0.6154
  162MOL   C16042342   2.010   1.418   0.648  0.0341 -0.1229 -0.6730
  162MOL   O16142343   2.079   1.386   0.742 -0.3461 -0.3043 -0.0869
  162MOL   C16242344   2.023   1.562   0.597 -0.2465  0.7980  0.0569
  162MOL   C16342345   1.848   1.136   0.456 -0.0473 -0.0435 -0.0135
  162MOL   H16442346   1.986   1.162   0.646  0.6661 -0.2822 -1.5775
  162MOL   H16542347   1.871   1.390   0.511 -0.9096 -0.1395  1.7318
  162MOL   H16642348   1.924   1.601   0.574 -0.1824 -0.0664 -1.7714
  162MOL   H16742349   2.070   1.636   0.662  0.8728  0.1795 -0.0340
  162MOL   H16842350   2.078   1.566   0.503  1.0322  1.3417  0.8128
  162MOL   H16942351   1.847   1.028   0.470  0.7567  0.1235  1.5071
  162MOL   H17042352   1.743   1.155   0.432 -0.8961 -0.5839  2.9541
  162MOL   C17142353   1.942   1.173   0.343 -0.1159 -0.2801 -0.0981
  162MOL   N17242354   1.921   1.308   0.290  0.5399  0.2443  0.5532
  162MOL   C17342355   2.027   1.378   0.246  0.4096  0.0613 -0.8386
  162MOL   O17442356   2.140   1.331   0.232  0.1514  0.0261 -0.6679
  162MOL   C17542357   2.008   1.519   0.202 -0.1260  0.6951  0.0107
  162MOL   C17642358   1.938   1.075   0.228  0.9087  0.4837  0.4742
  162MOL   H17742359   2.037   1.163   0.397  0.4367  0.1021 -0.9881
  162MOL   H17842360   1.838   1.360   0.316  0.0469 -0.1365 -0.2502
  162MOL   H17942361   1.957   1.523   0.106  1.2026 -1.2320 -0.7937
  162MOL   H18042362   1.958   1.584   0.274  0.5384  1.0708  0.1383
  162MOL   H18142363   2.105   1.568   0.193  0.5136 -0.6269 -0.4120
  162MOL   H18242364   1.836   1.036   0.218  2.0128 -3.1305  2.2778
  162MOL   H18342365   1.967   1.124   0.135  0.4021 -1.3058 -0.6566
  162MOL   C18442366   2.037   0.958   0.238  0.3972 -0.3477  0.8129
  162MOL   N18542367   2.172   1.001   0.229  0.0941  0.4394 -0.3086
  162MOL   C18642368   2.249   1.023   0.338  0.5321  0.0622  0.2018
  162MOL   O18742369   2.213   0.992   0.453  0.1073 -0.9202  0.0409
  162MOL   C18842370   2.378   1.100   0.311  0.1499 -0.2544  0.2757
  162MOL   C18942371   2.006   0.853   0.126  0.3784 -0.5353 -0.0632
  162MOL   H19042372   2.013   0.904   0.330  1.2384  0.2022  1.3577
  162MOL   H19142373   2.188   1.053   0.144 -2.9437  2.3964  0.2051
  162MOL   H19242374   2.437   1.043   0.240  1.5988  0.1642  1.1083
  162MOL   H19342375   2.357   1.195   0.263  0.6086 -0.9719 -1.3753
  162MOL   H19442376   2.425   1.134   0.404 -1.0734 -0.2121  0.8862
  162MOL   H19542377   1.904   0.822   0.149 -0.0604  0.2858 -0.8958
  162MOL   H19642378   2.017   0.909   0.034  0.9978 -0.5008  0.0229
  162MOL   C19742379   2.097   0.729   0.115 -0.1462  0.3732  0.2593
  162MOL   N19842380   2.104   0.684   7.811  0.4904  0.3654 -0.1706
  162MOL   C19942381   2.197   0.614   7.755 -0.1920 -0.4141  0.2401
  162MOL   O20042382   2.301   0.563   7.807 -0.1367 -0.3860 -0.1715
  162MOL   C20142383   2.181   0.612   7.600 -0.0965 -0.0824 -0.1130
  162MOL   C20242384   2.050   0.614   0.199  0.3388  0.0006 -0.0528
  162MOL   H20342385   2.198   0.753   0.148  0.0441 -1.3108  0.9617
  162MOL   H20442386   2.034   0.731   7.756 -0.4826  1.1974  1.7432
  162MOL   H20542387   2.085   0.566   7.577 -0.6383  0.6510  0.6631
  162MOL   H20642388   2.186   0.712   7.557  1.3995 -1.3805 -3.1695
  162MOL   H20742389   2.259   0.544   7.565  2.7789  2.6112  0.8363
  162MOL   H20842390   1.959   0.570   0.157 -0.3036 -1.2043  2.4951
  162MOL   H20942391   2.106   0.524   0.171  1.3011  0.4464  0.4200
  162MOL   C21042392   2.046   0.627   0.354  0.1525 -0.3611 -0.7468
  162MOL   N21142393   2.170   0.680   0.409 -0.9421 -0.1179  0.0653
  162MOL   C21242394   2.288   0.627   0.433 -0.4105 -0.7426  0.2197
  162MOL   O21342395   2.308   0.511   0.384  0.0850 -0.0484  0.1447
  162MOL   C21442396   2.397   0.714   0.480 -0.5062 -0.1700 -0.7447
  162MOL   C21542397   1.994   0.498   0.422  0.2110 -0.0468  0.2611
  162MOL   H21642398   1.970   0.703   0.374  0.7584  0.7394 -2.4849
  162MOL   H21742399   2.157   0.768   0.457 -0.1204 -1.2500  2.4398
  162MOL   H21842400   2.360   0.778   0.561  0.5859 -1.3284  0.6983
  162MOL   H21942401   2.464   0.653   0.541  0.9379  1.2266 -0.9162
  162MOL   H22042402   2.447   0.764   0.397 -0.7774  0.5840 -0.4646
  162MOL   H22142403   2.055   0.412   0.395  0.6220  0.8436 -1.7028
  162MOL   H22242404   2.018   0.514   0.527  0.7065 -0.7068  0.2492
  162MOL   C22342405   1.843   0.473   0.397  0.1084  0.1753 -0.0517
  162MOL   N22442406   1.762   0.591   0.422 -0.4945  0.1536 -0.1672
  162MOL   C22542407   1.656   0.641   0.362  0.4605  0.1040  0.1698
  162MOL   O22642408   1.632   0.606   0.244 -0.0552 -0.0070 -0.3555
  162MOL   C22742409   1.589   0.763   0.428  0.2892 -0.3340  0.3502
  162MOL   C22842410   1.791   0.366   0.498  0.3930 -0.2060  0.6526
  162MOL   H22942411   1.833   0.447   0.292 -2.4214 -0.3664  0.2900
  162MOL   H23042412   1.798   0.644   0.501 -0.4717  0.1754 -0.1919
  162MOL   H23142413   1.483   0.783   0.416  1.1024  2.8377 -2.3181
  162MOL   H23242414   1.611   0.758   0.535 -1.4176 -1.2498  0.6737
  162MOL   H23342415   1.630   0.858   0.394 -1.6838  0.7620  0.9436
  162MOL   H23442416   1.867   0.287   0.499  2.5438  1.7974  1.0459
  162MOL   H23542417   1.791   0.417   0.594  2.1452 -1.4173  1.3316
  162MOL   C23642418   1.651   0.300   0.465  0.7367  0.0769  0.1980
  162MOL   N23742419   1.603   0.248   0.591  0.5422 -0.3406  0.1267
  162MOL   C23842420   1.478   0.260   0.637  0.2647  0.0950 -0.5637
  162MOL   O23942421   1.388   0.308   0.573  0.0060 -0.1229  0.2969
  162MOL   C24042422   1.465   0.220   0.781 -0.5240 -0.3155 -0.2475
  162MOL   C24142423   1.643   0.188   0.360  0.5491 -0.4897  0.3990
  162MOL   H24242424   1.585   0.375   0.423  1.0717  0.8672  1.0769
  162MOL   H24342425   1.670   0.221   0.661  0.2145  3.5409  2.0261
  162MOL   H24442426   1.459   0.305   0.849 -0.4788 -1.5271  1.2807
  162MOL   H24542427   1.364   0.178   0.782  0.5636 -3.0219  1.1267
  162MOL   H24642428   1.544   0.148   0.799 -0.3445 -0.9746 -3.3520
  162MOL   H24742429   1.541   0.150   0.374  0.3882 -0.4286 -0.5309
  162MOL   H24842430   1.655   0.232   0.261  2.2465 -1.0149  0.3524
  162MOL   C24942431   1.737   0.060   0.370  0.1135  0.3769 -0.9003
  162MOL   N25042432   1.714   7.826   0.243 -0.2729 -0.4119  0.0487
  162MOL   C25142433   1.815   7.785   0.162  0.3085 -0.2510  0.2557
  162MOL   O25242434   1.938   7.793   0.187  0.1673  0.0035  0.0106
  162MOL   C25342435   1.773   7.715   0.034  0.2342 -0.3131 -0.6292
  162MOL   C25442436   1.694   7.815   0.492 -0.3810 -0.3119  0.2334
  162MOL   H25542437   1.842   0.084   0.384  0.0579  0.7368 -1.0832
  162MOL   H25642438   1.619   7.811   0.212 -0.0552 -2.0383  0.0777
  162MOL   H25742439   1.821   7.750   7.783 -1.3674  2.6063 -0.4410
  162MOL   H25842440   1.780   7.607   0.049 -0.9816 -0.2049  0.9496
  162MOL   H25942441   1.665   7.720   0.019  0.2768  0.4209 -0.7021
  162MOL   H26042442   1.722   0.013   0.590 -1.6011 -0.0577  0.4948
  162MOL   H26142443   1.586   7.804   0.504 -0.2720 -0.9478  0.6399
  162MOL   H26242444   1.741   7.717   0.492 -2.0535 -1.1435 -0.2902
  163MOL     C142445   0.462   4.130   3.107 -0.0038  0.2182 -0.3359
  163MOL     N242446   0.325   4.080   3.100  0.8641  0.6118  0.1972
  163MOL     C342447   0.246   4.046   3.204  0.0148  0.8867 -0.5165
  163MOL     O442448   0.284   4.049   3.323 -0.3142  0.1291 -0.9956
  163MOL     C542449   0.108   3.987   3.173 -0.2576  0.4021 -0.3963
  163MOL     C642450   0.524   4.103   2.971 -0.2635 -0.1868  0.2105
  163MOL     H742451   0.457   4.234   3.140 -0.5199  0.4015 -0.9690
  163MOL     H842452   0.287   4.063   3.008 -1.4740  2.2770  0.8059
  163MOL     H942453   0.050   4.056   3.112  1.5533  2.9968  0.7030
  163MOL    H1042454   0.117   3.886   3.134  1.8231  0.1144  0.7459
  163MOL    H1142455   0.050   3.973   3.264 -0.8084 -2.6709 -1.1765
  163MOL    H1242456   0.536   3.996   2.959 -0.0057 -0.0078 -1.1430
  163MOL    H1342457   0.455   4.140   2.896 -1.0942 -0.0514  1.0235
  163MOL    H1442458   0.513   4.082   3.190 -2.1164 -1.5847 -0.0212
  163MOL    C1542459   0.664   4.154   2.948 -0.7168  0.0757 -0.2729
  163MOL    N1642460   0.664   4.297   2.973 -0.0530 -0.6174  0.1036
  163MOL    C1742461   0.754   4.349   3.061  0.5495 -0.7709 -0.6185
  163MOL    O1842462   0.836   4.288   3.121 -0.8893  0.3967  0.2890
  163MOL    C1942463   0.729   4.502   3.099  0.9280 -0.5098  0.2609
  163MOL    C2042464   0.730   4.125   2.811 -0.3581 -0.3099 -0.3144
  163MOL    H2142465   0.720   4.100   3.025 -1.5674  0.6145  0.7403
  163MOL    H2242466   0.588   4.353   2.937  0.7555  1.7283  1.9033
  163MOL    H2342467   0.668   4.512   3.189 -0.5930  1.3078 -0.9205
  163MOL    H2442468   0.824   4.549   3.123 -0.5927  3.1476 -0.5685
  163MOL    H2542469   0.682   4.563   3.022 -0.7684 -1.6724  0.3300
  163MOL    H2642470   0.731   4.016   2.808 -0.2401 -0.3016 -0.5938
  163MOL    H2742471   0.657   4.152   2.735 -0.0395 -2.1574 -1.2962
  163MOL    C2842472   0.867   4.183   2.783 -0.3714 -0.2438 -0.1374
  163MOL    N2942473   0.883   4.189   2.641 -0.6056 -0.2515  0.5208
  163MOL    C3042474   0.889   4.299   2.560 -0.7149  0.4456 -0.3751
  163MOL    O3142475   0.861   4.414   2.601  0.0163  0.1767 -0.2714
  163MOL    C3242476   0.928   4.281   2.411  0.0584 -0.2347 -0.5766
  163MOL    C3342477   0.984   4.115   2.859  0.1311  0.3070 -0.4275
  163MOL    H3442478   0.867   4.284   2.823 -0.0567 -0.2704 -0.0641
  163MOL    H3542479   0.901   4.102   2.594  2.9739  0.5337  0.2930
  163MOL    H3642480   0.915   4.182   2.369 -1.3366 -0.4256  0.2791
  163MOL    H3742481   0.866   4.336   2.340 -0.2924  0.7523  0.4766
  163MOL    H3842482   1.025   4.330   2.400 -1.1022  2.3321  0.1742
  163MOL    H3942483   0.957   4.121   2.964  0.1832  0.0228 -0.3955
  163MOL    H4042484   0.999   4.010   2.833 -1.5202 -0.3428  1.1531
  163MOL    C4142485   1.125   4.180   2.836 -0.4337 -0.3896  0.1478
  163MOL    N4242486   1.213   4.111   2.923 -0.0775  0.1512 -0.3330
  163MOL    C4342487   1.290   4.005   2.895 -0.0094 -0.6822  0.0760
  163MOL    O4442488   1.300   3.952   2.784  0.0372  0.4944  0.3255
  163MOL    C4542489   1.372   3.938   3.009 -0.2263 -0.2428  0.2568
  163MOL    C4642490   1.146   4.331   2.855 -0.0294 -0.6661 -0.0659
  163MOL    H4742491   1.152   4.167   2.732  2.1169  3.2460  0.2353
  163MOL    H4842492   1.208   4.138   3.021 -1.2372 -3.1297  0.5840
  163MOL    H4942493   1.323   3.940   3.106  4.1828 -0.0167  2.6341
  163MOL    H5042494   1.371   3.829   3.007  0.7784 -0.3103  2.0805
  163MOL    H5142495   1.468   3.990   3.010 -0.5433  0.4015 -1.4722
  163MOL    H5242496   1.074   4.370   2.783  1.4526  2.2967 -0.0378
  163MOL    H5342497   1.126   4.371   2.955  0.1679  1.7057 -0.9396
  163MOL    C5442498   1.279   4.398   2.823  0.1070 -0.7131  1.0605
  163MOL    N5542499   1.268   4.545   2.822 -0.0959 -0.7677 -0.1522
  163MOL    C5642500   1.305   4.632   2.920 -0.6339 -0.6186 -0.0126
  163MOL    O5742501   1.336   4.589   3.032 -0.3851 -0.1093  0.2319
  163MOL    C5842502   1.306   4.780   2.885 -0.6400 -0.3666  0.2163
  163MOL    C5942503   1.349   4.335   2.700  0.1014  0.1624  0.6723
  163MOL    H6042504   1.345   4.356   2.898  1.3841  1.5555  1.2527
  163MOL    H6142505   1.249   4.596   2.737 -1.4717 -2.3507 -0.8147
  163MOL    H6242506   1.363   4.791   2.793 -2.3174 -2.2972 -1.0999
  163MOL    H6342507   1.202   4.807   2.868 -0.0633 -0.0433 -3.0760
  163MOL    H6442508   1.348   4.845   2.962 -2.0948  0.5208  0.2738
  163MOL    H6542509   1.383   4.234   2.724  0.1212  0.6580  2.8505
  163MOL    H6642510   1.278   4.331   2.617 -0.6030 -0.5645  1.3025
  163MOL    C6742511   1.481   4.402   2.667 -0.7510 -0.5532  0.1905
  163MOL    N6842512   1.534   4.372   2.533 -0.0254  0.0281 -0.6934
  163MOL    C6942513   1.541   4.253   2.480  0.0996 -0.1245 -0.5984
  163MOL    O7042514   1.517   4.150   2.537 -0.1848  0.2535 -0.0095
  163MOL    C7142515   1.598   4.254   2.348 -0.8342 -0.4560 -0.1122
  163MOL    C7242516   1.596   4.374   2.765  0.7145 -0.1421 -0.2608
  163MOL    H7342517   1.463   4.510   2.662  0.3179 -0.2148  2.6466
  163MOL    H7442518   1.561   4.449   2.474  1.0773  0.4289  0.3103
  163MOL    H7542519   1.673   4.330   2.326 -1.3675 -0.4908 -2.1658
  163MOL    H7642520   1.645   4.156   2.336  0.7794 -0.0003  2.1386
  163MOL    H7742521   1.523   4.278   2.272 -0.5248  0.9741  0.0193
  163MOL    H7842522   1.558   4.374   2.867 -1.1946  3.1332 -0.8862
  163MOL    H7942523   1.638   4.274   2.753  3.0823  1.0075 -2.0947
  163MOL    C8042524   1.709   4.479   2.765 -1.1820  0.5007 -0.6058
  163MOL    N8142525   1.831   4.437   2.833 -0.7730 -0.2651 -0.3625
  163MOL    C8242526   1.948   4.419   2.774  0.6699  0.0767  0.1013
  163MOL    O8342527   1.970   4.437   2.650  0.0631  0.0551 -0.2600
  163MOL    C8442528   2.064   4.386   2.862 -0.0411 -0.1388  0.0344
  163MOL    C8542529   1.671   4.620   2.834 -0.2208  0.5006  0.4350
  163MOL    H8642530   1.720   4.514   2.662  2.7632 -1.7786 -1.0580
  163MOL    H8742531   1.814   4.439   2.933 -0.5420  1.8862 -0.3344
  163MOL    H8842532   2.033   4.346   2.959  1.2346  1.1139  0.9749
  163MOL    H8942533   2.111   4.296   2.822 -0.7798 -1.0532  1.1498
  163MOL    H9042534   2.138   4.463   2.882 -0.5595 -0.0475  1.7479
  163MOL    H9142535   1.739   4.689   2.784 -1.2265  0.4550 -1.0358
  163MOL    H9242536   1.570   4.640   2.799  0.0381  0.1068 -0.5772
  163MOL    C9342537   1.690   4.637   2.991  0.5248 -0.2014 -0.1284
  163MOL    N9442538   1.610   4.541   3.065 -0.0692 -0.0396  0.7028
  163MOL    C9542539   1.668   4.457   3.159 -0.4343 -1.4342 -0.0822
  163MOL    O9642540   1.789   4.450   3.180 -0.1583  0.2034  0.0491
  163MOL    C9742541   1.567   4.375   3.235 -0.2650 -0.0633 -0.2713
  163MOL    C9842542   1.642   4.774   3.046  0.2689  0.0643 -0.1611
  163MOL    H9942543   1.797   4.644   3.013  0.3061  3.6129  0.1321
  163MOL   H10042544   1.510   4.547   3.070 -0.1675 -1.9911  1.4124
  163MOL   H10142545   1.562   4.417   3.336 -0.0528 -1.4791  0.3355
  163MOL   H10242546   1.465   4.385   3.200 -0.3362 -1.2701 -0.4222
  163MOL   H10342547   1.590   4.269   3.230 -0.7216 -0.1559 -0.3932
  163MOL   H10442548   1.534   4.777   3.047  0.2814  0.5305  0.4743
  163MOL   H10542549   1.662   4.776   3.154 -1.4515  1.2001  0.1648
  163MOL   C10642550   1.694   4.900   2.975  0.2667 -0.2871  0.3884
  163MOL   N10742551   1.675   5.018   3.060 -0.7444 -0.2720 -0.5736
  163MOL   C10842552   1.745   5.042   3.176 -0.2614 -0.1021 -0.4671
  163MOL   O10942553   1.832   4.963   3.219  0.5355  0.6746  0.6674
  163MOL   C11042554   1.723   5.175   3.239 -0.0153  0.9162  0.3214
  163MOL   C11142555   1.621   4.940   2.841 -0.6088  0.7091 -0.0674
  163MOL   H11242556   1.801   4.887   2.962  0.3923 -0.0097  1.1446
  163MOL   H11342557   1.613   5.094   3.037  0.8843  0.7251 -1.7187
  163MOL   H11442558   1.698   5.242   3.157  0.6835 -1.7368 -2.1686
  163MOL   H11542559   1.637   5.176   3.305 -0.5854 -1.3190 -0.3195
  163MOL   H11642560   1.815   5.203   3.291 -0.3345 -1.0310  2.0202
  163MOL   H11742561   1.575   4.856   2.790 -0.3563  2.1544 -2.7559
  163MOL   H11842562   1.533   5.001   2.861 -0.5083  1.1787 -1.0568
  163MOL   C11942563   1.699   5.016   2.737  0.8116 -0.7817 -0.2284
  163MOL   N12042564   1.758   5.134   2.796  0.2553  0.5167  0.0795
  163MOL   C12142565   1.884   5.149   2.832  0.4379 -0.4544 -0.3189
  163MOL   O12242566   1.975   5.071   2.799  0.6370 -0.1154  0.7550
  163MOL   C12342567   1.920   5.277   2.913  0.1672  0.2927  0.2950
  163MOL   C12442568   1.613   5.059   2.610 -0.6662 -0.1524  0.4658
  163MOL   H12542569   1.779   4.956   2.695 -0.7691 -2.3657 -1.0298
  163MOL   H12642570   1.693   5.204   2.831 -0.8252  0.3371 -1.4987
  163MOL   H12742571   1.965   5.256   3.010 -1.8368  2.8691  1.8318
  163MOL   H12842572   1.987   5.345   2.861  2.0237 -1.6944  0.0095
  163MOL   H12942573   1.834   5.334   2.949 -0.4961 -1.6501  1.8931
  163MOL   H13042574   1.537   5.133   2.634  0.0857  0.3058  1.4243
  163MOL   H13142575   1.677   5.109   2.537 -3.3132  1.4019 -0.8957
  163MOL   C13242576   1.551   4.944   2.516 -0.3229 -0.0282 -1.2869
  163MOL   N13342577   1.660   4.861   2.465  0.5226  0.3480  0.5832
  163MOL   C13442578   1.656   4.731   2.454 -0.6797 -0.3024 -0.7248
  163MOL   O13542579   1.560   4.660   2.488 -0.5358  0.2686  0.3149
  163MOL   C13642580   1.788   4.660   2.422 -1.0266 -0.0837  0.2989
  163MOL   C13742581   1.476   5.004   2.393  0.1914  0.4581  0.2209
  163MOL   H13842582   1.481   4.880   2.570  1.6285 -2.7253 -1.8700
  163MOL   H13942583   1.739   4.915   2.432  0.2390 -0.3057 -1.2275
  163MOL   H14042584   1.876   4.683   2.483 -2.3440  0.9125  1.8412
  163MOL   H14142585   1.775   4.552   2.433  1.0946 -0.3867  0.2174
  163MOL   H14242586   1.811   4.677   2.316  0.7454  1.3401  0.8836
  163MOL   H14342587   1.510   5.106   2.374  2.0403  0.1697  1.8425
  163MOL   H14442588   1.503   4.948   2.303  2.8466 -0.6745  1.6580
  163MOL   C14542589   1.324   5.010   2.414  0.5842 -0.3343  0.1011
  163MOL   N14642590   1.254   4.880   2.390  0.4158 -0.1054 -0.4573
  163MOL   C14742591   1.193   4.801   2.482  0.3386  0.4989  0.4685
  163MOL   O14842592   1.189   4.840   2.598  0.2082 -0.2183  0.1494
  163MOL   C14942593   1.132   4.674   2.433  0.2818 -0.1575 -0.0804
  163MOL   C15042594   1.264   5.105   2.312  0.3432 -0.8169  0.1474
  163MOL   H15142595   1.315   5.049   2.516  0.3149 -2.7210  1.0048
  163MOL   H15242596   1.264   4.842   2.297 -2.1286  1.1063 -1.2858
  163MOL   H15342597   1.104   4.621   2.524 -0.8959 -1.8900 -1.4294
  163MOL   H15442598   1.040   4.700   2.380  0.2651  1.8568  0.8608
  163MOL   H15542599   1.193   4.598   2.384 -0.0598 -0.7833  0.4553
  163MOL   H15642600   1.319   5.194   2.343 -1.1525  0.6566 -1.3101
  163MOL   H15742601   1.297   5.086   2.210 -1.0563  0.3552 -0.5396
  163MOL   C15842602   1.115   5.133   2.320  0.5786  0.2247 -0.5943
  163MOL   N15942603   1.073   5.236   2.224  0.3115  0.3376  0.5120
  163MOL   C16042604   0.957   5.234   2.146 -0.3457 -0.1759  0.3128
  163MOL   O16142605   0.862   5.156   2.164 -0.0775 -0.2448 -0.0045
  163MOL   C16242606   0.944   5.353   2.044 -0.0865  0.2351  0.1076
  163MOL   C16342607   1.074   5.183   2.465 -0.5371  0.3591 -0.0015
  163MOL   H16442608   1.059   5.040   2.319  2.1374 -0.8131  2.1224
  163MOL   H16542609   1.139   5.308   2.200 -0.7250  0.7126 -1.3518
  163MOL   H16642610   0.843   5.393   2.032  0.2975  1.2941  0.3539
  163MOL   H16742611   1.014   5.436   2.052 -1.0517  1.4033 -3.0944
  163MOL   H16842612   0.975   5.306   1.951 -3.1603 -1.3794 -0.1763
  163MOL   H16942613   1.104   5.112   2.542 -2.1252  0.6837  0.9255
  163MOL   H17042614   1.138   5.268   2.492 -0.5033  0.7877 -1.3943
  163MOL   C17142615   0.920   5.194   2.494  0.6870  0.1608  0.2055
  163MOL   N17242616   0.903   5.278   2.615 -0.0552 -0.2606  0.4643
  163MOL   C17342617   0.912   5.409   2.624  0.5599  0.5660 -0.9547
  163MOL   O17442618   0.889   5.462   2.733  0.2130 -0.2332  0.2883
  163MOL   C17542619   0.943   5.495   2.506  0.7292 -0.1570 -0.4408
  163MOL   C17642620   0.840   5.058   2.515 -0.7618 -0.3882  0.4673
  163MOL   H17742621   0.872   5.251   2.415 -0.6289 -0.9868  0.1557
  163MOL   H17842622   0.882   5.232   2.702  1.6504  0.1938  1.1492
  163MOL   H17942623   0.947   5.600   2.534 -0.7387 -0.2208  0.0416
  163MOL   H18042624   1.038   5.467   2.460  1.6105 -0.5598  1.5559
  163MOL   H18142625   0.861   5.476   2.437  2.4092 -0.7249 -2.3390
  163MOL   H18242626   0.862   4.998   2.427 -0.0814  0.6946 -0.1153
  163MOL   H18342627   0.877   5.000   2.599 -3.2362  0.2367  2.0209
  163MOL   C18442628   0.687   5.066   2.516  0.4512 -0.3191 -0.3065
  163MOL   N18542629   0.627   5.169   2.604  0.2667 -0.3019  0.6975
  163MOL   C18642630   0.566   5.286   2.567  0.6917  0.1016  0.3260
  163MOL   O18742631   0.543   5.323   2.450  0.2407 -0.2262 -0.1711
  163MOL   C18842632   0.520   5.377   2.687  0.2127 -0.6884 -0.4609
  163MOL   C18942633   0.604   4.936   2.550 -0.0486 -0.1837  0.2318
  163MOL   H19042634   0.660   5.094   2.414 -0.5369  0.9357  0.2928
  163MOL   H19142635   0.651   5.154   2.701 -2.9256  0.9840  1.7364
  163MOL   H19242636   0.412   5.382   2.697  0.2703 -0.7098  0.1835
  163MOL   H19342637   0.582   5.364   2.776 -0.2561 -0.7327 -0.1410
  163MOL   H19442638   0.544   5.473   2.643 -0.2772 -0.5844 -0.4996
  163MOL   H19542639   0.623   4.916   2.655  0.5804  0.4772  0.2442
  163MOL   H19642640   0.496   4.953   2.543 -0.4715 -2.3616  1.1612
  163MOL   C19742641   0.637   4.811   2.462  0.8858 -0.1058 -1.1714
  163MOL   N19842642   0.614   4.831   2.316  0.4737  0.0691  0.0474
  163MOL   C19942643   0.697   4.812   2.214 -0.0713  0.2482  0.1962
  163MOL   O20042644   0.804   4.757   2.226 -0.1144 -0.3889  0.2841
  163MOL   C20142645   0.655   4.863   2.079  0.2912  0.0055 -0.1722
  163MOL   C20242646   0.565   4.679   2.509  0.2822 -0.9362  0.0586
  163MOL   H20342647   0.744   4.793   2.478  1.1637  1.8900 -0.6376
  163MOL   H20442648   0.522   4.866   2.294 -1.0192 -2.8953  1.3546
  163MOL   H20542649   0.593   4.953   2.077  2.9081  1.8528 -1.2519
  163MOL   H20642650   0.752   4.890   2.036  0.5805 -0.5876  0.0916
  163MOL   H20742651   0.607   4.777   2.033 -2.0224  0.9857  0.3533
  163MOL   H20842652   0.460   4.699   2.489  0.5513  1.6559  1.0083
  163MOL   H20942653   0.605   4.596   2.450 -0.3678 -1.1355 -0.1044
  163MOL   C21042654   0.581   4.648   2.656 -0.6995  0.2404  0.9687
  163MOL   N21142655   0.721   4.633   2.699 -0.3241 -0.4972 -0.2939
  163MOL   C21242656   0.790   4.706   2.786  0.2591  0.1949  0.0315
  163MOL   O21342657   0.740   4.800   2.841 -0.3972  0.3039  0.2737
  163MOL   C21442658   0.922   4.645   2.838 -0.2910 -0.6583 -0.3813
  163MOL   C21542659   0.507   4.519   2.692  0.2168  0.4589  0.8275
  163MOL   H21642660   0.532   4.725   2.715 -0.7883  3.2040 -2.8149
  163MOL   H21742661   0.774   4.564   2.648 -0.5857  0.4512 -1.9025
  163MOL   H21842662   0.900   4.547   2.881 -1.1068 -0.3630 -0.1339
  163MOL   H21942663   0.986   4.627   2.752  0.1790 -1.7720  0.1874
  163MOL   H22042664   0.982   4.708   2.904 -4.0181  0.2244  2.2920
  163MOL   H22142665   0.530   4.449   2.612 -2.5729 -0.7568  1.0328
  163MOL   H22242666   0.547   4.475   2.784  0.0045  0.2363  0.8150
  163MOL   C22342667   0.353   4.530   2.714 -0.0232  0.8793 -0.3378
  163MOL   N22442668   0.321   4.611   2.833  0.4617 -0.5504  0.2430
  163MOL   C22542669   0.351   4.590   2.963 -0.3414  0.5928  0.0830
  163MOL   O22642670   0.429   4.496   3.002 -0.0806  0.5606 -0.1675
  163MOL   C22742671   0.275   4.662   3.071 -0.4425 -0.1443 -0.0891
  163MOL   C22842672   0.279   4.394   2.731  0.3516 -0.1267  0.1315
  163MOL   H22942673   0.312   4.578   2.625 -1.0077  1.2869  0.3210
  163MOL   H23042674   0.270   4.695   2.810  0.6119 -0.3345  0.6998
  163MOL   H23142675   0.334   4.724   3.138  0.1532  0.4053 -1.1152
  163MOL   H23242676   0.183   4.711   3.038  0.0057  0.7033 -0.0971
  163MOL   H23342677   0.243   4.585   3.141 -1.1378 -0.5431 -0.8373
  163MOL   H23442678   0.325   4.341   2.814 -2.1056 -0.5874  1.2420
  163MOL   H23542679   0.179   4.427   2.757  0.1670 -1.6646  1.4317
  163MOL   C23642680   0.272   4.310   2.600 -0.1364 -0.4585  0.8259
  163MOL   N23742681   0.137   4.244   2.594 -0.5891  0.2750 -0.1496
  163MOL   C23842682   0.071   4.168   2.679  0.5801 -0.5496  0.2639
  163MOL   O23942683   0.123   4.128   2.782  0.3119 -0.1842 -0.0882
  163MOL   C24042684   7.763   4.142   2.651 -0.2217  0.5521  0.9710
  163MOL   C24142685   0.387   4.210   2.589 -0.7714  0.2095  0.1304
  163MOL   H24242686   0.272   4.381   2.518 -0.0556 -0.3258  0.9418
  163MOL   H24342687   0.090   4.276   2.511 -0.3515  0.4083 -0.2330
  163MOL   H24442688   7.748   4.068   2.572 -1.9096  2.8885 -0.9932
  163MOL   H24542689   7.708   4.102   2.735  0.7599 -0.9012  0.9432
  163MOL   H24642690   7.708   4.235   2.632 -0.0206  0.1555 -1.8263
  163MOL   H24742691   0.488   4.238   2.621 -1.6919  2.2172  1.3755
  163MOL   H24842692   0.365   4.129   2.659  1.4498  0.0929  0.7411
  163MOL   C24942693   0.399   4.156   2.443  0.3918 -0.5155  0.7079
  163MOL   N25042694   0.470   4.021   2.418  0.8514 -0.2750  0.2253
  163MOL   C25142695   0.598   3.990   2.442  0.5808  0.1994 -0.1077
  163MOL   O25242696   0.664   4.074   2.503  0.2833 -0.0259  0.5764
  163MOL   C25342697   0.657   3.860   2.379  0.3418 -0.0468  0.3828
  163MOL   C25442698   0.451   4.260   2.345  0.1080  0.7114  0.0128
  163MOL   H25542699   0.296   4.136   2.415  0.9491 -1.0607 -1.0432
  163MOL   H25642700   0.424   3.977   2.340  0.2169 -0.3019  0.6137
  163MOL   H25742701   0.678   3.876   2.273  1.3436  0.2354  0.6247
  163MOL   H25842702   0.756   3.838   2.417 -0.0352 -0.7594  0.9455
  163MOL   H25942703   0.597   3.772   2.399  0.9177 -0.9753 -1.7922
  163MOL   H26042704   0.461   4.219   2.245  0.7588  0.0679  0.3347
  163MOL   H26142705   0.372   4.335   2.341  0.9966  1.5615 -2.4401
  163MOL   H26242706   0.546   4.303   2.376  0.4543  0.4208 -0.6530
  164MOL     C142707   5.481   1.198   7.200  0.0455  0.8976  0.1565
  164MOL     N242708   5.418   1.210   7.068 -0.0526 -0.1342  0.3263
  164MOL     C342709   5.474   1.225   6.945 -0.2826  0.6031 -0.5986
  164MOL     O442710   5.594   1.211   6.931  0.6424 -0.1531  0.8812
  164MOL     C542711   5.389   1.258   6.829 -0.2619  0.5472 -0.4845
  164MOL     C642712   5.526   1.049   7.232  0.0051  0.4057  0.0993
  164MOL     H742713   5.560   1.272   7.199  0.6501  0.2830  1.6365
  164MOL     H842714   5.318   1.219   7.073 -0.2493 -1.9234 -0.2548
  164MOL     H942715   5.367   1.178   6.757 -2.4251  0.6884 -0.0271
  164MOL    H1042716   5.287   1.279   6.860  0.7147  0.7216  2.7954
  164MOL    H1142717   5.421   1.349   6.778 -0.0245  1.7155  1.6850
  164MOL    H1242718   5.597   1.019   7.155 -0.1873 -2.0778  0.8257
  164MOL    H1342719   5.588   1.047   7.321  0.2117  0.6003 -0.0399
  164MOL    H1442720   5.407   1.218   7.277 -0.3061  1.3447 -0.2922
  164MOL    C1542721   5.423   0.941   7.238 -0.2238  0.7849 -0.4355
  164MOL    N1642722   5.312   0.984   7.326 -0.4338 -0.0889 -0.3346
  164MOL    C1742723   5.201   1.043   7.282 -0.7036  0.2030 -0.6405
  164MOL    O1842724   5.185   1.061   7.164  0.5393  0.1666 -0.1944
  164MOL    C1942725   5.103   1.093   7.383 -1.1841 -0.0405 -0.3171
  164MOL    C2042726   5.479   0.808   7.298  0.2124  0.0821  0.7669
  164MOL    H2142727   5.380   0.917   7.141 -2.0901 -1.0515  0.7928
  164MOL    H2242728   5.332   0.981   7.425 -1.1490  0.0528 -0.1805
  164MOL    H2342729   5.093   1.201   7.366  0.7967  0.2294  0.0888
  164MOL    H2442730   5.009   1.039   7.372 -0.4446 -1.4846  0.3614
  164MOL    H2542731   5.137   1.085   7.486 -0.5398  2.6284 -0.2878
  164MOL    H2642732   5.500   0.825   7.404 -0.9954 -1.2119  1.2282
  164MOL    H2742733   5.396   0.738   7.294 -1.1722  1.7124  0.2484
  164MOL    C2842734   5.601   0.740   7.229  0.1418 -0.1661  0.0491
  164MOL    N2942735   5.563   0.708   7.094  0.0917  0.0797 -0.0442
  164MOL    C3042736   5.630   0.768   6.987  0.1019 -0.2759 -0.2541
  164MOL    O3142737   5.739   0.829   6.996 -0.3238 -0.5100 -0.0793
  164MOL    C3242738   5.550   0.773   6.859  0.0625  0.0325  0.1529
  164MOL    C3342739   5.643   0.606   7.296  0.3763  0.5006  0.3404
  164MOL    H3442740   5.684   0.809   7.221 -1.0683  1.1774 -1.2849
  164MOL    H3542741   5.482   0.652   7.075 -0.0994  0.2667  0.2190
  164MOL    H3642742   5.475   0.851   6.862 -0.7788 -0.7427 -0.3810
  164MOL    H3742743   5.617   0.781   6.773 -1.5757  1.2636 -1.0370
  164MOL    H3842744   5.489   0.685   6.836 -0.8615  0.1951  1.9089
  164MOL    H3942745   5.552   0.546   7.301 -0.5541  1.7948 -0.6731
  164MOL    H4042746   5.718   0.559   7.233 -1.0508 -1.2310 -0.1025
  164MOL    C4142747   5.685   0.616   7.444 -0.4982  0.1146 -0.8882
  164MOL    N4242748   5.803   0.706   7.456  0.3749 -0.2390 -0.0322
  164MOL    C4342749   5.805   0.832   7.499  0.4741 -0.5129  0.1105
  164MOL    O4442750   5.705   0.896   7.529  0.0879  0.0113 -0.3680
  164MOL    C4542751   5.944   0.883   7.516  0.3872 -0.1519 -0.0982
  164MOL    C4642752   5.724   0.485   7.508 -0.5243  0.4520 -0.2718
  164MOL    H4742753   5.600   0.661   7.494  0.2222  0.0736  0.3922
  164MOL    H4842754   5.893   0.670   7.427  1.1850  0.9485  1.0071
  164MOL    H4942755   5.983   0.926   7.424  0.6485  0.8164  0.4617
  164MOL    H5042756   5.964   0.945   7.603  0.1634 -0.2667  0.0370
  164MOL    H5142757   6.010   0.799   7.539 -0.4153 -0.5233  0.9419
  164MOL    H5242758   5.824   0.457   7.475 -0.8048  0.8352 -1.4982
  164MOL    H5342759   5.734   0.514   7.612 -1.2586  1.5273 -0.4933
  164MOL    C5442760   5.617   0.370   7.510 -0.2790 -0.7783  0.2607
  164MOL    N5542761   5.611   0.320   7.644 -0.3414 -0.1657  0.4829
  164MOL    C5642762   5.503   0.287   7.720  0.3678 -0.1447  0.0116
  164MOL    O5742763   5.390   0.301   7.682 -0.2684 -0.3561  0.3432
  164MOL    C5842764   5.529   0.261   0.028  0.6520 -0.4278 -0.0647
  164MOL    C5942765   5.651   0.271   7.400  0.1254 -0.0802 -0.0809
  164MOL    H6042766   5.515   0.407   7.497  0.7994  2.3600  0.3282
  164MOL    H6142767   5.698   0.334   7.694  0.5202 -1.7933 -0.5018
  164MOL    H6242768   5.449   0.197   0.063  1.2461 -1.4247 -0.5163
  164MOL    H6342769   5.620   0.206   0.050  2.5532  1.0911 -3.6299
  164MOL    H6442770   5.536   0.351   0.089  0.2878 -1.0237  0.8528
  164MOL    H6542771   5.691   0.319   7.310  1.9738  0.5779  1.0637
  164MOL    H6642772   5.732   0.204   7.431  0.0251 -0.0565  0.2240
  164MOL    C6742773   5.538   0.182   7.350  0.4052  0.0603  0.3436
  164MOL    N6842774   5.486   0.097   7.457  0.0636 -0.6430  0.3703
  164MOL    C6942775   5.368   0.037   7.456 -0.7569 -0.0259  0.1682
  164MOL    O7042776   5.294   0.036   7.360 -0.7819  0.5001  0.3908
  164MOL    C7142777   5.338   7.805   7.585  0.1171 -0.1544 -0.4200
  164MOL    C7242778   5.566   0.107   7.220  0.5259 -0.2304  0.2298
  164MOL    H7342779   5.464   0.258   7.328 -0.4701 -0.7542  0.4104
  164MOL    H7442780   5.538   0.078   7.541  2.9958  3.2432 -0.4047
  164MOL    H7542781   5.318   0.046   7.656 -0.0556 -0.9106  0.3930
  164MOL    H7642782   5.242   7.754   7.583  0.7825 -1.4088 -0.7447
  164MOL    H7742783   5.422   7.744   7.618  0.4184 -0.0560 -1.0007
  164MOL    H7842784   5.672   0.102   7.199  0.0108 -0.5110 -2.5122
  164MOL    H7942785   5.537   0.002   7.223  2.1879 -0.7165 -0.2513
  164MOL    C8042786   5.500   0.166   7.094  0.1145  0.4635  0.2146
  164MOL    N8142787   5.351   0.167   7.115  0.2067  0.2176 -0.2159
  164MOL    C8242788   5.272   0.270   7.081  0.5523 -0.0047 -0.1042
  164MOL    O8342789   5.309   0.377   7.042 -0.2005  0.2986 -0.2366
  164MOL    C8442790   5.125   0.254   7.109 -0.0946  0.0859 -0.0439
  164MOL    C8542791   5.529   0.083   6.966 -0.8663  0.2899 -0.4416
  164MOL    H8642792   5.534   0.269   7.086 -4.7794  2.3376  1.6138
  164MOL    H8742793   5.313   0.080   7.149  1.4127  0.3167  1.4169
  164MOL    H8842794   5.088   0.154   7.084  1.0735 -0.4946  0.5026
  164MOL    H8942795   5.108   0.253   7.216 -1.2703  2.6547 -0.1752
  164MOL    H9042796   5.083   0.340   7.058 -0.7552  0.0570  0.4464
  164MOL    H9142797   5.567   7.823   6.981 -0.4447  0.6130  0.6383
  164MOL    H9242798   5.439   0.087   6.904 -0.7253 -0.0495 -0.6660
  164MOL    C9342799   5.639   0.148   6.880  0.2498 -0.0493  0.0148
  164MOL    N9442800   5.774   0.108   6.925  0.5350  0.5206 -0.2760
  164MOL    C9542801   5.877   0.066   6.847 -0.5582 -0.2393  0.3290
  164MOL    O9642802   5.866   0.042   6.727  0.1736  0.4717  0.0577
  164MOL    C9742803   6.012   0.053   6.923  0.1348  0.4463  0.0374
  164MOL    C9842804   5.618   0.293   6.844  0.3173 -0.5053 -0.1695
  164MOL    H9942805   5.631   0.090   6.788  2.3578  0.2732 -0.3890
  164MOL   H10042806   5.801   0.149   7.014 -1.9212  0.4399  0.5421
  164MOL   H10142807   6.090   7.839   6.869 -0.3553  1.5034 -1.7712
  164MOL   H10242808   6.059   0.149   6.946  0.4007 -0.2060  2.3170
  164MOL   H10342809   5.994   7.835   7.013  0.2909 -0.6244 -0.6070
  164MOL   H10442810   5.529   0.286   6.781 -1.7144  1.4814  2.3845
  164MOL   H10542811   5.582   0.362   6.920  2.7110  1.8812 -1.1514
  164MOL   C10642812   5.728   0.378   6.775 -0.0429 -0.0681  0.5636
  164MOL   N10742813   5.793   0.475   6.863 -0.4686 -0.1955 -0.1744
  164MOL   C10842814   5.865   0.450   6.969  0.6209  0.1498 -0.2204
  164MOL   O10942815   5.847   0.351   7.047  0.1228  0.6055  0.0221
  164MOL   C11042816   5.959   0.565   7.010  0.4112  0.2084 -0.0483
  164MOL   C11142817   5.682   0.458   6.651 -0.2520  0.0077  1.0524
  164MOL   H11242818   5.795   0.306   6.730  0.0864  0.0367  0.5886
  164MOL   H11342819   5.808   0.571   6.837 -0.9537  0.8666  3.2846
  164MOL   H11442820   6.060   0.536   7.041  0.3639 -1.6033 -1.5285
  164MOL   H11542821   5.976   0.636   6.929  1.6538  0.0489  0.0622
  164MOL   H11642822   5.929   0.609   7.105  1.7492  1.4276 -0.1570
  164MOL   H11742823   5.595   0.522   6.664  0.1761  0.9661 -0.6057
  164MOL   H11842824   5.757   0.533   6.627  0.3216 -0.6273  0.8468
  164MOL   C11942825   5.657   0.371   6.516  0.2626 -0.1739 -0.2577
  164MOL   N12042826   5.788   0.342   6.458 -0.2887 -0.8722  0.0305
  164MOL   C12142827   5.828   0.232   6.406 -0.8064 -0.8612  0.8609
  164MOL   O12242828   5.753   0.133   6.403 -0.7844 -0.3853 -0.3964
  164MOL   C12342829   5.976   0.228   6.368 -0.5233  0.8036  0.2656
  164MOL   C12442830   5.563   0.451   6.421 -0.3333  0.6024  0.1153
  164MOL   H12542831   5.603   0.282   6.548  0.4373 -0.9607 -2.0836
  164MOL   H12642832   5.860   0.412   6.472 -0.9678 -0.2267  0.2721
  164MOL   H12742833   6.009   0.320   6.320  0.6962  0.3895  0.3131
  164MOL   H12842834   6.042   0.203   6.450 -0.4738 -1.5584 -0.4432
  164MOL   H12942835   5.995   0.145   6.300  3.0344  0.2783  1.8270
  164MOL   H13042836   5.531   0.380   6.345  0.8909 -0.1221  0.2596
  164MOL   H13142837   5.467   0.464   6.471 -0.9507  0.0864 -0.9264
  164MOL   C13242838   5.623   0.586   6.356  0.0632 -0.2900  0.6703
  164MOL   N13342839   5.546   0.701   6.408  0.0547 -0.0882 -0.1163
  164MOL   C13442840   5.593   0.797   6.490  0.0546  0.8849  0.7787
  164MOL   O13542841   5.703   0.786   6.536  0.1569 -0.5571 -0.3187
  164MOL   C13642842   5.491   0.906   6.529  0.0302 -0.2160 -0.1911
  164MOL   C13742843   5.607   0.570   6.200  0.2859 -0.1622 -0.8146
  164MOL   H13842844   5.728   0.597   6.385  1.0337 -0.5167 -2.6432
  164MOL   H13942845   5.449   0.697   6.382 -0.6045 -1.1222  2.3100
  164MOL   H14042846   5.521   0.961   6.618  3.8732 -1.8401 -0.4127
  164MOL   H14142847   5.487   0.975   6.444 -0.3381  2.9371  2.2904
  164MOL   H14242848   5.396   0.856   6.549 -0.3359  0.4898 -0.1499
  164MOL   H14342849   5.625   0.467   6.168 -0.9034 -1.5227  2.7364
  164MOL   H14442850   5.510   0.604   6.164  0.5541 -0.3527 -1.7383
  164MOL   C14542851   5.689   0.676   6.121 -0.3354 -0.3062  0.1313
  164MOL   N14642852   5.669   0.653   5.977  0.6027  0.1948  0.3091
  164MOL   C14742853   5.682   0.745   5.885 -0.2401 -0.3171 -0.2383
  164MOL   O14842854   5.702   0.865   5.909  0.6403 -0.4077  0.1655
  164MOL   C14942855   5.677   0.694   5.744  1.3795  0.0931 -0.1840
  164MOL   C15042856   5.835   0.692   6.152 -0.3125 -0.4531  0.3128
  164MOL   H15142857   5.643   0.774   6.135  0.6406  0.2683 -0.5924
  164MOL   H15242858   5.678   0.555   5.953 -0.6864 -0.2627  1.6145
  164MOL   H15342859   5.689   0.586   5.737 -0.1874  0.0611 -3.1559
  164MOL   H15442860   5.577   0.704   5.701  1.8950  0.3522 -1.3236
  164MOL   H15542861   5.757   0.720   5.675  0.3126 -1.1248 -1.9277
  164MOL   H15642862   5.870   0.600   6.198  0.7839  0.9036  2.2657
  164MOL   H15742863   5.894   0.686   6.061  0.1280  2.8130  0.3359
  164MOL   C15842864   5.884   0.818   6.221 -0.5155 -0.1091 -0.2515
  164MOL   N15942865   5.835   0.936   6.139 -0.1696 -0.2860 -0.5301
  164MOL   C16042866   5.798   1.053   6.186 -0.1559 -0.0400 -0.3211
  164MOL   O16142867   5.831   1.091   6.298 -0.8032  0.6660 -0.1931
  164MOL   C16242868   5.697   1.145   6.110  0.1627  0.2886  0.5049
  164MOL   C16342869   6.039   0.824   6.214  0.0982 -0.2794  0.7441
  164MOL   H16442870   5.843   0.818   6.322  0.8529 -1.7540  0.3259
  164MOL   H16542871   5.812   0.901   6.047 -1.0825  0.2691 -0.5207
  164MOL   H16642872   5.726   1.250   6.101  1.1587  0.0594  0.9375
  164MOL   H16742873   5.676   1.111   6.009  2.2335  0.4277 -0.0049
  164MOL   H16842874   5.603   1.136   6.164  0.0673 -1.0782  0.1276
  164MOL   H16942875   6.054   0.819   6.106 -0.8457  2.5300  0.4313
  164MOL   H17042876   6.080   0.922   6.239 -2.2252  0.8958  0.1488
  164MOL   C17142877   6.117   0.714   6.292 -1.3090  0.1639  0.5536
  164MOL   N17242878   6.095   0.728   6.430 -0.1594  0.6001 -0.5469
  164MOL   C17342879   6.031   0.649   6.515  0.7053  0.4666  0.3720
  164MOL   O17442880   5.983   0.539   6.490  0.1243 -0.0369 -0.5015
  164MOL   C17542881   6.033   0.685   6.664  0.2371  0.0552  0.3429
  164MOL   C17642882   6.267   0.715   6.253  0.0788 -0.1594 -0.7105
  164MOL   H17742883   6.080   0.617   6.259  0.6304 -0.9761  1.6217
  164MOL   H17842884   6.144   0.805   6.473  1.7985 -2.2678  2.6478
  164MOL   H17942885   6.134   0.706   6.700 -0.2149  1.1323  1.0098
  164MOL   H18042886   5.966   0.765   6.694 -1.0586 -0.2336 -1.7305
  164MOL   H18142887   5.992   0.599   6.715 -0.8175  0.5490  0.3308
  164MOL   H18242888   6.308   0.816   6.263  1.8817 -0.8739 -0.6469
  164MOL   H18342889   6.319   0.644   6.317  0.9514  0.2430 -0.9630
  164MOL   C18442890   6.295   0.648   6.114  0.3792 -0.9257  0.6518
  164MOL   N18542891   6.411   0.553   6.113  0.3794  0.2699  0.0755
  164MOL   C18642892   6.536   0.565   6.171 -0.3733 -0.4954 -0.0563
  164MOL   O18742893   6.575   0.655   6.245 -0.0701  0.2920  0.8420
  164MOL   C18842894   6.633   0.459   6.138  0.0217  0.2453  0.5624
  164MOL   C18942895   6.315   0.754   6.015 -0.0741 -0.5768  0.9632
  164MOL   H19042896   6.205   0.598   6.078  0.6319 -0.9642  0.0675
  164MOL   H19142897   6.404   0.479   6.045  1.4219 -1.1297  1.4581
  164MOL   H19242898   6.641   0.435   6.032  0.2035 -1.0786  0.8667
  164MOL   H19342899   6.733   0.498   6.154  0.5391 -0.9352  0.2774
  164MOL   H19442900   6.606   0.366   6.189 -1.3384 -1.3100 -2.8416
  164MOL   H19542901   6.268   0.846   6.049 -0.9125 -0.3382 -0.7881
  164MOL   H19642902   6.416   0.795   6.012 -1.0925  1.9965  0.6723
  164MOL   C19742903   6.285   0.708   5.871  0.0589 -0.2532 -0.1422
  164MOL   N19842904   6.353   0.793   5.779  0.1487  0.7100  0.0285
  164MOL   C19942905   6.484   0.793   5.745 -0.7259  0.4045  0.6106
  164MOL   O20042906   6.563   0.707   5.797 -0.5594  0.4256  0.1391
  164MOL   C20142907   6.531   0.876   5.640 -0.6861 -0.5655 -0.3057
  164MOL   C20242908   6.139   0.701   5.836  0.0377 -0.2066  0.3257
  164MOL   H20342909   6.320   0.607   5.850  1.7431  0.4040 -0.5887
  164MOL   H20442910   6.307   0.871   5.736  0.5569  0.7551 -0.3356
  164MOL   H20542911   6.494   0.978   5.656  0.6255 -0.2867  1.0567
  164MOL   H20642912   6.639   0.867   5.635 -0.4626  1.1221  1.0379
  164MOL   H20742913   6.494   0.840   5.544 -0.4430 -1.8032  0.0562
  164MOL   H20842914   6.080   0.628   5.891 -2.1519  2.5344  1.7390
  164MOL   H20942915   6.092   0.782   5.891  0.5058 -1.3982  2.5298
  164MOL   C21042916   6.096   0.714   5.688 -0.5579 -0.4202  0.1510
  164MOL   N21142917   6.008   0.828   5.684  0.1227 -0.6473  0.6092
  164MOL   C21242918   6.052   0.953   5.650 -0.6567  0.0429  0.0091
  164MOL   O21342919   6.168   0.975   5.620  0.5452 -0.7478  0.6182
  164MOL   C21442920   5.958   1.068   5.673  0.5035  0.4399 -0.1195
  164MOL   C21542921   6.009   0.603   5.631 -0.0401  0.6474  0.8006
  164MOL   H21642922   6.175   0.726   5.613  0.8451  2.0264  1.9729
  164MOL   H21742923   5.913   0.835   5.716 -0.1759 -0.7075 -0.2510
  164MOL   H21842924   5.965   1.110   5.773 -4.6412  2.4481 -0.4589
  164MOL   H21942925   5.987   1.155   5.615  2.4996  0.3265  0.6902
  164MOL   H22042926   5.857   1.031   5.653  1.0599 -1.1962  0.0623
  164MOL   H22142927   5.926   0.593   5.701  0.5536  1.0066  1.5601
  164MOL   H22242928   5.966   0.630   5.534  0.8333 -0.9667 -0.0639
  164MOL   C22342929   6.074   0.470   5.609 -0.1900 -0.2215  0.4204
  164MOL   N22442930   6.191   0.485   5.520  0.0028  0.1077 -0.3013
  164MOL   C22542931   6.318   0.482   5.558  0.7054  0.0094  0.1776
  164MOL   O22642932   6.349   0.442   5.672  0.0032 -0.4046  0.0804
  164MOL   C22742933   6.418   0.514   5.450 -0.3845  0.2016  0.0082
  164MOL   C22842934   5.969   0.371   5.557 -0.6261  0.1575  0.6398
  164MOL   H22942935   6.101   0.426   5.705 -0.1978 -0.5081  0.2923
  164MOL   H23042936   6.171   0.507   5.423 -0.0780  1.5725  0.0479
  164MOL   H23142937   6.392   0.599   5.388  0.4872  1.1546  0.9370
  164MOL   H23242938   6.513   0.514   5.502 -1.0639  0.2625  1.2754
  164MOL   H23342939   6.425   0.427   5.384  1.2938 -0.5079  1.0814
  164MOL   H23442940   5.916   0.428   5.480 -0.8365 -2.9767 -1.6043
  164MOL   H23542941   6.010   0.289   5.499 -1.8884  0.3727 -0.6015
  164MOL   C23642942   5.856   0.313   5.645 -0.0083 -0.3208  0.6328
  164MOL   N23742943   5.916   0.264   5.771  0.0883 -0.0656  0.3121
  164MOL   C23842944   5.899   0.323   5.889 -0.9199 -0.3907  0.4780
  164MOL   O23942945   5.839   0.429   5.906 -0.2479 -0.4210 -0.1498
  164MOL   C24042946   5.967   0.255   6.012  0.5358 -0.1465  0.2972
  164MOL   C24142947   5.790   0.194   5.568  0.1324  0.0690 -0.2409
  164MOL   H24242948   5.787   0.396   5.660  2.7518  1.8005  2.1409
  164MOL   H24342949   5.975   0.183   5.762  1.7005  1.2548 -1.3397
  164MOL   H24442950   5.951   0.147   6.001 -0.2323  0.1246 -1.2835
  164MOL   H24542951   6.075   0.269   6.021  0.3240  1.1307  0.8462
  164MOL   H24642952   5.921   0.298   6.101 -0.3658  1.3388 -0.8769
  164MOL   H24742953   5.737   0.225   5.478 -1.4813 -1.8539  0.0077
  164MOL   H24842954   5.867   0.122   5.539  0.0405 -1.0566  2.2172
  164MOL   C24942955   5.696   0.108   5.650  0.4904  0.2178  0.3249
  164MOL   N25042956   5.625   7.839   5.575 -0.1728 -0.5129 -0.3348
  164MOL   C25142957   5.680   7.745   5.504 -0.3769  0.2912  0.1958
  164MOL   O25242958   5.800   7.731   5.495  0.8049  0.4936  0.1296
  164MOL   C25342959   5.590   7.653   5.423  0.5103  0.0903  0.8400
  164MOL   C25442960   5.596   0.185   5.730 -0.2283 -0.3903  0.2239
  164MOL   H25542961   5.753   0.058   5.729 -1.2351 -3.9529 -0.9123
  164MOL   H25642962   5.526   0.017   5.567 -0.0404  0.7178  0.5594
  164MOL   H25742963   5.511   7.609   5.484 -0.8667  1.1936 -0.1015
  164MOL   H25842964   5.550   7.709   5.338 -0.0460 -0.8993  0.4403
  164MOL   H25942965   5.646   7.574   5.374 -1.8675 -0.7444 -0.6555
  164MOL   H26042966   5.629   0.259   5.803 -0.0454  0.1583 -0.4102
  164MOL   H26142967   5.541   0.245   5.657 -1.6767  1.2399  2.5733
  164MOL   H26242968   5.536   0.109   5.780  0.0714 -0.2090  0.8673
  165MOL     C142969   4.583   2.869   3.879 -0.1003  0.8198 -1.0554
  165MOL     N242970   4.617   2.913   3.743  0.6664 -0.2842  0.8695
  165MOL     C342971   4.580   2.854   3.627  0.1179  0.0988  0.1192
  165MOL     O442972   4.534   2.744   3.622 -0.2552  0.9119  0.6550
  165MOL     C542973   4.618   2.928   3.500 -0.1015 -0.0000  0.0007
  165MOL     C642974   4.695   2.784   3.937  0.4244 -0.3484  1.1433
  165MOL     H742975   4.564   2.959   3.937 -1.2297  1.7744 -2.8768
  165MOL     H842976   4.672   2.998   3.747  1.1668 -0.4827 -1.2895
  165MOL     H942977   4.609   2.858   3.417  1.3304 -0.6141  0.3527
  165MOL    H1042978   4.561   3.019   3.480 -0.6306 -0.2225  0.5085
  165MOL    H1142979   4.722   2.958   3.513 -0.4336  0.0990  2.5212
  165MOL    H1242980   4.716   2.699   3.872  2.4805  0.9238  0.1237
  165MOL    H1342981   4.776   2.857   3.937  2.4637 -2.5629  1.2044
  165MOL    H1442982   4.488   2.815   3.876  0.8480 -1.1402  2.0561
  165MOL    C1542983   4.659   2.744   4.084 -0.0137  0.3551  1.1350
  165MOL    N1642984   4.779   2.677   4.129 -0.1163 -0.0828 -0.8619
  165MOL    C1742985   4.890   2.742   4.163  0.0336  0.3719  0.2754
  165MOL    O1842986   4.901   2.861   4.170  0.5831  0.1736 -0.4940
  165MOL    C1942987   5.005   2.651   4.187 -0.1477 -0.1588 -0.9090
  165MOL    C2042988   4.530   2.657   4.107 -0.1543  0.0149 -0.8078
  165MOL    H2142989   4.632   2.839   4.130 -4.0760  0.9314 -2.1580
  165MOL    H2242990   4.773   2.578   4.149 -0.5052 -0.1613 -1.3538
  165MOL    H2342991   4.981   2.548   4.160 -0.9901  0.1462 -1.3245
  165MOL    H2442992   5.094   2.680   4.131  0.4657 -0.1596  0.0414
  165MOL    H2542993   5.025   2.664   4.294 -0.3608 -0.4949 -0.8258
  165MOL    H2642994   4.471   2.633   4.019 -1.9286 -0.8062  0.5700
  165MOL    H2742995   4.567   2.561   4.143  3.0083  1.0816 -0.9858
  165MOL    C2842996   4.421   2.725   4.195  0.5181  0.0474 -0.7205
  165MOL    N2942997   4.452   2.708   4.337 -0.4432 -0.3160 -0.2529
  165MOL    C3042998   4.534   2.784   4.418  0.2739  0.3967  0.3487
  165MOL    O3142999   4.584   2.883   4.368  0.3054  0.2020  0.5981
  165MOL    C3243000   4.547   2.743   4.564  0.1531 -0.6968 -0.5990
  165MOL    C3343001   4.281   2.672   4.173 -0.3738  0.3632  0.7789
  165MOL    H3443002   4.416   2.830   4.166  0.3530 -0.1458 -1.4006
  165MOL    H3543003   4.413   2.622   4.370 -0.8911 -1.2890 -3.1606
  165MOL    H3643004   4.648   2.728   4.602 -0.8500 -0.1718  2.4346
  165MOL    H3743005   4.502   2.820   4.627 -1.8362 -1.8546 -0.5597
  165MOL    H3843006   4.496   2.653   4.597  2.6148 -1.7460  0.4886
  165MOL    H3943007   4.290   2.564   4.169  0.0169  0.3604  1.6836
  165MOL    H4043008   4.220   2.701   4.259  0.0847  1.0257  0.8834
  165MOL    C4143009   4.204   2.713   4.044 -0.4945 -0.4903  0.7070
  165MOL    N4243010   4.207   2.858   4.025 -0.1753  0.5603  0.3340
  165MOL    C4343011   4.172   2.952   4.117  0.5773  0.0322 -0.6573
  165MOL    O4443012   4.125   2.932   4.227  0.0128 -0.3705 -0.1351
  165MOL    C4543013   4.199   3.090   4.081  0.0471  0.5209  0.0786
  165MOL    C4643014   4.059   2.663   4.037 -0.2150 -0.1692  0.1869
  165MOL    H4743015   4.256   2.679   3.954  0.1496 -0.6162  1.1260
  165MOL    H4843016   4.240   2.883   3.933  1.2335 -2.2204  0.0316
  165MOL    H4943017   4.258   3.144   4.157  1.8174 -0.3433 -0.6482
  165MOL    H5043018   4.261   3.099   3.992 -0.5633  1.9720 -0.2234
  165MOL    H5143019   4.105   3.143   4.067  0.0348  0.3117 -0.6035
  165MOL    H5243020   4.075   2.555   4.035 -0.3561 -0.1949  0.5855
  165MOL    H5343021   4.007   2.698   4.126 -0.3846  0.4971 -0.1766
  165MOL    C5443022   3.974   2.701   3.918 -0.0141  0.8497 -0.1224
  165MOL    N5543023   3.837   2.672   3.940  0.3117 -0.6454 -0.2949
  165MOL    C5643024   3.742   2.775   3.939 -0.0462  0.4544  0.1245
  165MOL    O5743025   3.741   2.871   3.866  0.2040 -0.1426  0.2304
  165MOL    C5843026   3.608   2.745   4.021 -0.8835  0.0065  0.3435
  165MOL    C5943027   4.022   2.627   3.789  0.4272 -0.2197  0.4715
  165MOL    H6043028   3.982   2.807   3.895  0.6766  0.4854 -1.6182
  165MOL    H6143029   3.811   2.581   3.974 -1.6293  1.2230  3.5607
  165MOL    H6243030   3.613   2.678   4.107  1.4847  0.3572  0.5042
  165MOL    H6343031   3.573   2.837   4.067 -1.1550  1.5517 -2.7836
  165MOL    H6443032   3.534   2.711   3.948  0.0165  0.5535 -0.8531
  165MOL    H6543033   4.131   2.630   3.786  0.4229 -0.3632  0.1826
  165MOL    H6643034   3.994   2.522   3.789  0.3523 -0.2024 -0.3806
  165MOL    C6743035   3.982   2.690   3.651  0.8107  0.0060  0.8355
  165MOL    N6843036   3.843   2.662   3.620  0.1798 -0.5820  0.2802
  165MOL    C6943037   3.783   2.554   3.566  0.7786 -0.5996  0.0188
  165MOL    O7043038   3.840   2.447   3.541 -0.6023  0.2525  0.3539
  165MOL    C7143039   3.639   2.568   3.532  0.0644  0.2458 -0.1033
  165MOL    C7243040   4.078   2.661   3.530 -0.3075 -0.4019  0.8055
  165MOL    H7343041   3.987   2.798   3.666 -1.2413  0.0907  1.1407
  165MOL    H7443042   3.781   2.737   3.646  2.0241  1.3008 -0.6481
  165MOL    H7543043   3.605   2.493   3.460 -1.8735  0.0799  0.9369
  165MOL    H7643044   3.578   2.553   3.621  0.4655  0.8143  0.2691
  165MOL    H7743045   3.623   2.667   3.490 -3.2697  0.0764  0.6290
  165MOL    H7843046   4.180   2.649   3.565  0.4009 -1.2668 -1.4280
  165MOL    H7943047   4.043   2.570   3.481  0.0613  0.9656 -2.1306
  165MOL    C8043048   4.080   2.777   3.417 -0.2635 -0.4553 -0.2907
  165MOL    N8143049   3.941   2.811   3.380  0.2519  0.1537 -0.0725
  165MOL    C8243050   3.880   2.929   3.389  0.0112 -0.6607 -1.1594
  165MOL    O8343051   3.932   3.024   3.441 -0.4545  0.5611 -0.0559
  165MOL    C8443052   3.749   2.940   3.326 -0.1120  0.2400  0.0811
  165MOL    C8543053   4.158   2.733   3.296  0.2778  0.2926  0.1455
  165MOL    H8643054   4.135   2.863   3.454 -0.5862  0.0512 -0.9804
  165MOL    H8743055   3.894   2.741   3.325 -1.5528  0.5395  0.9250
  165MOL    H8843056   3.745   2.991   3.229 -1.9198  0.8573  0.4584
  165MOL    H8943057   3.705   2.841   3.316 -1.2227  0.9564 -2.4277
  165MOL    H9043058   3.679   2.999   3.385  1.0012  0.7860  0.8870
  165MOL    H9143059   4.136   2.633   3.260  4.4511 -0.4790 -0.4979
  165MOL    H9243060   4.137   2.792   3.206 -1.5274 -1.5230 -0.6512
  165MOL    C9343061   4.313   2.743   3.312  0.7593 -0.4533 -0.5604
  165MOL    N9443062   4.370   2.850   3.230 -0.0744  0.6797 -0.1326
  165MOL    C9543063   4.392   2.974   3.269  0.5815 -0.4243  0.2220
  165MOL    O9643064   4.334   3.021   3.374  0.0058 -0.2674 -0.6936
  165MOL    C9743065   4.481   3.058   3.192  0.0260 -0.4579  0.6293
  165MOL    C9843066   4.385   2.610   3.275  0.0857  0.9794 -0.2556
  165MOL    H9943067   4.334   2.765   3.417 -0.5821 -1.4620 -0.0693
  165MOL   H10043068   4.434   2.825   3.156 -3.2500 -3.5345 -1.7094
  165MOL   H10143069   4.566   2.992   3.174 -0.4934  0.0440 -4.2308
  165MOL   H10243070   4.445   3.070   3.090 -0.6017 -1.8538  0.6663
  165MOL   H10343071   4.506   3.148   3.247 -0.2333  0.4454 -0.7160
  165MOL   H10443072   4.373   2.594   3.168  1.5611 -2.4980  0.0370
  165MOL   H10543073   4.492   2.626   3.285  0.1173  0.1740  0.7875
  165MOL   C10643074   4.350   2.482   3.355  0.1058  0.6222  0.5325
  165MOL   N10743075   4.424   2.497   3.480 -0.0116  0.8834 -0.6658
  165MOL   C10843076   4.382   2.465   3.601  0.1254 -0.1678  1.0911
  165MOL   O10943077   4.277   2.419   3.628  0.6473  0.0584  0.1817
  165MOL   C11043078   4.479   2.478   3.718  0.9801  0.4563 -0.5235
  165MOL   C11143079   4.403   2.361   3.273 -0.1339  0.9975  0.1769
  165MOL   H11243080   4.242   2.473   3.369  0.1150  0.6124  0.5919
  165MOL   H11343081   4.519   2.531   3.474  0.8975 -1.2381  0.8049
  165MOL   H11443082   4.581   2.498   3.682  0.0376  0.4350 -3.3389
  165MOL   H11543083   4.448   2.560   3.783  3.1187  0.5087  0.4705
  165MOL   H11643084   4.499   2.390   3.779 -0.3315  0.7008  0.2730
  165MOL   H11743085   4.346   2.366   3.180 -2.7198  0.2658  1.6702
  165MOL   H11843086   4.506   2.372   3.239  0.5608 -1.4574  1.3134
  165MOL   C11943087   4.390   2.220   3.340  0.1992  0.1736 -0.2717
  165MOL   N12043088   4.454   2.118   3.256  0.3298 -0.3859 -0.4862
  165MOL   C12143089   4.416   2.077   3.130 -0.2463  0.4848 -0.0512
  165MOL   O12243090   4.314   2.106   3.067  0.0466 -0.4859  0.5413
  165MOL   C12343091   4.522   1.999   3.052  0.4329 -0.4100 -0.2742
  165MOL   C12443092   4.242   2.181   3.383 -0.5912 -0.1410 -0.3859
  165MOL   H12543093   4.449   2.223   3.432  0.3755  0.9836 -0.4091
  165MOL   H12643094   4.539   2.082   3.296  0.0968 -0.8963 -0.4427
  165MOL   H12743095   4.466   1.944   2.977  0.8019 -2.7750  1.1139
  165MOL   H12843096   4.592   2.065   3.000  1.1287  1.3256  2.7415
  165MOL   H12943097   4.564   1.917   3.111 -0.4878  0.8979  2.2916
  165MOL   H13043098   4.216   2.264   3.449 -0.2601 -0.2119 -0.1638
  165MOL   H13143099   4.181   2.192   3.293 -0.6516 -1.1252 -0.4714
  165MOL   C13243100   4.233   2.047   3.469  0.2324  0.4988  0.7292
  165MOL   N13343101   4.209   1.931   3.381 -0.3612  0.1733  0.6797
  165MOL   C13443102   4.277   1.817   3.370 -0.3063 -0.6929  0.4608
  165MOL   O13543103   4.392   1.801   3.422 -0.0749  0.0458 -0.0379
  165MOL   C13643104   4.211   1.707   3.295 -0.2652  0.2856  0.3670
  165MOL   C13743105   4.134   2.053   3.584  0.0418  0.3568 -0.7568
  165MOL   H13843106   4.333   2.037   3.512  0.2039  0.6644  0.8336
  165MOL   H13943107   4.115   1.930   3.344 -1.0331  2.6985  2.1783
  165MOL   H14043108   4.169   1.731   3.198  0.4532 -0.8895 -0.2458
  165MOL   H14143109   4.275   1.619   3.280 -0.6912  0.0827 -0.2729
  165MOL   H14243110   4.125   1.680   3.356  0.7519  0.8867  2.0980
  165MOL   H14343111   4.170   1.974   3.651 -1.0685  0.9672  0.5899
  165MOL   H14443112   4.143   2.146   3.639  0.2618 -0.1941  0.1546
  165MOL   C14543113   3.983   2.023   3.551  0.4492 -0.5883  0.2403
  165MOL   N14643114   3.938   2.136   3.468 -0.3701 -0.0930 -0.1587
  165MOL   C14743115   3.919   2.123   3.330  0.2565 -0.0084 -0.0863
  165MOL   O14843116   3.950   2.024   3.260 -0.1431 -0.3578 -0.8504
  165MOL   C14943117   3.869   2.251   3.262  0.0676 -0.1590  0.2296
  165MOL   C15043118   3.895   1.985   3.674 -0.3260 -0.2790  0.2448
  165MOL   H15143119   3.973   1.932   3.493 -0.5524  0.0140 -0.5361
  165MOL   H15243120   3.889   2.212   3.515 -0.3438 -0.5344  0.5976
  165MOL   H15343121   3.790   2.305   3.315 -0.2868 -0.2222 -0.2344
  165MOL   H15443122   3.954   2.319   3.255 -1.0475  1.4254  1.5338
  165MOL   H15543123   3.836   2.236   3.160  0.3492  1.3349 -0.0855
  165MOL   H15643124   3.910   2.063   3.749  0.5778  0.3740 -0.5989
  165MOL   H15743125   3.790   1.998   3.646 -0.2114  0.5064  0.1616
  165MOL   C15843126   3.924   1.844   3.726 -0.1995  0.2374  0.7692
  165MOL   N15943127   3.893   1.746   3.622 -0.0548  0.1748 -0.9983
  165MOL   C16043128   3.947   1.625   3.608  0.2606  0.0866 -0.2676
  165MOL   O16143129   4.035   1.580   3.681 -0.1294  0.1386  0.0313
  165MOL   C16243130   3.894   1.524   3.508 -0.5521 -0.4086 -0.0875
  165MOL   C16343131   3.842   1.817   3.855  0.9457 -0.3650 -0.5320
  165MOL   H16443132   4.029   1.850   3.755  0.6160  0.7330 -2.0848
  165MOL   H16543133   3.816   1.772   3.563 -1.3036  0.2122  0.6127
  165MOL   H16643134   3.930   1.545   3.407  5.7203 -1.9670  1.6713
  165MOL   H16743135   3.924   1.422   3.527 -2.8095 -0.9889  0.5249
  165MOL   H16843136   3.785   1.531   3.510 -0.6410 -1.6854 -0.4921
  165MOL   H16943137   3.734   1.811   3.837  0.7017 -1.3658  1.1495
  165MOL   H17043138   3.869   1.717   3.889  1.5113  0.4523  1.5073
  165MOL   C17143139   3.872   1.909   3.973 -0.2862  0.7098  0.1289
  165MOL   N17243140   4.019   1.913   4.001 -0.0134  0.6329  0.6184
  165MOL   C17343141   4.087   2.018   4.036  0.7853  1.0151 -0.3504
  165MOL   O17443142   4.043   2.132   4.026  0.0632 -0.4045  0.5139
  165MOL   C17543143   4.220   1.993   4.100 -0.3289 -0.0743  0.2066
  165MOL   C17643144   3.800   1.841   4.098 -0.6790 -0.2060 -0.1134
  165MOL   H17743145   3.830   2.007   3.952  1.9606  1.4330 -1.2249
  165MOL   H17843146   4.058   1.820   4.013 -2.0798 -0.4907 -1.1179
  165MOL   H17943147   4.204   1.974   4.206 -0.0035  1.8580  0.6125
  165MOL   H18043148   4.277   1.908   4.062 -1.0678 -1.2964  1.7772
  165MOL   H18143149   4.288   2.078   4.101  0.7560 -0.9223 -0.4421
  165MOL   H18243150   3.810   1.732   4.101  0.3897 -0.1284 -0.4971
  165MOL   H18343151   3.847   1.860   4.194 -0.9047  0.7607 -0.1965
  165MOL   C18443152   3.659   1.875   4.124  0.4731  0.6107  0.0222
  165MOL   N18543153   3.568   1.860   4.009 -0.1237 -0.2194  0.1723
  165MOL   C18643154   3.463   1.780   3.993  0.2643  0.5588  0.8533
  165MOL   O18743155   3.415   1.720   4.087  0.1876 -0.7322  0.4746
  165MOL   C18843156   3.405   1.761   3.857  0.3970 -0.1950  0.7119
  165MOL   C18943157   3.639   2.024   4.164  0.5570  0.3796  0.3573
  165MOL   H19043158   3.629   1.811   4.207 -0.4365  0.1958 -0.6170
  165MOL   H19143159   3.559   1.929   3.936 -1.1257 -3.0365 -2.4859
  165MOL   H19243160   3.448   1.816   3.773  0.0464  1.0906  1.3629
  165MOL   H19343161   3.410   1.653   3.844 -1.7598 -0.4542  1.8913
  165MOL   H19443162   3.301   1.787   3.876  0.7163  2.1025 -0.5665
  165MOL   H19543163   3.653   2.085   4.075  0.7296  1.3751  1.0580
  165MOL   H19643164   3.539   2.035   4.205  0.2983  1.0482 -0.4403
  165MOL   C19743165   3.730   2.085   4.271 -0.3336  1.3503 -0.0836
  165MOL   N19843166   3.723   2.017   4.401 -0.2620  0.6423 -0.6133
  165MOL   C19943167   3.826   1.999   4.489  0.0376 -0.7426  0.0511
  165MOL   O20043168   3.938   2.049   4.472 -0.1987 -0.0966  0.1530
  165MOL   C20143169   3.802   1.904   4.605 -0.4370 -0.0118  0.1367
  165MOL   C20243170   3.699   2.238   4.296 -0.4389 -0.6363  0.1765
  165MOL   H20343171   3.832   2.086   4.232  0.6483 -1.3269  2.2148
  165MOL   H20443172   3.632   1.984   4.429  0.1062 -0.5501 -0.8218
  165MOL   H20543173   3.795   1.967   4.694  0.2211  0.1693  0.0630
  165MOL   H20643174   3.707   1.851   4.603 -0.0998 -0.6107 -0.1796
  165MOL   H20743175   3.879   1.826   4.602 -1.1612 -0.6997 -1.1721
  165MOL   H20843176   3.604   2.264   4.250 -0.0446  0.7897  0.1458
  165MOL   H20943177   3.692   2.266   4.402 -3.4982 -2.2295  0.4434
  165MOL   C21043178   3.805   2.344   4.247 -0.2039 -0.4300 -0.2033
  165MOL   N21143179   3.842   2.321   4.109  0.4030 -0.5030 -0.3574
  165MOL   C21243180   3.767   2.354   4.006 -0.0945 -0.3401 -0.2851
  165MOL   O21343181   3.661   2.424   4.010 -0.3209  0.5021 -0.0241
  165MOL   C21443182   3.812   2.308   3.870  0.0684  0.4160 -0.2714
  165MOL   C21543183   3.943   2.341   4.332  0.0920 -0.3959  0.1303
  165MOL   H21643184   3.756   2.440   4.261  0.0252 -0.4785  0.9613
  165MOL   H21743185   3.917   2.255   4.094 -0.6188 -2.0471  1.1367
  165MOL   H21843186   3.792   2.382   3.793  1.4492  1.5698  0.4501
  165MOL   H21943187   3.918   2.281   3.871  0.1887  0.9181  1.2598
  165MOL   H22043188   3.748   2.222   3.848  0.6663  0.0379 -0.5733
  165MOL   H22143189   3.913   2.310   4.432  0.9584 -0.4713  0.3638
  165MOL   H22243190   4.004   2.259   4.295  1.2189 -0.0181  1.1269
  165MOL   C22343191   4.038   2.458   4.346  0.0080 -0.0177 -0.3166
  165MOL   N22443192   4.136   2.437   4.451 -0.7570 -0.1053  0.1112
  165MOL   C22543193   4.253   2.377   4.427 -0.1575  0.1535  0.1290
  165MOL   O22643194   4.289   2.336   4.321  0.0756 -0.4138  0.0382
  165MOL   C22743195   4.355   2.350   4.542 -0.9975 -0.7844 -0.2796
  165MOL   C22843196   3.959   2.586   4.387 -0.0945  0.4244  0.5673
  165MOL   H22943197   4.078   2.470   4.245  1.4545 -2.9746 -0.1404
  165MOL   H23043198   4.112   2.473   4.542  0.2436  1.8002 -0.3510
  165MOL   H23143199   4.394   2.447   4.573 -2.3404 -0.0188 -0.9122
  165MOL   H23243200   4.294   2.302   4.619 -1.5589  0.3394 -0.0197
  165MOL   H23343201   4.440   2.293   4.505 -1.1913 -1.6733  0.5993
  165MOL   H23443202   4.036   2.656   4.417  1.2441 -0.0263 -1.6959
  165MOL   H23543203   3.916   2.636   4.300 -0.5252  0.4009  0.7667
  165MOL   C23643204   3.845   2.581   4.488  0.2758  0.6133  0.1497
  165MOL   N23743205   3.745   2.680   4.462 -0.1420  0.1412 -0.3285
  165MOL   C23843206   3.613   2.665   4.442 -0.8051 -0.0178  0.3260
  165MOL   O23943207   3.551   2.558   4.436 -0.1289  0.7140 -0.6870
  165MOL   C24043208   3.534   2.793   4.419 -0.3393 -0.5539 -0.3266
  165MOL   C24143209   3.901   2.574   4.636  0.2896 -1.1623 -0.3796
  165MOL   H24243210   3.790   2.489   4.472  2.5037 -0.7767  0.1926
  165MOL   H24343211   3.772   2.777   4.466 -0.3618  0.2565 -1.4965
  165MOL   H24443212   3.572   2.882   4.470  2.3997 -1.2236 -1.1123
  165MOL   H24543213   3.541   2.817   4.313 -1.2249 -0.9841 -0.4847
  165MOL   H24643214   3.430   2.773   4.444 -0.0713  0.6380  1.8972
  165MOL   H24743215   3.973   2.493   4.647  1.8005  0.3917  1.5676
  165MOL   H24843216   3.958   2.662   4.663 -1.0825 -1.1286  2.6216
  165MOL   C24943217   3.797   2.544   4.746 -0.5120 -0.5403 -0.6965
  165MOL   N25043218   3.706   2.436   4.708  0.0268 -0.2800 -0.0110
  165MOL   C25143219   3.707   2.309   4.763 -0.2883  1.1827 -0.1989
  165MOL   O25243220   3.798   2.265   4.830 -0.3217  0.3467 -0.1891
  165MOL   C25343221   3.588   2.221   4.738 -1.1089  0.4371  0.1428
  165MOL   C25443222   3.716   2.662   4.792 -0.1542 -0.2172 -0.5454
  165MOL   H25543223   3.846   2.518   4.840  0.7154 -0.9422 -1.4376
  165MOL   H25643224   3.631   2.452   4.642  0.0809  0.1012  0.0190
  165MOL   H25743225   3.591   2.132   4.800  1.1379 -0.1288 -0.7365
  165MOL   H25843226   3.493   2.272   4.752 -1.8632 -1.1698  1.0227
  165MOL   H25943227   3.585   2.186   4.635 -2.9487  1.0679 -0.0371
  165MOL   H26043228   3.645   2.622   4.864 -0.9892  1.0597 -0.6466
  165MOL   H26143229   3.772   2.752   4.818 -0.3176 -0.7156  1.6560
  165MOL   H26243230   3.648   2.707   4.720 -0.8234 -0.7972 -0.2829
  166MOL     C143231   4.731   2.855   2.126  0.0371  0.8311  0.1983
  166MOL     N243232   4.700   2.778   2.001 -0.1575  0.3329  0.0859
  166MOL     C343233   4.794   2.712   1.929  0.1331  0.2674 -0.0360
  166MOL     O443234   4.912   2.707   1.962 -0.1967  0.2289  0.2018
  166MOL     C543235   4.749   2.625   1.815  0.0795  0.8467  0.0492
  166MOL     C643236   4.677   2.995   2.130  0.3814  0.4598  0.2325
  166MOL     H743237   4.700   2.795   2.211 -1.0610  3.0194  1.3938
  166MOL     H843238   4.603   2.768   1.974  0.0583  1.4968 -1.2008
  166MOL     H943239   4.824   2.642   1.738 -0.3365 -0.3797 -0.6252
  166MOL    H1043240   4.722   2.521   1.832 -1.5017  1.2955  0.3745
  166MOL    H1143241   4.659   2.674   1.778 -0.0263  0.2552 -0.4784
  166MOL    H1243242   4.712   3.053   2.216 -2.5350  1.1236  1.0076
  166MOL    H1343243   4.711   3.052   2.044 -0.5601 -0.7099 -0.9170
  166MOL    H1443244   4.838   2.865   2.146  0.3666 -1.3966 -0.3153
  166MOL    C1543245   4.526   3.014   2.128  0.2009  0.8654  0.0823
  166MOL    N1643246   4.504   3.158   2.117 -0.1270  0.2271 -0.7363
  166MOL    C1743247   4.429   3.234   2.034  0.3658 -0.0183  1.0163
  166MOL    O1843248   4.360   3.190   1.942  0.3362  0.1137 -0.4263
  166MOL    C1943249   4.441   3.379   2.043 -0.3658  0.2188  0.5334
  166MOL    C2043250   4.457   2.947   2.250 -0.4514  0.0272  0.1309
  166MOL    H2143251   4.478   2.975   2.039  0.8737  1.4816 -0.5542
  166MOL    H2243252   4.566   3.209   2.178 -0.4419 -1.0400  0.6712
  166MOL    H2343253   4.467   3.419   2.141  1.7889  1.4064 -0.4997
  166MOL    H2443254   4.526   3.416   1.986 -0.6841  1.5129  0.8711
  166MOL    H2543255   4.354   3.432   2.003  0.2704  1.2656  0.5281
  166MOL    H2643256   4.478   2.841   2.238 -0.2022  0.3226 -2.2710
  166MOL    H2743257   4.515   2.989   2.333  0.4849 -1.4433  0.2374
  166MOL    C2843258   4.304   2.957   2.274  0.4256  0.2996 -0.1193
  166MOL    N2943259   4.280   2.912   2.413  0.5284  0.2584 -0.1519
  166MOL    C3043260   4.172   2.932   2.491  0.2676  0.0484 -0.5182
  166MOL    O3143261   4.080   3.020   2.471 -0.4040 -0.0408  0.1097
  166MOL    C3243262   4.181   2.860   2.627 -0.3590  0.1203 -0.2863
  166MOL    C3343263   4.224   2.869   2.173  0.4845  0.1522 -0.0965
  166MOL    H3443264   4.275   3.062   2.274  1.4861  0.5876  0.2167
  166MOL    H3543265   4.348   2.845   2.446 -0.3742 -0.5164  0.1564
  166MOL    H3643266   4.081   2.856   2.671  0.6479 -0.5532  1.9744
  166MOL    H3743267   4.206   2.755   2.610  1.1128  0.1566  1.6113
  166MOL    H3843268   4.243   2.916   2.696  0.6471 -2.2917  0.8350
  166MOL    H3943269   4.301   2.816   2.118 -2.1401 -3.8040 -0.1514
  166MOL    H4043270   4.163   2.790   2.217  2.0379 -0.5410  0.8720
  166MOL    C4143271   4.128   2.947   2.075  0.1568 -0.4314 -0.0788
  166MOL    N4243272   4.026   3.013   2.167 -0.2478  0.7885  0.4284
  166MOL    C4343273   3.939   3.105   2.133  0.2281  0.1385 -0.0398
  166MOL    O4443274   3.922   3.157   2.024  0.5809  1.1262  0.1220
  166MOL    C4543275   3.847   3.161   2.246 -0.0739 -0.3382 -0.3370
  166MOL    C4643276   4.053   2.854   1.978 -0.0412 -0.2354 -0.3894
  166MOL    H4743277   4.190   3.012   2.012 -1.0180  0.4498 -0.3376
  166MOL    H4843278   4.031   2.994   2.266  1.9486 -1.9444 -0.1409
  166MOL    H4943279   3.879   3.182   2.348 -1.2531  0.4956 -0.1148
  166MOL    H5043280   3.812   3.261   2.220  1.6753  1.1610  2.7215
  166MOL    H5143281   3.756   3.101   2.250 -0.8003  0.7904  0.5888
  166MOL    H5243282   3.975   2.801   2.034 -0.6781  2.1686  1.0567
  166MOL    H5343283   3.998   2.924   1.916 -0.8129 -1.9031 -1.6347
  166MOL    C5443284   4.149   2.760   1.891 -1.0275 -0.6407  0.1560
  166MOL    N5543285   4.243   2.842   1.814  0.3768  0.7264 -0.3723
  166MOL    C5643286   4.375   2.837   1.824 -0.8663 -0.3975 -0.4541
  166MOL    O5743287   4.430   2.748   1.885  0.7428 -0.4512 -0.4294
  166MOL    C5843288   4.453   2.944   1.739  0.1787  0.1861 -0.4012
  166MOL    C5943289   4.077   2.657   1.799  0.1743 -0.3910 -0.5618
  166MOL    H6043290   4.203   2.703   1.966 -1.0086 -0.7760  0.0397
  166MOL    H6143291   4.205   2.898   1.739 -1.0300 -0.6194 -0.6856
  166MOL    H6243292   4.401   3.030   1.697 -0.0010  0.6430  0.7176
  166MOL    H6343293   4.522   2.979   1.816 -1.8563 -0.1726  1.6535
  166MOL    H6443294   4.514   2.895   1.664 -1.5828 -2.2128 -0.3502
  166MOL    H6543295   4.022   2.708   1.719  0.4860  0.9159  0.0407
  166MOL    H6643296   4.156   2.600   1.751  0.3461 -0.7975  0.2096
  166MOL    C6743297   3.966   2.563   1.853 -0.1574 -0.0648 -0.2229
  166MOL    N6843298   4.004   2.525   1.989  0.4724 -0.1944  0.0230
  166MOL    C6943299   3.936   2.535   2.110 -0.3720  0.1903  0.4307
  166MOL    O7043300   3.829   2.597   2.108  0.0371  0.3863 -0.0435
  166MOL    C7143301   3.979   2.462   2.234 -0.5107  0.0139  0.0838
  166MOL    C7243302   3.925   2.437   1.773 -0.3025 -0.2243 -0.1094
  166MOL    H7343303   3.876   2.622   1.873  1.1914  1.2718  2.1241
  166MOL    H7443304   4.082   2.461   1.992  1.1356  0.5475 -0.9537
  166MOL    H7543305   4.050   2.382   2.212 -0.5440 -0.1601  0.6025
  166MOL    H7643306   4.055   2.524   2.281 -0.4690  1.2394 -1.5577
  166MOL    H7743307   3.902   2.416   2.295  0.7304 -1.0441  0.8848
  166MOL    H7843308   3.822   2.428   1.808 -1.2129 -0.5792 -2.7728
  166MOL    H7943309   3.917   2.451   1.665 -1.0042  1.2858  0.1289
  166MOL    C8043310   3.997   2.302   1.796  0.2052  0.5323  0.0773
  166MOL    N8143311   4.136   2.304   1.762  0.1783 -0.3894  0.6021
  166MOL    C8243312   4.235   2.326   1.850  1.2363 -0.0309  0.3603
  166MOL    O8343313   4.209   2.344   1.972  0.4669 -0.4370 -0.0159
  166MOL    C8443314   4.379   2.333   1.799 -0.2698 -0.7641  0.6475
  166MOL    C8543315   3.927   2.186   1.718 -0.6079  0.1320  0.1705
  166MOL    H8643316   3.981   2.265   1.897 -0.3500 -0.5063 -0.3854
  166MOL    H8743317   4.161   2.286   1.665  1.2428  0.2968  0.7410
  166MOL    H8843318   4.397   2.302   1.696  0.4771 -0.2989  0.6362
  166MOL    H8943319   4.405   2.439   1.805 -0.1225 -0.8387  1.4265
  166MOL    H9043320   4.442   2.283   1.872  1.1141  1.6983  1.1804
  166MOL    H9143321   3.933   2.211   1.612  2.5745 -0.3692  0.1908
  166MOL    H9243322   3.962   2.084   1.731  1.1176  0.6450 -0.4053
  166MOL    C9343323   3.775   2.165   1.752 -0.4461 -0.7146  0.0080
  166MOL    N9443324   3.736   2.155   1.895 -0.1017  0.4656 -0.4890
  166MOL    C9543325   3.643   2.223   1.959 -0.5167 -0.3900  0.6062
  166MOL    O9643326   3.589   2.323   1.913  0.4425  0.1675  0.4182
  166MOL    C9743327   3.614   2.176   2.101 -0.6726  0.0169  0.4386
  166MOL    C9843328   3.700   2.057   1.671 -0.1320 -0.0576 -0.5799
  166MOL    H9943329   3.742   2.260   1.710  0.0201  0.2640  1.7907
  166MOL   H10043330   3.761   2.066   1.934  0.9277  0.1110 -1.9185
  166MOL   H10143331   3.635   2.071   2.119  0.3901  0.2991  0.8691
  166MOL   H10243332   3.664   2.229   2.182  1.0366 -1.1789  0.1771
  166MOL   H10343333   3.505   2.182   2.107 -0.7223  0.1647 -0.5531
  166MOL   H10443334   3.596   2.091   1.668 -0.4989 -1.0757 -0.0199
  166MOL   H10543335   3.742   2.054   1.571  0.6471 -1.2683 -0.2217
  166MOL   C10643336   3.696   1.917   1.738  0.8982  0.0629  0.1987
  166MOL   N10743337   3.826   1.856   1.762 -0.2255 -0.9944  0.0647
  166MOL   C10843338   3.887   1.856   1.880  0.6218  0.1212  0.1664
  166MOL   O10943339   3.830   1.901   1.977  0.2950  0.2517  0.3532
  166MOL   C11043340   4.026   1.796   1.883  0.7327 -0.0558 -0.6742
  166MOL   C11143341   3.616   1.824   1.647 -0.8877 -0.1932 -0.3584
  166MOL   H11243342   3.639   1.911   1.830 -1.7423  0.8466 -1.3259
  166MOL   H11343343   3.854   1.792   1.689 -0.4175  1.7123 -2.4693
  166MOL   H11443344   4.090   1.868   1.933 -0.3767  0.3755  0.1398
  166MOL   H11543345   4.020   1.701   1.938 -2.7388 -0.5081 -1.7494
  166MOL   H11643346   4.069   1.785   1.783  0.3243  0.1465 -0.8731
  166MOL   H11743347   3.519   1.867   1.620 -0.6023  0.2699 -0.6282
  166MOL   H11843348   3.661   1.820   1.548 -0.5031  0.0873 -0.1919
  166MOL   C11943349   3.602   1.674   1.688  0.3055 -0.2760 -1.1311
  166MOL   N12043350   3.659   1.580   1.585 -0.0485 -0.1151  0.2303
  166MOL   C12143351   3.785   1.546   1.566  0.3838 -0.5769 -1.0174
  166MOL   O12243352   3.878   1.579   1.644  0.0268  0.2578 -0.0387
  166MOL   C12343353   3.814   1.456   1.447 -0.7396 -0.4089 -0.1347
  166MOL   C12443354   3.451   1.644   1.709  0.6374  0.1583  0.5513
  166MOL   H12543355   3.656   1.653   1.780 -0.5440  0.5279 -0.4284
  166MOL   H12643356   3.601   1.544   1.510  0.5956  1.5676 -1.1292
  166MOL   H12743357   3.824   1.353   1.480  0.4438 -0.5889 -1.0170
  166MOL   H12843358   3.731   1.439   1.378 -1.4579 -3.5360  1.4432
  166MOL   H12943359   3.904   1.488   1.393 -0.3682 -1.1206  0.0559
  166MOL   H13043360   3.392   1.676   1.623  0.5511 -0.2317  0.4645
  166MOL   H13143361   3.439   1.536   1.705 -0.7839  0.1992  2.6469
  166MOL   C13243362   3.382   1.674   1.833 -0.1759  1.1101 -0.2512
  166MOL   N13343363   3.458   1.646   1.952 -0.7285 -0.2014 -0.4424
  166MOL   C13443364   3.510   1.735   2.043  0.0542 -0.5446  0.2233
  166MOL   O13543365   3.470   1.850   2.035 -0.1422  0.5309  0.0715
  166MOL   C13643366   3.612   1.681   2.145 -0.1625  0.5164 -0.2263
  166MOL   C13743367   3.242   1.606   1.853 -0.1310  0.4258 -0.1077
  166MOL   H13843368   3.356   1.779   1.818  2.6669  1.8673 -0.2659
  166MOL   H13943369   3.482   1.549   1.965 -1.7204 -0.2304  1.2878
  166MOL   H14043370   3.688   1.617   2.101  1.8480  1.5974  1.5653
  166MOL   H14143371   3.662   1.774   2.173  2.6920 -0.8260 -0.6661
  166MOL   H14243372   3.562   1.635   2.231  0.1149  0.2113 -0.2257
  166MOL   H14343373   3.246   1.500   1.876 -1.3009  0.7484  1.6871
  166MOL   H14443374   3.211   1.640   1.952 -0.0990  0.9346 -0.2672
  166MOL   C14543375   3.145   1.632   1.732 -0.1883  0.7466  0.2225
  166MOL   N14643376   3.012   1.624   1.795  0.3868 -0.5171  0.1685
  166MOL   C14743377   2.945   1.732   1.835 -0.1728 -0.2060  0.2981
  166MOL   O14843378   2.992   1.846   1.821  0.3199  0.1485 -0.0454
  166MOL   C14943379   2.816   1.715   1.912  0.0794 -0.2858 -0.6123
  166MOL   C15043380   3.136   1.529   1.622 -0.5049  0.0684  0.1385
  166MOL   H15143381   3.156   1.729   1.684  0.9038 -0.4979 -2.1171
  166MOL   H15243382   2.955   1.541   1.793  1.5257 -1.2885 -0.4851
  166MOL   H15343383   2.733   1.772   1.870 -0.0392 -0.9867 -1.3427
  166MOL   H15443384   2.786   1.611   1.921 -0.4100 -0.0746  0.2204
  166MOL   H15543385   2.841   1.759   2.008 -0.2498 -0.2939 -0.5216
  166MOL   H15643386   3.235   1.493   1.591 -1.2339  0.9460 -3.4241
  166MOL   H15743387   3.074   1.445   1.652 -1.9995  1.5727  1.3721
  166MOL   C15843388   3.079   1.584   1.483  0.5025 -0.1538  0.5995
  166MOL   N15943389   3.171   1.688   1.432  0.3579 -0.2460 -0.2861
  166MOL   C16043390   3.281   1.654   1.367 -0.5361  0.2830 -0.2642
  166MOL   O16143391   3.320   1.540   1.355 -0.1602  0.7159  0.1269
  166MOL   C16243392   3.362   1.767   1.300  0.6784 -0.2394  0.4702
  166MOL   C16343393   2.939   1.640   1.491  0.1499 -0.2061  0.6070
  166MOL   H16443394   3.081   1.499   1.415 -0.0035 -0.0178  0.4089
  166MOL   H16543395   3.127   1.777   1.414 -0.6118 -0.7509 -0.4487
  166MOL   H16643396   3.296   1.830   1.239 -0.1997 -0.3870  1.2612
  166MOL   H16743397   3.414   1.832   1.370 -0.0370  0.6598  0.1746
  166MOL   H16843398   3.422   1.712   1.227 -1.9815 -2.1611 -0.3377
  166MOL   H16943399   2.882   1.570   1.551  2.1947 -1.4783  1.1148
  166MOL   H17043400   2.941   1.729   1.554 -0.0493 -0.9407  1.6724
  166MOL   C17143401   2.864   1.670   1.359 -0.3143  0.0934  0.8908
  166MOL   N17243402   2.922   1.789   1.296  0.1302  0.1645  0.3513
  166MOL   C17343403   2.960   1.806   1.169  0.1545 -0.2381  0.1465
  166MOL   O17443404   2.984   1.709   1.092 -0.4989 -0.4684 -0.0809
  166MOL   C17543405   2.985   1.946   1.128 -0.3303  0.6927 -0.2572
  166MOL   C17643406   2.724   1.695   1.405  0.5919 -0.2673  0.1011
  166MOL   H17743407   2.869   1.595   1.279  1.2024  1.6419 -0.5105
  166MOL   H17843408   2.911   1.874   1.350  2.0742  0.0531  0.9853
  166MOL   H17943409   3.019   1.954   1.025 -0.1469  1.4482 -0.1411
  166MOL   H18043410   2.888   1.994   1.116  0.2526  2.1280  0.6119
  166MOL   H18143411   3.039   2.002   1.204  1.3030 -1.5551  0.2977
  166MOL   H18243412   2.687   1.605   1.455 -0.8846 -1.4229 -2.9318
  166MOL   H18343413   2.716   1.770   1.484 -2.4873  0.7072 -1.0659
  166MOL   C18443414   2.631   1.748   1.290  0.6951 -0.4446  0.1802
  166MOL   N18543415   2.511   1.815   1.338  0.1255  0.2591 -0.2587
  166MOL   C18643416   2.503   1.951   1.363  0.0917  0.2538  0.3206
  166MOL   O18743417   2.591   2.037   1.342  0.0725  0.0888 -0.2139
  166MOL   C18843418   2.372   1.993   1.423 -0.0932 -0.6497  0.0289
  166MOL   C18943419   2.576   1.630   1.199 -0.0904 -0.7175 -0.4810
  166MOL   H19043420   2.677   1.822   1.224  0.3746  0.2289  0.7090
  166MOL   H19143421   2.436   1.751   1.360  0.3733 -0.1669 -0.6552
  166MOL   H19243422   2.303   1.916   1.455  0.1035 -0.0757  1.9320
  166MOL   H19343423   2.393   2.060   1.507 -1.4254  0.8019 -0.7739
  166MOL   H19443424   2.308   2.045   1.352 -1.2146  0.8520  2.0972
  166MOL   H19543425   2.656   1.560   1.176 -0.3999 -1.2589  0.0433
  166MOL   H19643426   2.513   1.568   1.264  1.0164 -0.0011  1.3326
  166MOL   C19743427   2.512   1.674   1.062 -0.0404  0.4534  0.2701
  166MOL   N19843428   2.431   1.561   1.009  0.0623 -0.7418 -0.8226
  166MOL   C19943429   2.459   1.435   0.991  0.1748  0.0744  0.2953
  166MOL   O20043430   2.557   1.381   1.039  0.5295 -0.4920 -0.8729
  166MOL   C20143431   2.364   1.347   0.914  0.1462  0.7199 -0.3292
  166MOL   C20243432   2.602   1.720   0.943  0.5094  0.1791 -0.0960
  166MOL   H20343433   2.440   1.754   1.083  0.0722  0.2509  1.4975
  166MOL   H20443434   2.350   1.601   0.964 -0.5442 -0.6065  0.3770
  166MOL   H20543435   2.259   1.348   0.943  0.0703 -2.0658 -0.3333
  166MOL   H20643436   2.370   1.374   0.809 -1.4354 -0.7659 -0.8338
  166MOL   H20743437   2.399   1.244   0.912  2.4225  1.4566  0.9812
  166MOL   H20843438   2.534   1.762   0.869  1.5546  0.4755 -0.8982
  166MOL   H20943439   2.662   1.804   0.980 -1.4299  2.1941 -1.3799
  166MOL   C21043440   2.695   1.623   0.869 -1.4879 -0.1179  0.4524
  166MOL   N21143441   2.811   1.564   0.943  0.2938 -0.1675  0.3687
  166MOL   C21243442   2.849   1.436   0.924 -0.3184 -0.5791  0.4141
  166MOL   O21343443   2.810   1.357   0.838 -0.2589 -0.7185 -0.4865
  166MOL   C21443444   2.940   1.380   1.031 -0.0330 -0.5522  0.1128
  166MOL   C21543445   2.762   1.689   0.747  0.1111  0.0363  0.2028
  166MOL   H21643446   2.644   1.540   0.820 -1.7073 -0.6952  1.6390
  166MOL   H21743447   2.853   1.622   1.014  0.0141 -0.4003  0.7271
  166MOL   H21843448   3.046   1.396   1.010 -0.3789 -0.2676 -1.4404
  166MOL   H21943449   2.919   1.429   1.126  0.7672  2.4602 -1.2349
  166MOL   H22043450   2.919   1.273   1.042 -1.9880 -0.4076 -2.0423
  166MOL   H22143451   2.818   1.776   0.782 -0.3258 -0.4231  2.1005
  166MOL   H22243452   2.830   1.620   0.699 -0.7989 -0.6263 -0.1517
  166MOL   C22343453   2.665   1.715   0.625 -0.2200  1.3463  0.1357
  166MOL   N22443454   2.628   1.586   0.560  0.0447 -0.1454 -0.2834
  166MOL   C22543455   2.504   1.539   0.527 -0.1701 -0.2568 -0.1263
  166MOL   O22643456   2.404   1.598   0.562 -0.4729  0.0283 -0.0452
  166MOL   C22743457   2.499   1.410   0.451  0.4669  0.1296 -0.1919
  166MOL   C22843458   2.733   1.808   0.531 -0.3526 -0.6446 -0.2245
  166MOL   H22943459   2.584   1.757   0.685  1.3096 -0.2835  3.4797
  166MOL   H23043460   2.711   1.535   0.537  0.2788 -0.9240  2.2151
  166MOL   H23143461   2.468   1.429   0.348  1.7295  0.7716 -0.4635
  166MOL   H23243462   2.595   1.359   0.452  0.3739 -0.1406 -2.1005
  166MOL   H23343463   2.425   1.341   0.491 -0.5209  0.9839 -0.5354
  166MOL   H23443464   2.773   1.894   0.584  0.7839 -1.5946  0.4899
  166MOL   H23543465   2.814   1.752   0.484  1.0655  0.9208  0.3216
  166MOL   C23643466   2.642   1.865   0.412 -0.0123  0.7796  0.4668
  166MOL   N23743467   2.720   1.933   0.309  0.0163  0.2923 -0.2922
  166MOL   C23843468   2.758   1.878   0.193  0.0235 -0.5465 -0.1708
  166MOL   O23943469   2.714   1.770   0.154  0.1678 -0.5358  0.3958
  166MOL   C24043470   2.857   1.952   0.111 -0.8291  0.0909 -0.5521
  166MOL   C24143471   2.522   1.949   0.460 -0.0189 -0.2673 -0.3327
  166MOL   H24243472   2.598   1.775   0.369 -1.4138  1.4794  0.4080
  166MOL   H24343473   2.767   2.017   0.339  2.3266 -2.0625  3.0482
  166MOL   H24443474   2.934   1.997   0.174 -0.6814  0.1971 -0.8084
  166MOL   H24543475   2.918   1.875   0.063  1.4355  0.9050  0.9332
  166MOL   H24643476   2.807   2.025   0.048  0.1107 -0.9408 -2.5205
  166MOL   H24743477   2.475   1.900   0.545 -3.5884 -1.3225 -2.7987
  166MOL   H24843478   2.572   2.038   0.498 -1.5824 -0.8538  3.3282
  166MOL   C24943479   2.401   1.991   0.373  0.0964 -0.3300 -0.2747
  166MOL   N25043480   2.310   2.070   0.461  0.1154 -0.1355 -0.1246
  166MOL   C25143481   2.284   2.203   0.443 -0.8822  0.2820 -1.0368
  166MOL   O25243482   2.355   2.278   0.383  0.1007 -0.2041  0.0347
  166MOL   C25343483   2.165   2.258   0.520 -0.2630  0.1105 -0.3831
  166MOL   C25443484   2.318   1.874   0.317  0.2692 -0.0997  0.9849
  166MOL   H25543485   2.440   2.051   0.290  0.4707 -1.5307 -0.9687
  166MOL   H25643486   2.261   2.016   0.531 -0.9460  1.0982  0.0954
  166MOL   H25743487   2.089   2.182   0.532 -0.3117  0.0381 -1.1568
  166MOL   H25843488   2.205   2.303   0.612  1.2622 -1.6842 -0.1303
  166MOL   H25943489   2.126   2.335   0.453 -0.2869  0.8658  0.4798
  166MOL   H26043490   2.224   1.917   0.283  0.5823  0.2239  0.5274
  166MOL   H26143491   2.357   1.814   0.235  0.1421 -0.9036  1.5041
  166MOL   H26243492   2.281   1.807   0.395  0.1594  0.5957  1.5454
  167MOL     C143493   7.472   4.398   4.320 -0.3423  0.6459 -0.2540
  167MOL     N243494   7.528   4.437   4.191  0.3305  0.3573 -0.4037
  167MOL     C343495   7.503   4.554   4.132 -0.1985  0.1982 -0.0358
  167MOL     O443496   7.424   4.640   4.168  0.0463 -0.0673 -0.4708
  167MOL     C543497   7.577   4.568   3.996 -0.0798 -0.0699  0.1822
  167MOL     C643498   7.456   4.246   4.332  0.0069  0.1694 -1.1500
  167MOL     H743499   7.537   4.435   4.399  0.1204  1.5924 -1.0574
  167MOL     H843500   7.594   4.374   4.148 -0.5009 -1.2396  0.6355
  167MOL     H943501   7.509   4.581   3.912 -1.5023 -4.6144  0.4848
  167MOL    H1043502   7.649   4.649   4.006 -1.4215  0.9675  1.5909
  167MOL    H1143503   7.630   4.481   3.955  0.0080  0.1232 -0.1155
  167MOL    H1243504   7.417   4.200   4.241 -0.8002  0.7224 -1.0829
  167MOL    H1343505   7.554   4.198   4.335  0.1336  0.3704 -1.9011
  167MOL    H1443506   7.369   4.432   4.328 -0.6242 -0.1888 -0.3407
  167MOL    C1543507   7.376   4.211   4.459  0.1390 -0.0839 -0.3791
  167MOL    N1643508   7.444   4.253   4.581  0.3499  0.2566 -0.3768
  167MOL    C1743509   7.399   4.292   4.703  0.7218 -0.8973  0.0736
  167MOL    O1843510   7.469   4.314   4.798  0.1464 -0.5195  0.0028
  167MOL    C1943511   7.244   4.304   4.717  0.3065  0.1356 -0.6087
  167MOL    C2043512   7.336   4.059   4.472  0.3368 -0.2457 -0.5549
  167MOL    H2143513   7.288   4.274   4.451 -0.1478 -0.6338 -1.6528
  167MOL    H2243514   7.545   4.257   4.574  0.3483 -0.7287 -1.0366
  167MOL    H2343515   7.224   4.287   4.823  1.2950  0.7347 -0.3159
  167MOL    H2443516   7.210   4.406   4.696 -1.6859 -0.4805 -0.4307
  167MOL    H2543517   7.184   4.231   4.663 -2.3956  1.1757  0.8705
  167MOL    H2643518   7.416   3.989   4.496  1.3978  1.8810  2.3339
  167MOL    H2743519   7.268   4.045   4.555 -0.5784  1.2354 -1.0286
  167MOL    C2843520   7.258   3.998   4.354 -0.4960  0.3424 -0.0446
  167MOL    N2943521   7.138   3.928   4.405 -0.0656 -0.3347 -0.0255
  167MOL    C3043522   7.037   3.985   4.475  0.3063  0.0368  0.1514
  167MOL    O3143523   7.028   4.110   4.474  0.0949 -0.0523 -0.0153
  167MOL    C3243524   6.935   3.907   4.559 -0.5778  0.1578 -0.4381
  167MOL    C3343525   7.347   3.913   4.255 -0.1736 -0.1055 -0.7589
  167MOL    H3443526   7.219   4.081   4.295  1.4924  1.4951  0.2230
  167MOL    H3543527   7.134   3.828   4.391  1.8192 -0.2292 -1.5787
  167MOL    H3643528   6.875   3.978   4.615  1.4748  1.1356  0.5644
  167MOL    H3743529   6.862   3.848   4.503  0.1012 -2.2170  1.1343
  167MOL    H3843530   6.996   3.848   4.626  2.7587  1.3137 -2.3188
  167MOL    H3943531   7.426   3.972   4.210  0.7737 -1.7774 -1.3402
  167MOL    H4043532   7.393   3.829   4.307  1.0065  0.1533 -1.3815
  167MOL    C4143533   7.270   3.840   4.135  0.5853 -0.8300 -0.0218
  167MOL    N4243534   7.350   3.743   4.063 -0.0217 -0.2433  0.1483
  167MOL    C4343535   7.475   3.761   4.007  0.1542 -0.0617 -0.5596
  167MOL    O4443536   7.541   3.861   4.015 -0.0108  0.8757  0.2276
  167MOL    C4543537   7.532   3.644   3.931 -0.2533 -0.2117 -0.4429
  167MOL    C4643538   7.197   3.947   4.041  0.1604  0.5574 -0.2666
  167MOL    H4743539   7.193   3.777   4.182 -1.6477  1.4616 -0.4938
  167MOL    H4843540   7.316   3.650   4.042 -1.4087  0.3784 -0.4456
  167MOL    H4943541   7.509   3.656   3.825  0.9864 -0.0798 -0.7067
  167MOL    H5043542   7.639   3.634   3.952  0.0252 -1.4426 -2.3465
  167MOL    H5143543   7.490   3.548   3.961 -0.0783  0.2372  1.3131
  167MOL    H5243544   7.129   4.014   4.093  0.3696 -1.0874  2.2458
  167MOL    H5343545   7.275   4.012   4.004 -0.6223  2.0808  0.7247
  167MOL    C5443546   7.123   3.888   3.912  0.2003  0.5385  0.1127
  167MOL    N5543547   7.064   3.996   3.828 -0.5478  0.3032 -0.5255
  167MOL    C5643548   7.047   3.997   3.698  0.3849  0.1014  0.5463
  167MOL    O5743549   7.060   3.900   3.629  0.1952 -0.4647  0.1420
  167MOL    C5843550   7.007   4.134   3.629  1.0634  0.7313 -0.3478
  167MOL    C5943551   7.016   3.783   3.952 -0.0454  0.4789 -0.4887
  167MOL    H6043552   7.207   3.841   3.862  1.1710 -1.3009  3.2907
  167MOL    H6143553   7.046   4.085   3.873 -0.7976  0.2566 -0.5343
  167MOL    H6243554   6.927   4.113   3.559 -1.1975 -0.2124  2.4325
  167MOL    H6343555   6.963   4.206   3.697  1.7585  1.9270 -1.1536
  167MOL    H6443556   7.084   4.186   3.572 -0.4792  0.0364 -3.1638
  167MOL    H6543557   6.965   3.754   3.860  1.9600  0.3449 -1.5851
  167MOL    H6643558   7.070   3.695   3.986  0.6985  1.5909  1.2661
  167MOL    C6743559   6.912   3.821   4.065  0.9447  0.1126 -0.1728
  167MOL    N6843560   6.852   3.695   4.120  1.2235  0.1005 -0.2980
  167MOL    C6943561   6.869   3.646   4.245  0.6216 -0.5275  0.2446
  167MOL    O7043562   6.956   3.693   4.313 -0.0785  0.0651 -0.3048
  167MOL    C7143563   6.772   3.534   4.278 -0.3945  0.2354 -0.1128
  167MOL    C7243564   6.796   3.906   4.007  0.1447  0.0334  0.5287
  167MOL    H7343565   6.956   3.875   4.149 -0.2224  2.1626 -0.8482
  167MOL    H7443566   6.780   3.650   4.066  0.0732 -1.5420  2.5099
  167MOL    H7543567   6.822   3.459   4.340  1.0699  0.5693 -0.8930
  167MOL    H7643568   6.688   3.576   4.335 -0.4776  1.3139 -1.0208
  167MOL    H7743569   6.739   3.494   4.182  1.4283  0.8310 -1.0083
  167MOL    H7843570   6.841   4.002   3.979  1.4960 -0.4654  0.9522
  167MOL    H7943571   6.746   3.868   3.918  0.6518  0.2059  0.1698
  167MOL    C8043572   6.679   3.945   4.111  0.1793 -0.5545 -0.0424
  167MOL    N8143573   6.569   4.000   4.036 -0.4586  0.3801 -0.0470
  167MOL    C8243574   6.447   4.026   4.084  0.1913 -0.1033 -0.5654
  167MOL    O8343575   6.411   3.983   4.189 -0.2102  0.4799 -0.0094
  167MOL    C8443576   6.345   4.088   3.997  0.1714 -0.6417 -0.5414
  167MOL    C8543577   6.721   4.050   4.219 -0.2869 -0.4444  0.3403
  167MOL    H8643578   6.649   3.854   4.164 -0.7381  2.2985  4.6218
  167MOL    H8743579   6.596   4.029   3.943 -1.4992 -0.3603 -0.5848
  167MOL    H8843580   6.293   4.015   3.935 -1.2591 -0.0763 -0.0203
  167MOL    H8943581   6.266   4.133   4.058  0.1313  0.6051 -1.4843
  167MOL    H9043582   6.396   4.162   3.935  0.6125 -1.0196 -0.6289
  167MOL    H9143583   6.638   4.061   4.289 -0.2281  0.0887  0.3259
  167MOL    H9243584   6.802   4.008   4.278  0.0802 -1.0104 -0.5417
  167MOL    C9343585   6.768   4.181   4.157 -0.0256 -0.0898  0.2471
  167MOL    N9443586   6.910   4.203   4.190  0.9436  0.8185  0.5413
  167MOL    C9543587   7.004   4.259   4.105  0.6854 -0.0615 -0.0413
  167MOL    O9643588   6.987   4.271   3.984 -0.0271 -0.7627 -0.1122
  167MOL    C9743589   7.143   4.287   4.160 -0.1305 -0.9358  0.0979
  167MOL    C9843590   6.695   4.294   4.224  0.0416  0.5221  0.9172
  167MOL    H9943591   6.767   4.188   4.048 -0.3527  2.5503  0.3902
  167MOL   H10043592   6.936   4.196   4.288 -1.2934 -0.7460  1.0509
  167MOL   H10143593   7.138   4.316   4.265  0.9027 -0.1855 -0.0581
  167MOL   H10243594   7.214   4.207   4.139 -0.7174 -1.4848  0.1819
  167MOL   H10343595   7.172   4.375   4.102 -3.5385 -0.6757 -1.3364
  167MOL   H10443596   6.592   4.273   4.195 -0.5506  2.5716  1.4526
  167MOL   H10543597   6.714   4.288   4.331  2.6944  1.8157  0.5617
  167MOL   C10643598   6.723   4.433   4.175  0.3797 -0.1097 -0.5564
  167MOL   N10743599   6.653   4.532   4.255  0.1557 -0.3155 -0.3309
  167MOL   C10843600   6.700   4.595   4.363  0.2659 -0.5199 -0.4350
  167MOL   O10943601   6.812   4.574   4.410 -0.8341  0.5146  0.0934
  167MOL   C11043602   6.605   4.698   4.436  0.1564 -0.0733  0.6523
  167MOL   C11143603   6.687   4.455   4.023 -0.1922  0.6554 -0.5072
  167MOL   H11243604   6.829   4.445   4.196  0.2820 -1.5483  0.9465
  167MOL   H11343605   6.559   4.556   4.229 -0.3713 -0.4272  1.3672
  167MOL   H11443606   6.505   4.660   4.455  1.2138 -2.5264  1.5213
  167MOL   H11543607   6.639   4.721   4.536 -1.3066 -0.5772  1.2838
  167MOL   H11643608   6.598   4.791   4.379 -1.2947  1.2684  2.9498
  167MOL   H11743609   6.776   4.419   3.972  1.4199  1.5315  1.6310
  167MOL   H11843610   6.608   4.385   3.993 -0.2671 -0.3717  2.0272
  167MOL   C11943611   6.665   4.596   3.964  0.2373  0.0820 -0.6747
  167MOL   N12043612   6.548   4.664   4.026  0.3551 -0.0581  0.4470
  167MOL   C12143613   6.418   4.635   4.005  0.2665 -0.0874  1.0177
  167MOL   O12243614   6.380   4.535   3.941 -0.6781  0.2265 -0.0271
  167MOL   C12343615   6.315   4.723   4.076  0.3537 -0.1664  0.6789
  167MOL   C12443616   6.653   4.615   3.810 -0.8388  0.8608  0.0371
  167MOL   H12543617   6.746   4.663   3.995  1.3558  0.1416 -3.5977
  167MOL   H12643618   6.561   4.758   4.061  0.6840 -0.0860  0.3945
  167MOL   H12743619   6.220   4.671   4.069  0.5952 -0.4304 -0.6624
  167MOL   H12843620   6.341   4.755   4.177  0.6666  1.2857  0.1463
  167MOL   H12943621   6.302   4.816   4.020  0.7338 -0.1578  0.6037
  167MOL   H13043622   6.563   4.562   3.776 -0.6962  1.0899 -0.7143
  167MOL   H13143623   6.629   4.719   3.787 -2.6370  0.3914 -0.3578
  167MOL   C13243624   6.775   4.562   3.727 -0.0144  0.2061 -0.2712
  167MOL   N13343625   6.900   4.618   3.786  0.6105  0.2561  0.3242
  167MOL   C13443626   7.018   4.560   3.771  0.0027  0.0815  0.3873
  167MOL   O13543627   7.036   4.454   3.707  0.0025 -0.2276  0.4730
  167MOL   C13643628   7.137   4.633   3.833 -1.0526  0.1162 -0.1025
  167MOL   C13743629   6.763   4.582   3.570  0.4197 -0.4159  0.3672
  167MOL   H13843630   6.773   4.456   3.752  0.3035 -0.1708 -1.7806
  167MOL   H13943631   6.889   4.701   3.842 -1.0817  0.2035  0.0952
  167MOL   H14043632   7.128   4.742   3.825 -0.2482  0.2509  0.7673
  167MOL   H14143633   7.153   4.613   3.939 -0.6015  0.3004 -0.1362
  167MOL   H14243634   7.223   4.596   3.777 -0.2189  1.7947  0.0429
  167MOL   H14343635   6.719   4.681   3.556 -1.5362 -1.3562 -0.3384
  167MOL   H14443636   6.863   4.586   3.528  0.1232  0.4898 -0.2608
  167MOL   C14543637   6.686   4.470   3.486 -0.6577  0.0237 -0.0882
  167MOL   N14643638   6.682   4.523   3.347  0.4912  0.2905  0.5787
  167MOL   C14743639   6.759   4.480   3.251  0.2552  0.3112  0.3515
  167MOL   O14843640   6.855   4.409   3.267 -0.5696  0.2997 -0.4300
  167MOL   C14943641   6.715   4.503   3.103  0.0269 -0.1172  0.0663
  167MOL   C15043642   6.542   4.430   3.519 -0.2403  0.1146  0.1736
  167MOL   H15143643   6.745   4.379   3.498  0.1157  0.7844  2.1747
  167MOL   H15243644   6.616   4.597   3.325  2.2596  1.2817 -1.6031
  167MOL   H15343645   6.805   4.547   3.058  0.1678 -0.0610  0.4049
  167MOL   H15443646   6.694   4.406   3.057 -0.6833  0.1750 -0.2384
  167MOL   H15543647   6.629   4.570   3.097  0.5510  0.5079 -0.7438
  167MOL   H15643648   6.498   4.521   3.561  1.8425  1.0443  0.3793
  167MOL   H15743649   6.489   4.403   3.427 -1.1867  2.0219  0.1279
  167MOL   C15843650   6.501   4.317   3.621 -0.1226  0.5556  0.5183
  167MOL   N15943651   6.565   4.185   3.585  0.0222 -0.4632  0.1800
  167MOL   C16043652   6.634   4.111   3.669  0.3612  0.0228 -1.1011
  167MOL   O16143653   6.647   4.137   3.785  0.2156  0.1730  0.2084
  167MOL   C16243654   6.676   3.979   3.616 -0.3113  0.0315  0.1284
  167MOL   C16343655   6.349   4.303   3.640  0.0856  0.4162 -0.6010
  167MOL   H16443656   6.527   4.349   3.722  0.2827  1.8859  0.0050
  167MOL   H16543657   6.550   4.158   3.489 -0.7121 -2.3377  0.7812
  167MOL   H16643658   6.776   3.956   3.653 -0.6854 -0.3481  0.9296
  167MOL   H16743659   6.599   3.904   3.633  1.0251 -1.5164 -0.5058
  167MOL   H16843660   6.692   3.987   3.509 -3.8585  0.7630 -0.3986
  167MOL   H16943661   6.310   4.257   3.550 -2.0848 -0.3305  0.6779
  167MOL   H17043662   6.324   4.237   3.723 -1.8825  1.5766 -0.2397
  167MOL   C17143663   6.264   4.436   3.658 -0.7404  0.8854  0.0637
  167MOL   N17243664   6.181   4.435   3.784 -0.5083  0.2679 -0.0290
  167MOL   C17343665   6.080   4.354   3.818  0.9060  0.3245 -0.4070
  167MOL   O17443666   6.026   4.271   3.742  0.5601 -0.0756 -0.1728
  167MOL   C17543667   6.035   4.361   3.963  0.2414  0.5776  0.5481
  167MOL   C17643668   6.197   4.486   3.525  0.3389 -0.7482 -0.1701
  167MOL   H17743669   6.339   4.510   3.685 -0.4111  1.0320 -1.2476
  167MOL   H17843670   6.227   4.486   3.859  1.2345 -2.3515  0.7619
  167MOL   H17943671   5.984   4.265   3.972  0.9249 -0.0252 -1.7286
  167MOL   H18043672   6.112   4.366   4.040 -0.9978  0.1764  1.8391
  167MOL   H18143673   5.966   4.443   3.982 -0.1135  1.2473 -3.3887
  167MOL   H18243674   6.270   4.490   3.445  1.6039  1.0862  1.0142
  167MOL   H18343675   6.127   4.409   3.495  1.5132 -1.7846 -0.2581
  167MOL   C18443676   6.131   4.627   3.516  0.1855 -0.2955  0.8428
  167MOL   N18543677   6.033   4.655   3.623  0.2801 -0.2028 -0.3781
  167MOL   C18643678   6.003   4.763   3.682  0.2038  0.1201  0.3840
  167MOL   O18743679   6.050   4.873   3.659  0.3925  0.0689  0.4341
  167MOL   C18843680   5.887   4.751   3.788 -0.0964 -0.2039 -0.3873
  167MOL   C18943681   6.064   4.652   3.380 -0.3442 -0.4889 -0.3937
  167MOL   H19043682   6.213   4.697   3.529 -2.2231  2.3787  2.1796
  167MOL   H19143683   5.999   4.564   3.652  3.8483 -1.9667 -1.3995
  167MOL   H19243684   5.916   4.692   3.875  3.4242  1.8624 -0.0556
  167MOL   H19343685   5.873   4.852   3.828  1.8849 -0.8003  1.9547
  167MOL   H19443686   5.792   4.715   3.749 -0.2918 -0.8501  0.6590
  167MOL   H19543687   5.997   4.569   3.357 -1.1963  0.8403 -2.9629
  167MOL   H19643688   5.992   4.733   3.379  2.2483  1.8916 -0.3287
  167MOL   C19743689   6.153   4.680   3.255 -0.4385  0.2884  0.2078
  167MOL   N19843690   6.238   4.789   3.280 -0.2406 -0.4616 -0.0890
  167MOL   C19943691   6.371   4.780   3.301 -0.1820  0.4693 -0.1134
  167MOL   O20043692   6.430   4.675   3.277 -0.2050 -0.9160  0.4025
  167MOL   C20143693   6.446   4.910   3.344 -0.5224 -0.5002 -0.1530
  167MOL   C20243694   6.073   4.711   3.130 -0.0320 -0.2573 -0.2002
  167MOL   H20343695   6.208   4.592   3.222 -1.2613 -0.6048  1.1400
  167MOL   H20443696   6.205   4.884   3.280 -1.7107 -0.9501  1.0653
  167MOL   H20543697   6.390   4.954   3.426  0.4285 -0.4770  0.4974
  167MOL   H20643698   6.547   4.891   3.380 -1.1180  0.9711  2.4479
  167MOL   H20743699   6.467   4.981   3.265  0.7123 -1.1674 -0.4421
  167MOL   H20843700   5.995   4.636   3.113  0.2695 -0.5230 -0.4188
  167MOL   H20943701   6.032   4.812   3.128  2.8570  0.9666  0.1811
  167MOL   C21043702   6.166   4.703   3.008  0.6652 -0.1164  0.6799
  167MOL   N21143703   6.105   4.782   2.898 -0.1773  0.0445 -0.2656
  167MOL   C21243704   6.119   4.910   2.870  0.3836 -0.4556 -0.7634
  167MOL   O21343705   6.175   4.994   2.947 -0.4409  0.3589  0.4491
  167MOL   C21443706   6.064   4.964   2.737  0.0210 -0.6883  0.2016
  167MOL   C21543707   6.187   4.564   2.947  0.7210 -0.0977 -0.4735
  167MOL   H21643708   6.265   4.743   3.029  0.7763 -0.4646  0.8168
  167MOL   H21743709   6.052   4.729   2.830 -0.5701 -0.8406  0.7154
  167MOL   H21843710   6.044   4.882   2.668  2.3758  0.1438 -1.5268
  167MOL   H21943711   5.971   5.020   2.741 -0.5752 -1.7059  0.6615
  167MOL   H22043712   6.143   5.023   2.690 -1.3173 -0.0323 -1.2683
  167MOL   H22143713   6.230   4.495   3.021 -0.9770 -2.0692 -1.2617
  167MOL   H22243714   6.083   4.530   2.943  1.4102 -2.2919 -0.8973
  167MOL   C22343715   6.265   4.555   2.818 -0.3578 -0.4898 -0.9974
  167MOL   N22443716   6.236   4.431   2.745 -0.2363 -0.0325  0.2231
  167MOL   C22543717   6.142   4.425   2.655  0.5021 -0.4278 -0.8627
  167MOL   O22643718   6.052   4.504   2.645  0.6675  0.5169  0.1267
  167MOL   C22743719   6.156   4.307   2.558 -0.2604 -0.0290 -0.0796
  167MOL   C22843720   6.417   4.566   2.846 -0.1216  0.0515 -0.1609
  167MOL   H22943721   6.247   4.641   2.752 -0.0147  1.5003  1.4120
  167MOL   H23043722   6.303   4.355   2.748  0.3852  0.4492 -1.3469
  167MOL   H23143723   6.196   4.213   2.595  1.9142  0.6085 -0.7369
  167MOL   H23243724   6.059   4.296   2.509 -1.0299 -0.3604  1.4696
  167MOL   H23343725   6.220   4.345   2.479  0.4906  2.2299  1.5363
  167MOL   H23443726   6.451   4.659   2.893  0.2412 -0.4589  0.5984
  167MOL   H23543727   6.431   4.507   2.937  1.2210  3.0929  1.6937
  167MOL   C23643728   6.517   4.517   2.731  0.7401  0.0165 -0.3626
  167MOL   N23743729   6.599   4.416   2.789 -0.5410 -0.5584  0.9159
  167MOL   C23843730   6.572   4.284   2.796 -0.1362  0.2700  0.2643
  167MOL   O23943731   6.480   4.232   2.737 -0.5754 -0.0495  0.3999
  167MOL   C24043732   6.686   4.196   2.855 -0.4588 -0.1791  0.0233
  167MOL   C24143733   6.602   4.628   2.686  0.2442  0.6227 -0.4394
  167MOL   H24243734   6.458   4.469   2.652 -1.3579 -1.0011  1.7363
  167MOL   H24343735   6.691   4.437   2.828 -1.7102  0.7985  3.0455
  167MOL   H24443736   6.634   4.165   2.945 -2.6382 -0.6056 -1.3401
  167MOL   H24543737   6.718   4.122   2.783  1.5062  0.2104  0.4809
  167MOL   H24643738   6.764   4.263   2.890 -1.0572  0.7297 -0.3408
  167MOL   H24743739   6.661   4.662   2.772  1.5319 -3.1553  0.3104
  167MOL   H24843740   6.681   4.577   2.630 -0.9184 -1.7299 -0.0282
  167MOL   C24943741   6.528   4.745   2.615 -0.0303 -0.1297  0.8349
  167MOL   N25043742   6.432   4.717   2.508 -0.0908 -0.0612 -0.1435
  167MOL   C25143743   6.309   4.767   2.493 -0.6998 -0.3386  0.0836
  167MOL   O25243744   6.273   4.858   2.566  0.4663  0.3539  0.2639
  167MOL   C25343745   6.227   4.723   2.365  0.5509  0.2131 -0.4926
  167MOL   C25443746   6.630   4.849   2.565 -0.4218  0.6507 -0.0335
  167MOL   H25543747   6.464   4.791   2.690 -2.8703 -2.3142 -0.1609
  167MOL   H25643748   6.459   4.650   2.437  3.3858 -0.0178  1.0746
  167MOL   H25743749   6.143   4.793   2.366  2.3624  2.4933  1.8595
  167MOL   H25843750   6.282   4.743   2.273 -2.4561  0.9993 -2.1635
  167MOL   H25943751   6.197   4.619   2.375 -1.1214  0.6601 -0.7097
  167MOL   H26043752   6.684   4.888   2.651  0.6227 -2.2561  0.6612
  167MOL   H26143753   6.698   4.813   2.487  0.4915  3.8162 -0.7727
  167MOL   H26243754   6.577   4.932   2.517 -2.3644 -0.9828 -0.7935
  168MOL     C143755   2.067   2.498   2.471 -0.1361 -0.1386  0.3894
  168MOL     N243756   2.184   2.554   2.544 -0.2453  0.2655 -0.2757
  168MOL     C343757   2.178   2.668   2.616  0.0497 -0.6116 -0.6349
  168MOL     O443758   2.080   2.745   2.623  0.2012 -0.0663 -0.1049
  168MOL     C543759   2.308   2.709   2.680  0.2661  0.1568  0.1680
  168MOL     C643760   2.037   2.559   2.332  0.3844  0.5679 -0.0471
  168MOL     H743761   2.090   2.393   2.456  1.1960  0.1474  0.3380
  168MOL     H843762   2.267   2.496   2.550 -1.4987 -1.3375  2.0971
  168MOL     H943763   2.345   2.628   2.743  1.2967 -0.4815 -1.2146
  168MOL    H1043764   2.389   2.711   2.608 -0.3787 -1.3646 -0.6274
  168MOL    H1143765   2.305   2.796   2.745  0.5726  0.3089 -0.0222
  168MOL    H1243766   1.938   2.527   2.300  0.1593  0.2581  0.9645
  168MOL    H1343767   2.025   2.665   2.352 -1.2720  0.5137 -0.6686
  168MOL    H1443768   1.980   2.486   2.535  0.0487 -0.4948  0.5728
  168MOL    C1543769   2.143   2.529   2.221  0.0195  0.7308  0.0057
  168MOL    N1643770   2.135   2.632   2.117  0.2242  0.6170 -0.1646
  168MOL    C1743771   2.035   2.650   2.031 -0.6654 -0.3503 -0.4243
  168MOL    O1843772   1.935   2.576   2.018  0.3775  0.1730  0.2819
  168MOL    C1943773   2.053   2.768   1.938 -0.2243 -0.1033  0.5262
  168MOL    C2043774   2.147   2.389   2.154 -0.0699  0.8453  0.1191
  168MOL    H2143775   2.242   2.550   2.262 -0.2213  2.6681 -0.3972
  168MOL    H2243776   2.217   2.691   2.117  0.7808 -0.1467 -0.1994
  168MOL    H2343777   2.117   2.846   1.978 -0.8252  1.4364 -1.4455
  168MOL    H2443778   2.093   2.744   1.840  1.5352  0.2301  1.1485
  168MOL    H2543779   1.959   2.815   1.909 -0.4608  0.6923  2.5508
  168MOL    H2643780   2.169   2.322   2.238 -1.9327  1.3413  1.0402
  168MOL    H2743781   2.050   2.352   2.121  0.1631 -0.4514  0.8148
  168MOL    C2843782   2.250   2.370   2.044 -0.6498 -0.1601  0.5263
  168MOL    N2943783   2.220   2.249   1.966  0.4825  0.1009  0.5462
  168MOL    C3043784   2.250   2.224   1.838 -0.5855 -0.3065 -0.5244
  168MOL    O3143785   2.322   2.299   1.773 -0.4599  0.4196 -0.3220
  168MOL    C3243786   2.205   2.099   1.769 -0.1072 -0.9977 -0.1135
  168MOL    C3343787   2.399   2.373   2.097  0.3259 -0.0486 -0.7033
  168MOL    H3443788   2.251   2.454   1.975 -0.9095 -1.4264 -1.0359
  168MOL    H3543789   2.163   2.178   2.009 -1.1063  1.6745  1.1119
  168MOL    H3643790   2.096   2.093   1.762 -0.3634  1.5663  1.2108
  168MOL    H3743791   2.248   2.091   1.669  1.5532 -0.3951  0.5327
  168MOL    H3843792   2.238   2.009   1.821 -0.1390 -0.7726  0.2998
  168MOL    H3943793   2.399   2.440   2.183  2.3665 -0.0386 -0.6719
  168MOL    H4043794   2.418   2.277   2.144  0.2488 -0.8651 -2.3019
  168MOL    C4143795   2.522   2.411   2.003 -0.2849 -0.1884  0.0374
  168MOL    N4243796   2.652   2.384   2.068 -0.0131 -0.3926  0.4945
  168MOL    C4343797   2.685   2.431   2.190  0.3037 -0.2293 -0.3748
  168MOL    O4443798   2.606   2.502   2.256 -0.3129  0.9537  0.1471
  168MOL    C4543799   2.816   2.390   2.241 -0.1134  0.4620  0.4436
  168MOL    C4643800   2.513   2.562   1.941 -0.1599 -0.5154  0.6408
  168MOL    H4743801   2.530   2.340   1.920  0.4664  1.4317 -1.3080
  168MOL    H4843802   2.719   2.322   2.025 -1.2119 -0.8273 -0.7830
  168MOL    H4943803   2.823   2.282   2.250 -1.4787  0.1564 -1.6278
  168MOL    H5043804   2.893   2.417   2.169 -0.1189  0.0645  0.2851
  168MOL    H5143805   2.829   2.448   2.332  0.0055 -1.8872  1.9657
  168MOL    H5243806   2.416   2.580   1.897  0.1640  0.8801  0.4682
  168MOL    H5343807   2.515   2.633   2.024  0.8469  0.5251 -0.2471
  168MOL    C5443808   2.631   2.609   1.852 -0.4310  0.1970  0.8228
  168MOL    N5543809   2.619   2.746   1.801 -0.1594 -0.2620 -0.7661
  168MOL    C5643810   2.709   2.844   1.785  0.2132 -0.3375 -0.2007
  168MOL    O5743811   2.674   2.957   1.777  0.1066 -0.0655  0.3419
  168MOL    C5843812   2.855   2.807   1.800  0.1605 -0.9606 -0.0281
  168MOL    C5943813   2.668   2.514   1.728  0.1871  1.0629  0.2635
  168MOL    H6043814   2.716   2.606   1.921 -1.1273  0.7245  1.7294
  168MOL    H6143815   2.524   2.774   1.781 -0.1107 -1.3061 -2.5106
  168MOL    H6243816   2.888   2.712   1.757  1.4675  0.2388 -1.7825
  168MOL    H6343817   2.903   2.891   1.750 -2.4795  0.0177 -1.0141
  168MOL    H6443818   2.885   2.807   1.905 -0.9876 -0.4482  0.3000
  168MOL    H6543819   2.766   2.525   1.682 -0.7839 -0.2406 -2.1920
  168MOL    H6643820   2.670   2.414   1.771  3.1319  1.8598  2.1041
  168MOL    C6743821   2.573   2.517   1.604 -0.1529  0.3445  0.0240
  168MOL    N6843822   2.431   2.520   1.646  0.3121 -0.1626 -0.1020
  168MOL    C6943823   2.335   2.611   1.633  0.3170 -0.1816  0.3908
  168MOL    O7043824   2.365   2.727   1.593 -0.2619 -0.0187 -1.0242
  168MOL    C7143825   2.192   2.575   1.662  0.4009  0.0194 -0.0338
  168MOL    C7243826   2.584   2.397   1.501 -0.1386  0.5122  0.1397
  168MOL    H7343827   2.596   2.610   1.553 -1.2415  3.4947  4.9807
  168MOL    H7443828   2.385   2.433   1.671 -0.8520  0.9772  1.8112
  168MOL    H7543829   2.167   2.552   1.765  1.5037  0.3914  0.3171
  168MOL    H7643830   2.120   2.650   1.629 -1.5479 -0.6222  2.5584
  168MOL    H7743831   2.166   2.479   1.615  3.1156 -0.5185 -0.5192
  168MOL    H7843832   2.560   2.312   1.565  1.7317 -0.0864  0.0916
  168MOL    H7943833   2.493   2.410   1.443  0.6251  1.1838 -0.9307
  168MOL    C8043834   2.701   2.384   1.397 -0.4998 -0.6549  0.6449
  168MOL    N8143835   2.649   2.298   1.287 -0.5122  0.4406 -0.2982
  168MOL    C8243836   2.625   2.343   1.160 -0.0385  0.3574  0.1987
  168MOL    O8343837   2.665   2.449   1.121  0.0790  0.2319  0.3612
  168MOL    C8443838   2.566   2.242   1.054 -0.0250 -1.1899 -0.6137
  168MOL    C8543839   2.828   2.331   1.458 -0.0606  0.1666  0.2686
  168MOL    H8643840   2.724   2.484   1.360 -0.3823 -0.1326  2.0811
  168MOL    H8743841   2.634   2.198   1.297  3.0543 -0.1020  0.4141
  168MOL    H8843842   2.457   2.247   1.055 -0.0086 -0.2458 -2.6046
  168MOL    H8943843   2.606   2.276   0.959 -2.1612 -3.0789 -2.2335
  168MOL    H9043844   2.603   2.141   1.075  0.9979 -0.8043 -0.5118
  168MOL    H9143845   2.865   2.405   1.529 -1.1357  0.7150  0.2671
  168MOL    H9243846   2.803   2.243   1.517 -0.7094  0.7975  0.9517
  168MOL    C9343847   2.937   2.279   1.361  0.1092 -0.1030  0.0183
  168MOL    N9443848   3.041   2.218   1.448 -0.0076  0.0785 -0.2194
  168MOL    C9543849   3.030   2.091   1.483  0.2203  0.1580 -0.1913
  168MOL    O9643850   2.937   2.018   1.449 -0.2227 -0.1393 -0.0991
  168MOL    C9743851   3.153   2.032   1.554 -0.0015 -0.3776  0.4462
  168MOL    C9843852   2.990   2.388   1.271  0.2334 -0.5928  0.4883
  168MOL    H9943853   2.886   2.204   1.301  1.0428 -1.7163  1.2170
  168MOL   H10043854   3.116   2.275   1.484 -0.3888 -0.0056  0.7172
  168MOL   H10143855   3.211   1.980   1.478  0.2383 -0.0445  0.3996
  168MOL   H10243856   3.217   2.110   1.595 -0.0744  0.7328 -1.4584
  168MOL   H10343857   3.120   1.958   1.628  1.6248 -0.9183  0.6398
  168MOL   H10443858   2.909   2.424   1.207 -0.6281 -1.1389  1.2603
  168MOL   H10543859   3.021   2.479   1.323  1.1191 -0.2179 -0.6886
  168MOL   C10643860   3.091   2.335   1.176 -0.5045  0.7098  0.1796
  168MOL   N10743861   3.219   2.334   1.237 -0.0812  0.1097  0.0980
  168MOL   C10843862   3.310   2.232   1.225  0.2683  0.2070 -0.2247
  168MOL   O10943863   3.297   2.137   1.148 -0.5871  0.7172  0.0209
  168MOL   C11043864   3.430   2.240   1.323  0.3406 -0.3728  0.3336
  168MOL   C11143865   3.107   2.429   1.054  0.5291 -0.5489  0.5932
  168MOL   H11243866   3.065   2.234   1.143 -0.0569 -0.0326  2.0585
  168MOL   H11343867   3.241   2.405   1.306  0.1507  0.7761 -0.6596
  168MOL   H11443868   3.441   2.344   1.352 -0.5173 -0.3835  0.7036
  168MOL   H11543869   3.403   2.192   1.416 -0.1721 -2.6521 -0.9543
  168MOL   H11643870   3.523   2.205   1.276  0.3313  0.8493 -0.6180
  168MOL   H11743871   3.119   2.530   1.093  2.4038 -0.7639  0.6571
  168MOL   H11843872   3.208   2.420   1.014 -0.9433 -2.2726 -2.9362
  168MOL   C11943873   3.009   2.412   0.940  0.0231  0.3164 -0.7923
  168MOL   N12043874   3.060   2.296   0.861 -0.0890 -0.2817  0.3719
  168MOL   C12143875   2.993   2.182   0.853 -0.3146 -0.1864 -0.3330
  168MOL   O12243876   2.887   2.162   0.910  0.0618 -0.3169 -0.3449
  168MOL   C12343877   3.049   2.067   0.777 -1.1985 -0.1237 -0.2669
  168MOL   C12443878   3.011   2.540   0.848  0.7742  0.0359  0.4725
  168MOL   H12543879   2.913   2.389   0.986  0.7065 -1.8400 -0.4090
  168MOL   H12643880   3.140   2.303   0.801  0.6605  0.2561  1.4230
  168MOL   H12743881   2.983   1.981   0.783 -0.9709 -0.2457  0.5853
  168MOL   H12843882   3.061   2.101   0.674  1.2812 -0.9473 -0.2684
  168MOL   H12943883   3.140   2.034   0.826 -0.5296  0.2077 -1.2702
  168MOL   H13043884   3.111   2.584   0.857  0.1886  1.4931  0.0104
  168MOL   H13143885   2.998   2.500   0.747  0.8464  0.1762  0.4073
  168MOL   C13243886   2.910   2.653   0.882 -0.4254 -0.0606 -0.4658
  168MOL   N13343887   2.768   2.606   0.889  0.2406 -0.0439  0.0922
  168MOL   C13443888   2.695   2.577   0.781  0.6838 -0.3883  1.4224
  168MOL   O13543889   2.734   2.572   0.665 -0.2196 -0.4568  0.1614
  168MOL   C13643890   2.541   2.564   0.801 -0.1375  0.1190 -0.3153
  168MOL   C13743891   2.919   2.779   0.790  0.3639  0.2607 -0.3559
  168MOL   H13843892   2.919   2.693   0.983  1.3632  2.9699 -1.7641
  168MOL   H13943893   2.718   2.619   0.976 -2.2680 -0.2283 -1.2652
  168MOL   H14043894   2.506   2.667   0.792 -1.8146 -0.5296 -1.2814
  168MOL   H14143895   2.490   2.501   0.729  0.7996  0.8037 -1.5995
  168MOL   H14243896   2.522   2.510   0.894  1.0555  0.0862 -0.0761
  168MOL   H14343897   2.922   2.744   0.687 -2.1697 -0.5560 -0.1823
  168MOL   H14443898   2.832   2.843   0.808 -0.0934 -0.8517  1.6067
  168MOL   C14543899   3.052   2.858   0.779  0.5212  0.3375  0.0096
  168MOL   N14643900   3.125   2.862   0.903  0.0722  0.0507  0.4238
  168MOL   C14743901   3.246   2.809   0.924 -0.4090 -0.5416  0.2567
  168MOL   O14843902   3.309   2.742   0.841 -0.2340  0.3071 -0.0165
  168MOL   C14943903   3.296   2.831   1.065 -0.3264 -0.3613 -0.3627
  168MOL   C15043904   3.046   3.000   0.725 -0.3697 -0.2293 -0.0014
  168MOL   H15143905   3.113   2.794   0.716 -0.1242 -2.8991  2.5288
  168MOL   H15243906   3.081   2.910   0.980  0.1108  3.3166 -1.5067
  168MOL   H15343907   3.401   2.858   1.073 -0.6713  0.3962  2.0941
  168MOL   H15443908   3.240   2.908   1.118 -1.1972 -1.8572  0.9414
  168MOL   H15543909   3.278   2.739   1.121  2.7518  0.3871  2.0272
  168MOL   H15643910   2.990   3.046   0.806  1.4056  0.9468  0.5943
  168MOL   H15743911   3.147   3.037   0.741 -0.1444 -1.2017  0.8710
  168MOL   C15843912   2.997   3.026   0.575 -0.4365  0.2309  0.3548
  168MOL   N15943913   3.021   3.164   0.533  0.1971 -0.0951  0.1259
  168MOL   C16043914   3.113   3.200   0.441  0.2396  0.0735  0.3367
  168MOL   O16143915   3.189   3.113   0.392  0.1072  0.1342 -0.0093
  168MOL   C16243916   3.123   3.346   0.407  0.1607 -0.5613  0.3796
  168MOL   C16343917   2.842   3.001   0.543  0.0557 -0.4494 -0.9216
  168MOL   H16443918   3.049   2.947   0.521 -2.3285 -1.1759  0.5284
  168MOL   H16543919   2.974   3.244   0.574  0.9197 -0.0520  0.8779
  168MOL   H16643920   3.172   3.397   0.490 -0.3562 -1.7778  1.4508
  168MOL   H16743921   3.182   3.371   0.319 -0.4813 -1.5261 -0.3332
  168MOL   H16843922   3.023   3.385   0.385  1.5149  3.4106  0.7357
  168MOL   H16943923   2.818   2.900   0.577  0.3674 -0.2504 -0.1080
  168MOL   H17043924   2.783   3.070   0.603  1.9623  0.9736 -0.6356
  168MOL   C17143925   2.798   3.008   0.393  0.7929 -0.4108  0.0109
  168MOL   N17243926   2.660   3.058   0.389 -0.6532  0.1920 -0.4962
  168MOL   C17343927   2.610   3.164   0.319 -0.7624 -0.6858  0.0945
  168MOL   O17443928   2.674   3.243   0.253 -0.5335  0.6262 -0.0006
  168MOL   C17543929   2.460   3.170   0.314  0.5982  0.1004 -0.0511
  168MOL   C17643930   2.806   2.879   0.313 -0.9255  0.3673 -0.7066
  168MOL   H17743931   2.855   3.086   0.343  0.0191 -0.1223 -0.4263
  168MOL   H17843932   2.594   3.005   0.444 -0.0011 -0.7311 -0.5843
  168MOL   H17943933   2.419   3.070   0.323 -0.2099  0.1331 -2.9777
  168MOL   H18043934   2.428   3.230   0.399 -1.0719 -0.3417 -0.3670
  168MOL   H18143935   2.410   3.204   0.223  0.5572 -1.1391 -0.5047
  168MOL   H18243936   2.766   2.791   0.364  1.8146 -0.8915 -0.6760
  168MOL   H18343937   2.742   2.883   0.225 -2.5919  1.4742  0.5230
  168MOL   C18443938   2.949   2.837   0.272 -0.4733 -0.6323 -0.4710
  168MOL   N18543939   3.029   2.948   0.219  0.0892 -0.2030  0.0494
  168MOL   C18643940   3.019   3.003   0.096 -0.1386 -0.9225 -0.0492
  168MOL   O18743941   2.924   2.981   0.028  0.7301  0.4191  0.3451
  168MOL   C18843942   3.110   3.116   0.061 -0.6212  0.4123 -0.2520
  168MOL   C18943943   2.948   2.718   0.175 -0.2051 -0.1476  0.0472
  168MOL   H19043944   3.005   2.792   0.354 -1.5852 -0.0205  0.6259
  168MOL   H19143945   3.109   2.986   0.268 -0.4441 -0.6660  1.3048
  168MOL   H19243946   3.213   3.093   0.087 -0.5958  0.4006 -0.3641
  168MOL   H19343947   3.123   3.127   7.793  0.9530  1.1746 -0.0044
  168MOL   H19443948   3.090   3.208   0.116 -0.9637 -0.5363  1.2396
  168MOL   H19543949   2.853   2.709   0.122 -0.8620  2.6137  0.6573
  168MOL   H19643950   3.013   2.727   0.089 -1.4543  2.1864 -0.7119
  168MOL   C19743951   2.974   2.580   0.234 -0.0033 -0.5815 -0.0733
  168MOL   N19843952   2.972   2.487   0.120 -0.0937  0.4550  0.0726
  168MOL   C19943953   3.080   2.458   0.049 -0.0617 -0.7053  0.0807
  168MOL   O20043954   3.179   2.537   0.042  0.2129  0.3964  0.1996
  168MOL   C20143955   3.081   2.336   7.803 -0.0070 -0.5768 -0.2985
  168MOL   C20243956   2.898   2.525   0.356  0.3515 -0.2953 -0.2949
  168MOL   H20343957   3.075   2.583   0.274  0.2136 -2.9494 -0.3267
  168MOL   H20443958   2.884   2.438   0.117  0.5703 -0.7353 -0.3180
  168MOL   H20543959   3.105   2.366   7.701 -1.2794 -0.1814 -0.4847
  168MOL   H20643960   3.151   2.265   0.007  1.4012  1.3264  0.6011
  168MOL   H20743961   2.985   2.286   7.808 -0.9318  1.1961  0.0605
  168MOL   H20843962   2.890   2.587   0.446 -0.9760 -1.0885  0.1536
  168MOL   H20943963   2.792   2.527   0.327  0.4135  0.8443 -0.4745
  168MOL   C21043964   2.949   2.393   0.420  0.0247 -0.6320  0.0960
  168MOL   N21143965   2.858   2.369   0.541  0.0360  0.3106 -0.1839
  168MOL   C21243966   2.798   2.249   0.556 -0.5293 -0.1195  0.0682
  168MOL   O21343967   2.820   2.157   0.486  0.2455  0.3071 -0.2229
  168MOL   C21443968   2.688   2.250   0.666 -0.7650 -0.1103  0.1530
  168MOL   C21543969   3.092   2.403   0.464 -0.2666 -0.5820 -0.3984
  168MOL   H21643970   2.929   2.320   0.342  1.9925  0.0908 -1.1176
  168MOL   H21743971   2.817   2.448   0.588 -1.0962 -1.1197  1.3007
  168MOL   H21843972   2.713   2.309   0.754  0.3924 -0.9830  0.4240
  168MOL   H21943973   2.587   2.274   0.630 -1.1902 -1.1389  0.6621
  168MOL   H22043974   2.669   2.151   0.706 -2.6766  1.5750  3.6945
  168MOL   H22143975   3.118   2.501   0.504 -0.8725  0.9187 -3.5613
  168MOL   H22243976   3.090   2.332   0.547 -1.9638  1.7784  1.6818
  168MOL   C22343977   3.200   2.340   0.368 -0.5278 -0.5080 -0.5816
  168MOL   N22443978   3.227   2.208   0.413  0.7532  0.0000  0.3859
  168MOL   C22543979   3.198   2.098   0.343 -0.4357 -0.3097  0.3935
  168MOL   O22643980   3.172   2.096   0.215 -0.1053 -0.6015 -0.6199
  168MOL   C22743981   3.190   1.969   0.422 -0.2339  0.4076 -0.1418
  168MOL   C22843982   3.331   2.432   0.373  0.1925 -0.3263 -0.1736
  168MOL   H22943983   3.158   2.337   0.268  1.8588 -2.5421 -1.5646
  168MOL   H23043984   3.244   2.200   0.512  1.3572  0.9856  0.3743
  168MOL   H23143985   3.222   1.982   0.525  2.9161  1.5899 -1.2040
  168MOL   H23243986   3.090   1.929   0.438 -0.2489  0.3265 -0.4238
  168MOL   H23343987   3.257   1.896   0.375 -0.7893  0.5359 -1.1413
  168MOL   H23443988   3.313   2.511   0.300 -2.5330 -0.0727  0.7192
  168MOL   H23543989   3.349   2.477   0.471 -1.5937  1.1579 -0.5088
  168MOL   C23643990   3.474   2.366   0.336 -0.3463 -0.0252  0.1861
  168MOL   N23743991   3.584   2.444   0.391 -0.0733  0.1854 -0.2524
  168MOL   C23843992   3.690   2.382   0.449  0.4364 -0.1629 -0.3364
  168MOL   O23943993   3.699   2.261   0.454 -0.2956 -0.5660 -0.1497
  168MOL   C24043994   3.800   2.478   0.496 -0.3097 -0.8278  0.3231
  168MOL   C24143995   3.500   2.359   0.181  0.1518 -0.3348 -0.7982
  168MOL   H24243996   3.484   2.271   0.388 -0.3133 -0.0154  0.1973
  168MOL   H24343997   3.591   2.545   0.393 -0.0074  0.1699  1.0646
  168MOL   H24443998   3.889   2.470   0.433 -0.2984  1.7191 -0.0489
  168MOL   H24543999   3.766   2.582   0.492  0.7721 -0.4541  0.6828
  168MOL   H24644000   3.825   2.459   0.600 -2.6098 -0.8821  0.8923
  168MOL   H24744001   3.410   2.328   0.129 -0.2400 -0.1621 -0.2282
  168MOL   H24844002   3.510   2.461   0.144 -0.5731 -0.1525 -0.4993
  168MOL   C24944003   3.626   2.270   0.141 -0.0332 -0.0206 -0.0666
  168MOL   N25044004   3.664   2.318   0.007 -0.1679 -0.2223  0.4792
  168MOL   C25144005   3.788   2.293   7.789 -0.2725  0.2829 -0.3765
  168MOL   O25244006   3.877   2.224   0.005  0.5177  0.2645 -0.0062
  168MOL   C25344007   3.814   2.365   7.660 -0.2736  0.0739 -0.2221
  168MOL   C25444008   3.593   2.114   0.141  0.0125 -0.0186 -0.2965
  168MOL   H25544009   3.714   2.291   0.200  1.0414 -2.4173 -0.7200
  168MOL   H25644010   3.604   2.380   7.794 -0.5326 -1.4213 -0.5232
  168MOL   H25744011   3.870   2.457   7.673  0.3842  0.2172 -3.7155
  168MOL   H25844012   3.866   2.300   7.590  2.5649  1.9757  0.0303
  168MOL   H25944013   3.719   2.395   7.616 -0.4613  0.3256  0.3418
  168MOL   H26044014   3.670   2.055   0.091 -0.2655 -1.8472  1.3658
  168MOL   H26144015   3.584   2.073   0.241  0.7828 -3.4242 -1.5309
  168MOL   H26244016   3.497   2.093   0.094 -0.8611  0.8795  1.0652
  169MOL     C144017   5.849   2.078   2.282 -0.1801  0.5498  0.1763
  169MOL     N244018   5.793   2.210   2.312  0.3052  0.5061 -0.6836
  169MOL     C344019   5.686   2.255   2.252  0.0510 -0.0580 -0.1588
  169MOL     O444020   5.624   2.192   2.166 -0.2859 -0.1898 -0.0360
  169MOL     C544021   5.645   2.394   2.293 -0.2211 -0.0839  0.2076
  169MOL     C644022   5.964   2.096   2.187 -0.9763 -0.0400 -0.1533
  169MOL     H744023   5.882   2.055   2.383  0.1909  0.0455 -0.0594
  169MOL     H844024   5.839   2.260   2.387 -0.5329 -0.0418  0.2147
  169MOL     H944025   5.628   2.392   2.400  0.7941 -1.7914  0.3503
  169MOL    H1044026   5.726   2.466   2.278 -0.9903  0.3866 -1.9625
  169MOL    H1144027   5.550   2.415   2.245 -0.6350 -1.2971  0.4789
  169MOL    H1244028   5.917   2.138   2.098  1.3974 -2.4044 -2.6426
  169MOL    H1344029   6.040   2.167   2.219 -2.4248  0.5872  1.9259
  169MOL    H1444030   5.781   2.001   2.246  0.2797  0.8224 -1.3328
  169MOL    C1544031   6.024   1.963   2.134 -0.0768  0.1729 -0.3686
  169MOL    N1644032   6.078   1.874   2.236  0.0325 -0.4203  0.1310
  169MOL    C1744033   6.175   1.892   2.319 -0.3438  0.5764  0.0907
  169MOL    O1844034   6.223   2.001   2.354  0.4201  0.1699  0.0390
  169MOL    C1944035   6.246   1.768   2.367 -0.2559 -0.0987 -0.0150
  169MOL    C2044036   6.131   2.001   2.026  0.1599  0.0581 -0.4105
  169MOL    H2144037   5.940   1.910   2.088  0.4870 -1.2797  0.2460
  169MOL    H2244038   6.054   1.777   2.220 -0.2116 -0.1445 -1.1888
  169MOL    H2344039   6.285   1.701   2.290 -0.0211  0.1079 -0.0781
  169MOL    H2444040   6.331   1.811   2.419  0.2127 -0.6314 -0.3314
  169MOL    H2544041   6.194   1.710   2.443 -1.0160  0.8988  0.2396
  169MOL    H2644042   6.177   2.091   2.066 -0.7239 -0.0106  0.7960
  169MOL    H2744043   6.203   1.921   2.012 -0.3159 -0.2296 -1.2992
  169MOL    C2844044   6.075   2.044   1.889  0.0884  0.0338 -0.4448
  169MOL    N2944045   5.966   1.956   1.842 -0.2259  0.0452 -0.2881
  169MOL    C3044046   5.966   1.827   1.805 -0.1974 -0.4559 -0.9656
  169MOL    O3144047   6.067   1.767   1.810  0.1080 -0.2560 -0.3531
  169MOL    C3244048   5.843   1.773   1.740 -0.2325  0.0480  0.4224
  169MOL    C3344049   6.189   2.055   1.788  0.8493  0.4974 -0.1500
  169MOL    H3444050   6.028   2.140   1.912  1.2379 -0.0526  2.4694
  169MOL    H3544051   5.876   2.004   1.846 -1.0488 -1.4239 -0.9615
  169MOL    H3644052   5.789   1.707   1.809 -2.4066  1.1026 -0.2096
  169MOL    H3744053   5.768   1.850   1.717  0.0392  0.1559 -0.1056
  169MOL    H3844054   5.872   1.720   1.650  2.9535 -0.7962  1.8917
  169MOL    H3944055   6.242   1.960   1.792 -0.6378 -0.3072  1.2373
  169MOL    H4044056   6.146   2.071   1.690 -4.3374  1.0404  2.0585
  169MOL    C4144057   6.284   2.177   1.820 -0.3791  0.2421  0.5206
  169MOL    N4244058   6.392   2.148   1.916  0.2087  0.5954 -0.4218
  169MOL    C4344059   6.513   2.101   1.896 -0.1835  0.1706 -0.5482
  169MOL    O4444060   6.567   2.064   1.786 -0.0065 -0.5324 -0.6512
  169MOL    C4544061   6.587   2.081   2.024  0.3892 -0.1178 -0.1539
  169MOL    C4644062   6.216   2.315   1.866 -0.0511  0.7069 -0.0019
  169MOL    H4744063   6.335   2.197   1.726 -1.0601  0.0827  0.1164
  169MOL    H4844064   6.389   2.199   2.003  0.8506  1.2124 -0.7590
  169MOL    H4944065   6.692   2.071   1.995  0.4046 -1.8092  0.4249
  169MOL    H5044066   6.587   2.166   2.092 -0.1241 -0.9034  0.8383
  169MOL    H5144067   6.567   1.987   2.076 -1.0037 -0.1511 -0.7354
  169MOL    H5244068   6.164   2.291   1.959 -1.0972  0.5973 -0.6062
  169MOL    H5344069   6.293   2.385   1.899 -1.1010  0.5398  3.0380
  169MOL    C5444070   6.119   2.382   1.774  0.3265  0.2740 -0.0677
  169MOL    N5544071   6.189   2.404   1.645 -0.1089  0.0357  0.3406
  169MOL    C5644072   6.169   2.327   1.538 -0.1689  0.1991 -0.0691
  169MOL    O5744073   6.080   2.241   1.519 -0.1956 -0.1886  0.3095
  169MOL    C5844074   6.276   2.335   1.428  0.3800  0.3741  0.4978
  169MOL    C5944075   6.053   2.512   1.825 -0.5703  0.4069  0.3087
  169MOL    H6044076   6.052   2.297   1.759 -0.1962  0.5832  0.4863
  169MOL    H6144077   6.259   2.475   1.632 -1.4392  1.2672 -0.2670
  169MOL    H6244078   6.369   2.366   1.476 -0.2285  0.8864  1.3366
  169MOL    H6344079   6.284   2.240   1.374 -0.8786  1.0725 -0.9561
  169MOL    H6444080   6.247   2.414   1.359  1.7167 -0.1757 -0.7337
  169MOL    H6544081   5.991   2.481   1.909 -0.1613 -0.5041  0.2799
  169MOL    H6644082   6.125   2.590   1.851 -1.2318  2.2666 -3.0713
  169MOL    C6744083   5.961   2.567   1.715 -0.0967 -0.0257 -0.0160
  169MOL    N6844084   6.023   2.683   1.645 -0.0369  0.2951 -0.2806
  169MOL    C6944085   6.028   2.703   1.514 -0.3338 -0.0880  0.1105
  169MOL    O7044086   5.981   2.627   1.427  0.0656 -0.1655 -0.8525
  169MOL    C7144087   6.083   2.835   1.466  0.1104  0.4673  0.5967
  169MOL    C7244088   5.821   2.610   1.771 -0.6489 -0.0633 -0.1438
  169MOL    H7344089   5.940   2.495   1.636  3.7715  0.4519 -1.5739
  169MOL    H7444090   6.033   2.771   1.694 -1.3587 -0.6494  1.7548
  169MOL    H7544091   6.146   2.817   1.379 -3.3993 -1.9725 -1.5631
  169MOL    H7644092   6.003   2.901   1.432 -0.1424  0.8451  1.9203
  169MOL    H7744093   6.135   2.884   1.549 -0.5758  1.9954  0.1566
  169MOL    H7844094   5.843   2.672   1.858 -1.3107  0.3062 -0.2413
  169MOL    H7944095   5.770   2.678   1.703  0.3045 -0.3924 -1.1972
  169MOL    C8044096   5.723   2.498   1.811 -0.5125  0.7585  0.2300
  169MOL    N8144097   5.715   2.391   1.704 -0.7507  0.2439  0.1999
  169MOL    C8244098   5.760   2.263   1.714  0.0149  0.1444  0.4493
  169MOL    O8344099   5.811   2.217   1.818  0.3816 -0.9335 -0.0088
  169MOL    C8444100   5.733   2.173   1.598 -0.5174  0.3533 -0.3592
  169MOL    C8544101   5.592   2.556   1.841 -0.7459 -0.3991  0.2086
  169MOL    H8644102   5.763   2.454   1.902 -0.9163 -0.0066  0.0402
  169MOL    H8744103   5.681   2.417   1.613  0.5732 -1.5648 -0.8633
  169MOL    H8844104   5.624   2.168   1.603 -0.5933  0.3291 -1.8112
  169MOL    H8944105   5.775   2.215   1.506  0.9397  0.2831  0.2601
  169MOL    H9044106   5.772   2.073   1.617 -1.6351 -0.4730 -2.2497
  169MOL    H9144107   5.603   2.624   1.925  2.2323  0.9573 -1.2161
  169MOL    H9244108   5.554   2.620   1.762 -2.1411 -1.6115 -0.1237
  169MOL    C9344109   5.485   2.457   1.881 -0.2649  0.5353  0.1285
  169MOL    N9444110   5.439   2.373   1.766  0.1039  0.1969 -0.1679
  169MOL    C9544111   5.384   2.248   1.771 -0.1358  0.7204  0.1991
  169MOL    O9644112   5.351   2.189   1.869  0.0643 -0.5548 -0.2439
  169MOL    C9744113   5.365   2.167   1.638  0.8659 -0.1666 -0.6299
  169MOL    C9844114   5.358   2.525   1.949 -0.3435 -0.4594 -0.9374
  169MOL    H9944115   5.517   2.394   1.964 -1.7929 -0.4552 -0.0157
  169MOL   H10044116   5.462   2.418   1.679  0.9357 -2.0448 -1.1483
  169MOL   H10144117   5.416   2.071   1.643 -0.5016 -0.8685  0.2373
  169MOL   H10244118   5.260   2.138   1.625  0.5713 -1.1932  3.4909
  169MOL   H10344119   5.406   2.220   1.552  0.3933  0.2017 -0.6294
  169MOL   H10444120   5.293   2.448   1.990  1.5284 -0.9025  1.2827
  169MOL   H10544121   5.405   2.575   2.034  1.6536 -2.5659 -0.7571
  169MOL   C10644122   5.281   2.630   1.871 -0.4215 -0.2062 -0.3496
  169MOL   N10744123   5.223   2.719   1.969  0.2780 -0.8308  0.1238
  169MOL   C10844124   5.283   2.823   2.027  0.8752  0.5745  0.7930
  169MOL   O10944125   5.403   2.835   2.017  0.7831 -0.1429  0.1444
  169MOL   C11044126   5.197   2.919   2.107 -0.0119  0.1905 -0.1940
  169MOL   C11144127   5.182   2.564   1.767  0.0584 -0.4890  0.0562
  169MOL   H11244128   5.357   2.676   1.808 -1.1556 -0.0702 -1.1496
  169MOL   H11344129   5.123   2.727   1.978  0.4445 -2.1315  4.1767
  169MOL   H11444130   5.256   2.981   2.176  0.7527 -0.4687 -0.2475
  169MOL   H11544131   5.149   2.985   2.034  0.0816  1.0483  0.5054
  169MOL   H11644132   5.126   2.871   2.174  1.9351 -0.6104  1.3603
  169MOL   H11744133   5.221   2.466   1.744  0.9613 -0.3148  0.8288
  169MOL   H11844134   5.090   2.544   1.822  0.9530  0.1323  1.8115
  169MOL   C11944135   5.137   2.642   1.642 -0.5986 -0.4723 -0.4486
  169MOL   N12044136   5.046   2.755   1.675  0.5117 -0.0075  0.0610
  169MOL   C12144137   5.035   2.879   1.626  0.1810  0.6923 -0.4113
  169MOL   O12244138   5.103   2.924   1.536  0.2665  0.6726  0.8373
  169MOL   C12344139   4.923   2.964   1.678 -0.5826  0.3333 -0.0301
  169MOL   C12444140   5.060   2.553   1.542 -0.3710 -0.0128  0.5245
  169MOL   H12544141   5.234   2.680   1.608 -1.2943  1.3588 -0.4781
  169MOL   H12644142   4.982   2.727   1.748 -0.2668  2.3843  0.3321
  169MOL   H12744143   4.924   2.974   1.787  1.7090 -0.1064 -0.0019
  169MOL   H12844144   4.937   3.057   1.624  2.9185 -1.2350 -1.9485
  169MOL   H12944145   4.836   2.906   1.648 -2.0891  1.3619  2.1386
  169MOL   H13044146   5.102   2.453   1.553 -1.8286 -0.7309 -0.2366
  169MOL   H13144147   4.958   2.537   1.579 -0.3197 -0.6070  0.4074
  169MOL   C13244148   5.060   2.590   1.392 -0.6943 -0.6339 -0.3760
  169MOL   N13344149   5.007   2.480   1.311 -0.5259 -0.2532 -0.6787
  169MOL   C13444150   4.928   2.480   1.208  0.2168 -0.2137  0.1877
  169MOL   O13544151   4.886   2.580   1.153 -0.3224  0.1924 -0.4115
  169MOL   C13644152   4.871   2.349   1.160 -0.7171  0.2900  0.3093
  169MOL   C13744153   5.197   2.626   1.335  0.4321  0.0206 -0.4928
  169MOL   H13844154   4.992   2.675   1.393 -1.3634 -1.1533  1.1636
  169MOL   H13944155   5.035   2.390   1.347 -1.7416 -1.8899 -3.6553
  169MOL   H14044156   4.820   2.365   1.065 -0.7554 -1.2184  0.0752
  169MOL   H14144157   4.957   2.293   1.124 -0.1288  0.2122  1.7945
  169MOL   H14244158   4.816   2.300   1.240 -0.5698  1.7252  1.3239
  169MOL   H14344159   5.183   2.687   1.246  2.2207  0.5922 -0.4014
  169MOL   H14444160   5.239   2.703   1.400 -2.3258  0.5393  0.7217
  169MOL   C14544161   5.306   2.521   1.309 -1.2557 -0.1864  0.4961
  169MOL   N14644162   5.429   2.595   1.324 -0.4404 -0.0819  0.2351
  169MOL   C14744163   5.494   2.589   1.447 -0.6917  0.1834  0.3423
  169MOL   O14844164   5.445   2.553   1.551  0.2232 -0.0559  0.5325
  169MOL   C14944165   5.641   2.637   1.441  0.5245  0.0082  0.6995
  169MOL   C15044166   5.286   2.456   1.173  0.0989 -0.1631 -0.0985
  169MOL   H15144167   5.299   2.447   1.388 -2.8289  0.8583  1.3554
  169MOL   H15244168   5.477   2.644   1.249 -0.0672 -0.4081  0.2578
  169MOL   H15344169   5.648   2.730   1.498  2.4825  1.4061 -1.7114
  169MOL   H15444170   5.716   2.579   1.494  0.2245  0.8199  2.0573
  169MOL   H15544171   5.688   2.641   1.343  0.3724  0.8100  0.6550
  169MOL   H15644172   5.216   2.373   1.176 -1.1203  0.9015  1.7670
  169MOL   H15744173   5.229   2.522   1.107 -0.1599 -0.4792 -0.1880
  169MOL   C15844174   5.405   2.413   1.087 -0.2387 -0.1117 -0.0744
  169MOL   N15944175   5.345   2.346   0.971 -0.1478 -0.0174  0.2251
  169MOL   C16044176   5.300   2.402   0.857  0.3552 -0.6582  0.5727
  169MOL   O16144177   5.306   2.522   0.828  0.2610 -0.5730 -0.4002
  169MOL   C16244178   5.230   2.303   0.760  0.0419 -0.1441  0.4749
  169MOL   C16344179   5.496   2.312   1.163  0.4257 -0.0666  0.1308
  169MOL   H16444180   5.456   2.502   1.052  0.5106  0.6410  2.7909
  169MOL   H16544181   5.342   2.245   0.970 -0.5107 -0.0096 -1.9085
  169MOL   H16644182   5.254   2.198   0.777  1.5956 -0.0070 -0.7143
  169MOL   H16744183   5.123   2.316   0.747  0.0953 -2.1507 -2.8186
  169MOL   H16844184   5.265   2.312   0.656  0.6242  0.5999  0.7276
  169MOL   H16944185   5.508   2.355   1.262 -2.0851  0.1035  0.3949
  169MOL   H17044186   5.447   2.215   1.173  2.5033 -1.1127  0.6401
  169MOL   C17144187   5.635   2.291   1.110  0.7357 -0.4216 -0.7121
  169MOL   N17244188   5.632   2.227   0.977  0.1997  0.4690 -0.5700
  169MOL   C17344189   5.681   2.289   0.867  0.1357 -0.1405  0.7560
  169MOL   O17444190   5.749   2.390   0.876  0.0125  0.1537  0.0612
  169MOL   C17544191   5.660   2.223   0.731  0.0992 -0.2842  0.0986
  169MOL   C17644192   5.723   2.223   1.210  0.2804  0.5429 -0.5624
  169MOL   H17744193   5.694   2.382   1.099  2.5491 -1.3712  0.8006
  169MOL   H17844194   5.591   2.135   0.977 -0.6828  0.8548 -0.9579
  169MOL   H17944195   5.738   2.152   0.707 -0.6141 -1.0071 -0.1242
  169MOL   H18044196   5.557   2.188   0.720 -0.6162  2.0472 -0.9122
  169MOL   H18144197   5.659   2.299   0.653  0.6755 -0.5772 -0.1943
  169MOL   H18244198   5.714   2.282   1.302  0.7925  1.1477 -0.9014
  169MOL   H18344199   5.675   2.125   1.215 -1.1475  1.2244 -0.6553
  169MOL   C18444200   5.874   2.208   1.167 -0.0265  0.4145  0.7723
  169MOL   N18544201   5.940   2.123   1.262  0.4303 -0.0710  0.1626
  169MOL   C18644202   5.954   1.989   1.248 -0.0089 -0.1945  0.1603
  169MOL   O18744203   5.921   1.927   1.146 -0.3864  0.3870 -0.0894
  169MOL   C18844204   6.033   1.924   1.358  0.6549 -0.8524  0.5476
  169MOL   C18944205   5.962   2.333   1.143 -0.5679 -0.3779 -0.0487
  169MOL   H19044206   5.860   2.155   1.073  0.7683  0.3723  0.6761
  169MOL   H19144207   6.002   2.171   1.325  1.2923 -1.3876  0.3317
  169MOL   H19244208   6.092   1.843   1.316  1.5355  0.3864 -0.6502
  169MOL   H19344209   6.101   1.982   1.419 -0.7913  0.9410  0.5120
  169MOL   H19444210   5.965   1.877   1.429  2.7938 -1.5561  2.1614
  169MOL   H19544211   5.905   2.417   1.102  0.6058  1.7019  2.4479
  169MOL   H19644212   5.988   2.361   1.245 -2.0636 -0.2774  0.3231
  169MOL   C19744213   6.097   2.307   1.068  0.8443 -0.3220  0.1424
  169MOL   N19844214   6.169   2.436   1.066  0.0721  0.3205  0.2412
  169MOL   C19944215   6.298   2.450   1.081  0.0793 -0.1687 -0.1432
  169MOL   O20044216   6.367   2.350   1.097 -0.6654  0.5249 -1.1857
  169MOL   C20144217   6.358   2.588   1.076  0.2121 -0.1874 -0.6841
  169MOL   C20244218   6.068   2.258   0.924 -0.6736 -0.1278  0.6028
  169MOL   H20344219   6.144   2.231   1.130  2.3884  0.4790 -0.0333
  169MOL   H20444220   6.110   2.515   1.043 -0.4409 -0.3612 -0.8568
  169MOL   H20544221   6.377   2.623   0.974  0.0104 -1.5596 -1.2049
  169MOL   H20644222   6.288   2.656   1.124  1.2190  0.9348 -0.7819
  169MOL   H20744223   6.450   2.583   1.135 -0.4199  0.3279  0.3630
  169MOL   H20844224   5.963   2.271   0.901 -0.9367 -3.5787 -0.3771
  169MOL   H20944225   6.117   2.315   0.846  0.9188 -2.2194  0.0184
  169MOL   C21044226   6.111   2.112   0.902  0.7142 -0.5401 -0.1535
  169MOL   N21144227   6.253   2.094   0.959 -0.1068 -0.6977  0.1800
  169MOL   C21244228   6.316   1.990   1.013  0.4592  0.7091  0.9676
  169MOL   O21344229   6.277   1.872   1.021  0.1326  0.5919 -0.6451
  169MOL   C21444230   6.447   2.035   1.072  0.3307 -0.7495  0.8637
  169MOL   C21544231   6.114   2.081   0.746  0.5093 -0.3507 -0.2353
  169MOL   H21644232   6.052   2.031   0.946 -0.0753 -0.3043 -0.7734
  169MOL   H21744233   6.286   2.183   0.991  0.0690 -1.0039  0.8573
  169MOL   H21844234   6.501   1.947   1.106 -0.9503 -1.4975  1.0056
  169MOL   H21944235   6.514   2.091   1.006 -2.1353 -0.5303 -1.5551
  169MOL   H22044236   6.434   2.090   1.165  1.1299  0.0455  0.5178
  169MOL   H22144237   6.013   2.110   0.717  1.4671  0.8125 -2.5567
  169MOL   H22244238   6.177   2.146   0.685  1.7373 -0.1299  1.2440
  169MOL   C22344239   6.121   1.934   0.698 -0.9854  0.6940  0.2474
  169MOL   N22444240   6.206   1.923   0.578 -0.2317  0.3517  1.2228
  169MOL   C22544241   6.336   1.943   0.571 -0.1865 -0.5092 -0.4808
  169MOL   O22644242   6.402   1.971   0.670 -0.1965  0.5534  0.6225
  169MOL   C22744243   6.404   1.947   0.431  0.1261 -0.2365 -0.6657
  169MOL   C22844244   5.984   1.874   0.657 -0.3008 -0.0237 -0.0819
  169MOL   H22944245   6.164   1.882   0.783  2.6181 -1.0504 -2.5186
  169MOL   H23044246   6.153   1.904   0.494 -0.1037 -3.3942  1.8913
  169MOL   H23144247   6.465   1.862   0.403 -0.6027 -0.3214 -2.0639
  169MOL   H23244248   6.332   1.960   0.349 -0.0326 -0.5266 -0.5719
  169MOL   H23344249   6.459   2.041   0.429  0.7894 -0.6345 -1.0716
  169MOL   H23444250   5.953   1.935   0.572  0.6323  0.5028 -0.0454
  169MOL   H23544251   5.997   1.774   0.617 -1.6793 -0.5807  0.8253
  169MOL   C23644252   5.867   1.861   0.759  0.1121 -0.4662 -0.7135
  169MOL   N23744253   5.909   1.783   0.879 -0.2483 -0.5699 -0.2992
  169MOL   C23844254   5.938   1.654   0.878 -0.1537  0.4450 -0.1150
  169MOL   O23944255   5.936   1.590   0.775 -0.4941  0.4452 -0.3549
  169MOL   C24044256   5.981   1.587   1.015  0.3937 -0.4323  0.8308
  169MOL   C24144257   5.731   1.809   0.703 -0.6329  0.0728 -0.0386
  169MOL   H24244258   5.846   1.961   0.797 -0.5490 -1.3107  1.2216
  169MOL   H24344259   5.899   1.841   0.961 -1.5295 -1.1433 -0.0319
  169MOL   H24444260   5.891   1.553   1.067  0.1418  1.0307  1.3837
  169MOL   H24544261   6.032   1.494   0.988 -0.8584 -0.6138 -1.0105
  169MOL   H24644262   6.038   1.646   1.087  1.6304 -0.8949  0.2485
  169MOL   H24744263   5.711   1.857   0.607 -0.2362 -0.8736 -0.6093
  169MOL   H24844264   5.748   1.706   0.672  2.4201  0.8124 -0.9656
  169MOL   C24944265   5.603   1.830   0.795 -0.3352 -0.5334 -0.3245
  169MOL   N25044266   5.627   1.803   0.937 -0.3098 -0.3525 -0.2205
  169MOL   C25144267   5.579   1.881   1.038 -0.2200  0.1091  0.2551
  169MOL   O25244268   5.509   1.981   1.009  0.1772  0.3632 -0.4756
  169MOL   C25344269   5.603   1.831   1.182 -0.0486 -0.2647  0.4309
  169MOL   C25444270   5.476   1.762   0.743  0.4518  0.2797 -0.9158
  169MOL   H25544271   5.578   1.936   0.798  2.6467  0.2694 -1.8404
  169MOL   H25644272   5.676   1.716   0.951 -0.7345 -0.7628 -1.2643
  169MOL   H25744273   5.657   1.889   1.258 -1.4805  2.8489 -0.8270
  169MOL   H25844274   5.500   1.829   1.218 -0.5743 -1.5495 -1.1009
  169MOL   H25944275   5.641   1.729   1.180 -1.0202 -0.6010 -1.7781
  169MOL   H26044276   5.437   1.674   0.794 -0.8158  0.9322 -0.7309
  169MOL   H26144277   5.392   1.832   0.740 -1.1415 -1.5322  0.3883
  169MOL   H26244278   5.478   1.736   0.637  0.0656  0.1739 -0.8967
  170MOL     C144279   4.907   7.749   7.779  0.3281  1.1055  0.4995
  170MOL     N244280   4.797   7.655   7.749  0.2422 -0.0985  0.3636
  170MOL     C344281   4.792   7.605   7.626 -0.7945  0.5471  0.0831
  170MOL     O444282   4.841   7.648   7.521 -0.5957  0.3448  0.6298
  170MOL     C544283   4.737   7.459   7.631 -0.1813  0.0911  0.3795
  170MOL     C644284   4.892   7.814   0.071  0.2746 -0.3955  0.2553
  170MOL     H744285   4.997   7.688   7.775 -0.6237 -0.5077  2.8010
  170MOL     H844286   4.741   7.617   7.824  0.0813  1.2841  0.9706
  170MOL     H944287   4.641   7.469   7.579 -1.0284  0.5165  1.9854
  170MOL    H1044288   4.795   7.384   7.577  1.1402  1.7977 -0.6395
  170MOL    H1144289   4.716   7.420   7.730  2.2392 -0.9300  0.5232
  170MOL    H1244290   4.814   0.051   0.069 -2.0847 -2.5240  4.3850
  170MOL    H1344291   4.858   7.740   0.143  0.9301 -0.9124  0.0359
  170MOL    H1444292   4.933   7.819   7.699  0.5843  2.4826  1.7633
  170MOL    C1544293   5.025   0.037   0.125  0.4315  0.2313  0.3514
  170MOL    N1644294   5.053   0.158   0.043 -0.3762 -0.6244 -0.1395
  170MOL    C1744295   5.072   0.280   0.103 -0.4570 -0.4379  0.5204
  170MOL    O1844296   5.059   0.303   0.226  0.2405  0.2688 -0.1202
  170MOL    C1944297   5.126   0.399   0.014 -0.4155  1.2562 -0.2094
  170MOL    C2044298   5.150   7.792   0.141  0.0359 -0.3545 -0.1337
  170MOL    H2144299   4.989   0.065   0.224 -0.7959 -0.2480  0.0613
  170MOL    H2244300   5.073   0.144   7.785 -0.1676  0.9155 -0.3241
  170MOL    H2344301   5.218   0.434   0.062  2.0627 -2.2809 -2.1580
  170MOL    H2444302   5.165   0.362   7.759 -0.8548 -0.1825  0.1650
  170MOL    H2544303   5.064   0.486   7.830 -2.9754  0.0432  1.7800
  170MOL    H2644304   5.124   7.688   0.159  2.0495 -0.2355  4.1450
  170MOL    H2744305   5.207   7.806   0.049  0.4226  0.8011  0.2705
  170MOL    C2844306   5.253   0.006   0.239  0.1717 -0.3528 -0.2382
  170MOL    N2944307   5.367   7.755   0.230 -0.5383 -0.3677  0.1965
  170MOL    C3044308   5.494   7.774   0.253 -0.4738 -0.8771 -0.5391
  170MOL    O3144309   5.549   0.044   0.262 -0.4677 -0.3389  0.4512
  170MOL    C3244310   5.576   7.654   0.282 -0.2441  1.1020  0.0757
  170MOL    C3344311   5.185   7.825   0.375  0.7431 -0.2874 -0.2702
  170MOL    H3444312   5.292   0.106   0.221  0.9678 -0.7295 -0.6147
  170MOL    H3544313   5.333   7.661   0.219 -2.4213  0.1494  1.2854
  170MOL    H3644314   5.668   7.677   0.336  0.0869  1.1517 -0.4990
  170MOL    H3744315   5.511   7.584   0.335  0.5870  0.4782  0.2748
  170MOL    H3844316   5.610   7.613   0.187 -1.8848 -1.6402  0.6060
  170MOL    H3944317   5.108   0.059   0.392 -1.3864 -3.0001  2.3363
  170MOL    H4044318   5.137   7.727   0.369  0.7608 -0.3656  0.8773
  170MOL    C4144319   5.263   7.825   0.504  0.2475 -0.2196  0.2616
  170MOL    N4244320   5.383   0.072   0.491 -0.2332  0.0742 -0.5282
  170MOL    C4344321   5.405   0.165   0.587  0.7113 -1.0285 -0.1997
  170MOL    O4444322   5.322   0.199   0.672 -0.3621 -0.0238  0.2827
  170MOL    C4544323   5.541   0.231   0.576 -0.3408  0.2126  0.0782
  170MOL    C4644324   5.308   7.685   0.552 -0.2270  0.3607  0.9013
  170MOL    H4744325   5.192   0.018   0.580 -1.8804 -2.2973 -0.7591
  170MOL    H4844326   5.462   0.051   0.432 -0.9350  0.6415 -1.6909
  170MOL    H4944327   5.538   0.327   0.628  1.0020  0.6579 -0.6357
  170MOL    H5044328   5.612   0.161   0.620 -0.1615  0.8043  0.7369
  170MOL    H5144329   5.571   0.248   0.472  0.8744  0.4975  0.4623
  170MOL    H5244330   5.360   7.639   0.468 -0.8076  4.3359 -1.7636
  170MOL    H5344331   5.372   7.702   0.639 -0.3761  0.4116  0.9999
  170MOL    C5444332   5.199   7.585   0.590 -0.3518 -0.4202  0.0640
  170MOL    N5544333   5.140   7.630   0.715 -0.8345  0.2145  0.4904
  170MOL    C5644334   5.023   7.685   0.742 -0.5000 -0.0429 -0.3660
  170MOL    O5744335   4.928   7.710   0.667 -0.4577  0.6060  0.0310
  170MOL    C5844336   5.000   7.704   0.891  0.3446 -0.0043  0.5517
  170MOL    C5944337   5.257   7.444   0.626  0.2693 -1.2026 -0.3317
  170MOL    H6044338   5.122   7.574   0.514 -1.4474  1.9538  0.7703
  170MOL    H6144339   5.205   7.626   0.792 -0.7513 -0.7232  0.3752
  170MOL    H6244340   5.079   7.759   0.942 -1.5921  4.0988 -0.6896
  170MOL    H6344341   4.908   7.760   0.906 -0.3450 -1.0161  0.1691
  170MOL    H6444342   4.981   7.607   0.938 -0.0138 -1.6639 -2.8840
  170MOL    H6544343   5.342   7.458   0.694  1.3315  1.6277 -2.1228
  170MOL    H6644344   5.194   7.383   0.690 -1.2365  0.8160  0.1732
  170MOL    C6744345   5.309   7.356   0.508  0.4419 -0.0483 -0.8169
  170MOL    N6844346   5.200   7.333   0.415  0.2219 -0.1270  0.2513
  170MOL    C6944347   5.185   7.395   0.299 -0.7048 -0.3486  0.1573
  170MOL    O7044348   5.254   7.491   0.272 -0.4871 -0.0332  0.3856
  170MOL    C7144349   5.086   7.333   0.201  0.3989  0.3502 -0.8693
  170MOL    C7244350   5.357   7.220   0.560  0.0705 -0.1785 -0.2526
  170MOL    H7344351   5.399   7.395   0.460  1.6094  0.8163  1.9547
  170MOL    H7444352   5.134   7.260   0.438 -0.2026  0.5937  1.4158
  170MOL    H7544353   5.093   7.225   0.193  0.2777  0.3125 -0.4759
  170MOL    H7644354   4.982   7.345   0.229  0.2031 -0.6569 -1.1506
  170MOL    H7744355   5.099   7.371   0.099  0.0162 -0.4085 -1.2013
  170MOL    H7844356   5.275   7.196   0.628 -0.1723  2.3906  0.4187
  170MOL    H7944357   5.354   7.143   0.483 -0.1535 -0.4518  0.0232
  170MOL    C8044358   5.487   7.217   0.628  0.6240 -0.4439 -0.4039
  170MOL    N8144359   5.599   7.243   0.535  0.1542 -0.2123  0.4458
  170MOL    C8244360   5.660   7.359   0.501 -0.8940 -0.1734 -0.2933
  170MOL    O8344361   5.633   7.470   0.545 -0.0899 -0.0569 -0.6343
  170MOL    C8444362   5.779   7.350   0.408 -0.2947 -0.1987 -0.0288
  170MOL    C8544363   5.508   7.086   0.703 -0.6551 -0.3957 -0.5201
  170MOL    H8644364   5.493   7.293   0.705 -4.1467  0.3003 -0.5934
  170MOL    H8744365   5.629   7.159   0.489  2.7236  0.7588  0.2875
  170MOL    H8844366   5.874   7.369   0.458 -0.6953 -0.9976  1.0658
  170MOL    H8944367   5.780   7.254   0.355 -3.3738 -1.0265  1.3002
  170MOL    H9044368   5.772   7.432   0.337  1.6224 -0.0321 -0.0554
  170MOL    H9144369   5.476   6.994   0.653 -2.9510 -0.2926  0.6841
  170MOL    H9244370   5.616   7.074   0.701 -0.2000  3.1282  0.1585
  170MOL    C9344371   5.457   7.086   0.854 -0.0399  0.2541  0.0147
  170MOL    N9444372   5.540   7.167   0.942  0.2820  0.2563  0.0292
  170MOL    C9544373   5.520   7.295   0.971 -0.3264 -0.1622 -0.1192
  170MOL    O9644374   5.424   7.359   0.935  0.1310  0.3282 -0.1972
  170MOL    C9744375   5.611   7.365   1.073 -0.4334  0.1613 -0.0791
  170MOL    C9844376   5.447   6.949   0.920  0.1961 -0.6587 -0.8194
  170MOL    H9944377   5.354   7.121   0.859 -0.4501 -1.0868  1.8920
  170MOL   H10044378   5.620   7.122   0.984 -0.0584 -0.8296 -0.4412
  170MOL   H10144379   5.711   7.330   1.050  0.1658  2.6156 -1.4202
  170MOL   H10244380   5.606   7.474   1.075 -0.6025  0.2379 -2.7820
  170MOL   H10344381   5.574   7.326   1.168  0.1674  1.4281  0.6949
  170MOL   H10444382   5.399   6.880   0.850  1.5275 -2.1960 -0.2423
  170MOL   H10544383   5.545   6.904   0.931  0.7344  0.4179 -1.1352
  170MOL   C10644384   5.361   6.946   1.048 -0.1000  0.9126 -0.6492
  170MOL   N10744385   5.406   6.826   1.126 -0.0652 -1.0175  0.4515
  170MOL   C10844386   5.490   6.819   1.225 -0.1105 -0.4222 -0.0318
  170MOL   O10944387   5.560   6.915   1.265  0.1604  0.2930  0.1594
  170MOL   C11044388   5.516   6.680   1.279  0.4851 -0.4105  0.6449
  170MOL   C11144389   5.208   6.945   1.022  0.0696 -0.1772 -0.0788
  170MOL   H11244390   5.376   7.039   1.102 -0.3711  0.2778  0.5425
  170MOL   H11344391   5.354   6.740   1.112 -4.2802  1.2713  1.0976
  170MOL   H11444392   5.480   6.600   1.214 -1.9508  1.7643 -0.7833
  170MOL   H11544393   5.624   6.670   1.291  0.3242 -0.4524  2.2210
  170MOL   H11644394   5.460   6.680   1.373  0.6952 -2.9565  0.8002
  170MOL   H11744395   5.192   7.044   0.982  0.5725 -1.0044 -2.3686
  170MOL   H11844396   5.173   6.885   0.938  1.0525 -0.3230 -0.3924
  170MOL   C11944397   5.121   6.929   1.147 -0.4058  0.7354 -0.4231
  170MOL   N12044398   5.039   6.809   1.132 -0.1727  0.0490 -0.0168
  170MOL   C12144399   5.068   6.686   1.177 -0.0745 -0.4351  0.3025
  170MOL   O12244400   5.184   6.654   1.194 -0.2586 -0.6476 -0.2599
  170MOL   C12344401   4.958   6.593   1.207  0.3299 -0.1655  0.2216
  170MOL   C12444402   5.022   7.045   1.170 -0.4884 -0.1721  0.2491
  170MOL   H12544403   5.181   6.917   1.238  0.0024  3.3245 -0.3335
  170MOL   H12644404   4.943   6.820   1.102  0.2592 -2.5381 -2.5667
  170MOL   H12744405   4.968   6.558   1.309 -0.2411 -0.7890  0.0648
  170MOL   H12844406   4.859   6.633   1.187  0.4370 -0.5177 -1.0814
  170MOL   H12944407   4.968   6.497   1.155 -0.0121 -0.1104  0.0572
  170MOL   H13044408   4.961   7.049   1.080 -0.2528  0.4819  0.1150
  170MOL   H13144409   4.960   7.017   1.255 -1.5295  3.9508  0.9476
  170MOL   C13244410   5.085   7.171   1.214  0.0489 -0.2458 -0.2249
  170MOL   N13344411   5.141   7.166   1.350 -0.8094 -0.1205 -0.0770
  170MOL   C13444412   5.273   7.180   1.373  0.4419  0.4371 -0.1840
  170MOL   O13544413   5.353   7.222   1.290  0.2586  0.8503  0.1421
  170MOL   C13644414   5.327   7.148   1.511  0.8792  0.1199  0.3335
  170MOL   C13744415   4.984   7.296   1.201 -0.8386  0.3464  0.3733
  170MOL   H13844416   5.170   7.188   1.148  0.4303  0.5179  0.4547
  170MOL   H13944417   5.084   7.162   1.433 -0.7114 -1.7857 -0.0865
  170MOL   H14044418   5.402   7.070   1.508  0.2850 -0.4318 -0.1161
  170MOL   H14144419   5.359   7.240   1.560 -1.2365  0.7710  0.5333
  170MOL   H14244420   5.254   7.113   1.584 -0.6317  1.4561 -0.5013
  170MOL   H14344421   4.935   7.294   1.104  1.7785  5.0107 -1.2119
  170MOL   H14444422   4.905   7.274   1.273 -0.3549 -1.1549  0.4581
  170MOL   C14544423   5.033   7.438   1.240 -0.0993  0.2215  0.4198
  170MOL   N14644424   4.913   7.524   1.210 -0.0952 -0.4244 -0.5204
  170MOL   C14744425   4.892   7.643   1.260 -0.2672 -0.1728 -0.4933
  170MOL   O14844426   4.972   7.696   1.332  0.1205 -0.2615 -0.4962
  170MOL   C14944427   4.766   7.702   1.215 -0.2992  0.0237  0.1471
  170MOL   C15044428   5.153   7.478   1.154 -0.1853 -0.5120  0.0107
  170MOL   H15144429   5.066   7.440   1.343  0.0362  0.3775  0.3744
  170MOL   H15244430   4.847   7.497   1.138  0.1894 -0.5422 -0.7355
  170MOL   H15344431   4.688   7.706   1.291 -1.0374  1.6126 -0.6659
  170MOL   H15444432   4.767   7.807   1.185  0.2888  0.0665  0.3095
  170MOL   H15544433   4.724   7.648   1.130  0.2631 -0.3395  0.0994
  170MOL   H15644434   5.215   7.390   1.138  0.9942  0.0536  1.3849
  170MOL   H15744435   5.116   7.490   1.052 -0.9396  1.9256  0.5288
  170MOL   C15844436   5.245   7.592   1.181  0.8516 -0.0542  0.1608
  170MOL   N15944437   5.335   7.598   1.064  0.2995 -0.0494 -0.2169
  170MOL   C16044438   5.383   7.710   1.014 -0.5917 -0.1699  0.0090
  170MOL   O16144439   5.374   7.814   1.077 -0.4522 -0.4185  0.0645
  170MOL   C16244440   5.460   7.703   0.884  1.0257 -0.0843 -0.7383
  170MOL   C16344441   5.328   7.568   1.319  0.9001 -1.0854  0.0070
  170MOL   H16444442   5.184   7.682   1.185  0.6218  0.0147 -3.3642
  170MOL   H16544443   5.355   7.514   1.012  0.6701 -0.3192  0.3520
  170MOL   H16644444   5.566   7.688   0.906  0.9717  0.2658 -0.2495
  170MOL   H16744445   5.434   7.613   0.829  0.0227 -0.5411  0.4711
  170MOL   H16844446   5.457   7.796   0.826  0.1034  1.3330  1.5386
  170MOL   H16944447   5.275   7.491   1.376 -2.3341  1.7077  0.8878
  170MOL   H17044448   5.434   7.554   1.296  1.1118 -0.0457  0.3136
  170MOL   C17144449   5.317   7.692   1.415  0.2319 -0.1915 -0.1329
  170MOL   N17244450   5.392   7.806   1.349  0.3583 -0.2900 -0.3656
  170MOL   C17344451   5.391   0.097   1.387  0.1385  0.2087 -0.0213
  170MOL   O17444452   5.333   0.131   1.491  0.3137  0.0147  0.3530
  170MOL   C17544453   5.458   0.204   1.293 -0.1336 -0.2225 -0.3601
  170MOL   C17644454   5.352   7.666   1.567  0.1158  0.3334 -0.1759
  170MOL   H17744455   5.217   7.733   1.430  0.3351 -0.6053  1.9549
  170MOL   H17844456   5.404   7.804   1.249  0.2882 -1.5401 -0.3551
  170MOL   H17944457   5.564   0.213   1.319  0.1404 -0.9077 -1.1885
  170MOL   H18044458   5.459   0.176   1.188 -0.5958 -0.1164 -0.3905
  170MOL   H18144459   5.413   0.302   1.301  0.1593 -0.0349 -0.9969
  170MOL   H18244460   5.371   7.759   1.621 -2.0683  0.9914 -0.4741
  170MOL   H18344461   5.263   7.640   1.624  0.5068  2.8730  1.6689
  170MOL   C18444462   5.467   7.563   1.602 -0.2934 -0.3667  0.4214
  170MOL   N18544463   5.476   7.540   1.747 -0.2688  0.3330 -0.0744
  170MOL   C18644464   5.409   7.449   1.820  0.3300  0.3057 -0.5933
  170MOL   O18744465   5.333   7.367   1.774 -0.3914  0.7633  0.1334
  170MOL   C18844466   5.422   7.456   1.968 -0.3310 -0.0829  0.3250
  170MOL   C18944467   5.600   7.592   1.538  0.5707  0.0182  0.1604
  170MOL   H19044468   5.439   7.471   1.551  0.9058 -0.6621  0.2798
  170MOL   H19144469   5.530   7.608   1.798 -0.0086  0.5005 -0.5650
  170MOL   H19244470   5.321   7.474   2.004  0.1333  1.6173  0.8583
  170MOL   H19344471   5.470   7.365   2.005 -0.4254 -1.5446 -2.9875
  170MOL   H19444472   5.489   7.537   1.997 -0.9799  0.4741  0.2813
  170MOL   H19544473   5.588   7.625   1.434 -1.0806 -0.7529  0.0837
  170MOL   H19644474   5.627   7.679   1.598  0.7835 -2.1149  3.2345
  170MOL   C19744475   5.712   7.484   1.555 -0.2780  0.0573  0.3008
  170MOL   N19844476   5.842   7.542   1.509 -0.4175 -0.3112 -0.3927
  170MOL   C19944477   5.959   7.509   1.568  0.2280 -0.0941  0.6734
  170MOL   O20044478   5.972   7.433   1.670 -0.7127 -0.6930  0.1037
  170MOL   C20144479   6.079   7.578   1.513 -0.3372  0.4365  1.4246
  170MOL   C20244480   5.699   7.349   1.472 -0.1110 -0.8740  0.0257
  170MOL   H20344481   5.710   7.454   1.660  3.4581  0.8703  0.6799
  170MOL   H20444482   5.854   7.606   1.432 -1.9826  0.4065 -0.0675
  170MOL   H20544483   6.061   7.685   1.518  1.7547  0.9066 -0.3125
  170MOL   H20644484   6.166   7.556   1.576  2.1646  1.1780 -1.6393
  170MOL   H20744485   6.117   7.554   1.414 -1.2032  0.0410  1.1851
  170MOL   H20844486   5.595   7.322   1.491 -1.0055  1.0464 -1.8805
  170MOL   H20944487   5.703   7.382   1.368  0.0063  1.7767  0.8251
  170MOL   C21044488   5.792   7.233   1.515 -0.4982  0.3242 -0.3032
  170MOL   N21144489   5.787   7.134   1.410 -0.2799  0.1450  0.2701
  170MOL   C21244490   5.898   7.074   1.351  0.3831  0.1678 -0.4212
  170MOL   O21344491   6.011   7.090   1.395  0.3251  0.2684  0.4542
  170MOL   C21444492   5.880   6.970   1.244 -0.2026 -0.4216  0.1490
  170MOL   C21544493   5.742   7.176   1.656 -0.1210  0.8952 -0.8119
  170MOL   H21644494   5.896   7.267   1.522 -0.3121 -0.4928  1.0280
  170MOL   H21744495   5.695   7.113   1.373  0.1780 -0.5857 -0.4596
  170MOL   H21844496   5.873   6.870   1.287 -0.0108  0.9317  3.4569
  170MOL   H21944497   5.789   6.986   1.186  0.5606 -0.2375 -1.0243
  170MOL   H22044498   5.962   6.964   1.172 -0.5606 -0.8860 -0.2203
  170MOL   H22144499   5.738   7.257   1.729  0.2378  0.6719 -0.5440
  170MOL   H22244500   5.638   7.146   1.643  0.1376 -0.0627 -0.7044
  170MOL   C22344501   5.839   7.059   1.707 -0.1162  0.3169 -0.0219
  170MOL   N22444502   5.778   6.970   1.801 -0.2828  0.1278  0.0594
  170MOL   C22544503   5.682   6.880   1.783 -0.2762 -0.0049 -0.0805
  170MOL   O22644504   5.616   6.876   1.682  0.0796 -0.2348 -0.9452
  170MOL   C22744505   5.659   6.776   1.889 -0.3848  0.6328  0.3362
  170MOL   C22844506   5.966   7.120   1.766 -0.4840 -0.1331  0.1968
  170MOL   H22944507   5.862   6.992   1.625  1.3290  0.7982 -0.0188
  170MOL   H23044508   5.813   6.971   1.896  0.0190 -2.7072  0.0161
  170MOL   H23144509   5.742   6.763   1.959 -0.4700 -0.4923  0.2243
  170MOL   H23244510   5.565   6.793   1.942  0.2125  2.8729  0.7256
  170MOL   H23344511   5.646   6.684   1.832  0.2175  0.8602 -0.1718
  170MOL   H23444512   6.006   7.190   1.693 -1.6687  0.7602  0.3950
  170MOL   H23544513   5.951   7.182   1.854  1.2755 -1.1747  1.2721
  170MOL   C23644514   6.093   7.033   1.791  0.2928  0.7660 -0.3046
  170MOL   N23744515   6.068   6.917   1.884 -0.7711 -0.2739 -0.3795
  170MOL   C23844516   6.025   6.918   2.013 -0.0698 -0.4177  0.2007
  170MOL   O23944517   5.972   7.018   2.062 -0.2034  0.3521 -0.5901
  170MOL   C24044518   6.056   6.796   2.100 -0.0790 -0.1670 -0.1260
  170MOL   C24144519   6.225   7.105   1.833  0.2683  0.1367 -0.8546
  170MOL   H24244520   6.112   6.987   1.694  0.8285 -2.7084  1.3714
  170MOL   H24344521   6.107   6.830   1.851  0.5821 -0.7674  2.4000
  170MOL   H24444522   5.986   6.793   2.184 -0.9810 -0.1819 -0.8689
  170MOL   H24544523   6.056   6.703   2.044  0.5021 -2.2882  3.2238
  170MOL   H24644524   6.151   6.795   2.154  0.2042 -4.5005 -0.5706
  170MOL   H24744525   6.213   7.140   1.935  2.5236 -0.4601 -0.3677
  170MOL   H24844526   6.297   7.024   1.844 -0.6389 -0.8114 -1.6386
  170MOL   C24944527   6.280   7.211   1.742 -0.8835 -0.5638 -0.0745
  170MOL   N25044528   6.227   7.348   1.769 -0.1691  0.6152  0.7994
  170MOL   C25144529   6.270   7.424   1.863  0.0609 -0.3029  0.4480
  170MOL   O25244530   6.348   7.396   1.952  0.5182 -0.4227 -0.5786
  170MOL   C25344531   6.220   7.570   1.865  0.3884 -0.1296  0.1598
  170MOL   C25444532   6.286   7.174   1.595  0.4318  0.1441 -0.3251
  170MOL   H25544533   6.381   7.223   1.782 -0.8805  0.7756 -0.4932
  170MOL   H25644534   6.154   7.393   1.718  0.2837 -0.1585 -0.5558
  170MOL   H25744535   6.122   7.570   1.818  0.6592 -1.5824 -0.4062
  170MOL   H25844536   6.219   7.610   1.966  0.7528 -1.7704  0.8224
  170MOL   H25944537   6.285   7.627   1.798  1.6863 -1.4261  0.2979
  170MOL   H26044538   6.192   7.191   1.543  0.5642 -0.3446 -0.7292
  170MOL   H26144539   6.359   7.234   1.539  0.2686  2.0192  1.4042
  170MOL   H26244540   6.307   7.068   1.587  1.0389  0.2764 -0.5282
  171MOL     C144541   7.177   1.536   4.986 -0.9183  0.1897 -0.1693
  171MOL     N244542   7.271   1.437   4.935 -0.7012  0.1538  1.0347
  171MOL     C344543   7.392   1.466   4.887  0.4085 -0.0393 -0.0892
  171MOL     O444544   7.426   1.581   4.859  0.0530 -0.0115 -0.4673
  171MOL     C544545   7.478   1.350   4.858 -0.4221  0.0454  0.2871
  171MOL     C644546   7.224   1.605   5.110  0.1383 -0.0444 -0.9664
  171MOL     H744547   7.142   1.596   4.903  1.8059  1.6834 -0.3074
  171MOL     H844548   7.237   1.342   4.941 -1.7115  0.4161 -0.4550
  171MOL     H944549   7.516   1.367   4.757  0.7313  0.4359  0.7796
  171MOL    H1044550   7.557   1.338   4.932  0.3624  0.2253 -0.5125
  171MOL    H1144551   7.428   1.253   4.855 -0.5547  0.0939  0.9057
  171MOL    H1244552   7.157   1.563   5.186 -0.3219 -3.1305 -2.9702
  171MOL    H1344553   7.321   1.570   5.147  0.6725  0.7902 -1.5933
  171MOL    H1444554   7.092   1.478   5.022  0.4619 -0.7021  1.7259
  171MOL    C1544555   7.219   1.758   5.118  0.5970  0.0899  0.3493
  171MOL    N1644556   7.256   1.797   4.983  0.0766 -0.1404 -0.2512
  171MOL    C1744557   7.201   1.889   4.906  0.6895 -0.0609 -0.2092
  171MOL    O1844558   7.112   1.964   4.942 -0.0959  0.3096  0.6714
  171MOL    C1944559   7.247   1.901   4.763  0.2997  0.3287 -0.2290
  171MOL    C2044560   7.297   1.816   5.232 -0.5835  0.6699 -0.3423
  171MOL    H2144561   7.116   1.784   5.142 -0.1203 -0.5866 -1.9167
  171MOL    H2244562   7.322   1.733   4.942  0.9111  0.2922  0.3884
  171MOL    H2344563   7.257   2.004   4.729  0.4066  0.3861 -0.0226
  171MOL    H2444564   7.346   1.858   4.777  0.0412  0.3717  1.9905
  171MOL    H2544565   7.200   1.838   4.687  2.0094  0.2377 -1.2400
  171MOL    H2644566   7.402   1.806   5.205 -0.5703 -1.2240  0.3229
  171MOL    H2744567   7.279   1.924   5.240  1.0312  0.8856  0.5288
  171MOL    C2844568   7.281   1.763   5.384  0.3132  0.1945 -0.5389
  171MOL    N2944569   7.167   1.833   5.439 -0.5840  0.3738 -0.3900
  171MOL    C3044570   7.053   1.771   5.460  0.0231 -0.7554 -0.4193
  171MOL    O3144571   7.028   1.653   5.423 -1.0107 -0.1136 -0.0050
  171MOL    C3244572   6.946   1.852   5.534 -0.2242  0.6564 -0.5674
  171MOL    C3344573   7.402   1.798   5.467  0.2876  0.0541  0.8404
  171MOL    H3444574   7.285   1.654   5.382 -0.8580  0.1371 -0.1435
  171MOL    H3544575   7.182   1.929   5.466 -1.9762  0.1668  1.2230
  171MOL    H3644576   6.994   1.922   5.602 -0.5685 -0.4831  0.8772
  171MOL    H3744577   6.871   1.899   5.471 -0.9414  0.5943  0.2377
  171MOL    H3844578   6.898   1.774   5.594 -1.9978  1.1765 -1.2779
  171MOL    H3944579   7.426   1.904   5.466 -0.1089  0.1325 -0.1139
  171MOL    H4044580   7.363   1.771   5.566 -0.5043  2.6487  1.2689
  171MOL    C4144581   7.533   1.727   5.436 -0.4279 -0.8366  0.8332
  171MOL    N4244582   7.514   1.593   5.387  0.6432  0.1850  0.5762
  171MOL    C4344583   7.557   1.542   5.269 -0.0555 -0.8001 -0.1626
  171MOL    O4444584   7.600   1.613   5.175  0.3571  0.1423 -0.9336
  171MOL    C4544585   7.542   1.395   5.248 -0.0056  0.0134  0.7759
  171MOL    C4644586   7.604   1.713   5.572  0.5868  0.4582 -0.0756
  171MOL    H4744587   7.597   1.788   5.372 -2.6619 -0.3501 -0.9740
  171MOL    H4844588   7.487   1.533   5.464 -2.1584  0.8999  0.2235
  171MOL    H4944589   7.530   1.375   5.142 -1.2761 -0.4952  1.0030
  171MOL    H5044590   7.635   1.351   5.284 -0.6145  0.0930  2.5006
  171MOL    H5144591   7.461   1.355   5.310 -0.7296 -0.7368 -0.6495
  171MOL    H5244592   7.619   1.809   5.621 -0.9720  0.9668 -0.5892
  171MOL    H5344593   7.530   1.668   5.638 -0.0999 -0.0208 -1.1584
  171MOL    C5444594   7.740   1.641   5.580  0.4307  0.0681 -0.3155
  171MOL    N5544595   7.769   1.613   5.719 -0.1676 -0.3543 -0.8847
  171MOL    C5644596   0.003   1.523   5.777  0.1110 -0.0932  0.1648
  171MOL    O5744597   0.076   1.450   5.716 -0.0632  0.4322  0.4450
  171MOL    C5844598   7.830   1.496   5.931  0.4906 -0.1498  0.3687
  171MOL    C5944599   0.020   1.707   5.504 -0.2474  0.0682  0.4915
  171MOL    H6044600   7.722   1.547   5.527 -0.5376 -0.2277  0.5035
  171MOL    H6144601   7.707   1.665   5.779  1.7654  0.2007  0.6807
  171MOL    H6244602   0.086   1.501   5.983  0.7207  0.7020 -0.1226
  171MOL    H6344603   7.769   1.573   5.980  1.0371 -0.2427  1.2054
  171MOL    H6444604   7.779   1.402   5.951  0.5343 -0.4444 -0.9040
  171MOL    H6544605   7.832   1.808   5.474  1.0078  0.0696 -0.7475
  171MOL    H6644606   0.105   1.718   5.572  0.5507  0.3020 -0.5331
  171MOL    C6744607   0.076   1.643   5.373 -0.3896 -0.5485 -0.0760
  171MOL    N6844608   0.100   1.498   5.406 -0.0855 -0.1310 -0.1018
  171MOL    C6944609   0.072   1.393   5.320 -0.3142 -0.2903  0.7542
  171MOL    O7044610   0.040   1.410   5.201 -0.2413  0.4135  0.0152
  171MOL    C7144611   0.066   1.251   5.374  0.8111  0.2321  0.5342
  171MOL    C7244612   0.198   1.720   5.326  0.5490  0.8648 -0.3683
  171MOL    H7344613   7.832   1.649   5.303 -0.8429  0.5519  0.5432
  171MOL    H7444614   0.111   1.466   5.501 -0.7008  0.2563  0.1040
  171MOL    H7544615   0.021   1.182   5.302 -0.6984  1.5631  0.1709
  171MOL    H7644616   0.159   1.209   5.411  0.2126  0.2197  2.0994
  171MOL    H7744617   7.828   1.247   5.451  1.3356 -0.0791  1.0458
  171MOL    H7844618   0.172   1.826   5.328  2.1837  1.2669  1.3186
  171MOL    H7944619   0.273   1.697   5.401  0.0174  0.3098 -0.0013
  171MOL    C8044620   0.246   1.693   5.180 -0.4714 -0.1818  0.1397
  171MOL    N8144621   0.392   1.717   5.164  0.0067 -0.1458 -0.4193
  171MOL    C8244622   0.484   1.627   5.131 -0.2395 -0.2445  0.2842
  171MOL    O8344623   0.470   1.505   5.128 -0.2261  0.0187 -0.1641
  171MOL    C8444624   0.619   1.686   5.083  0.2458  0.2901 -0.0785
  171MOL    C8544625   0.159   1.773   5.075  0.8309 -0.5546  0.0229
  171MOL    H8644626   0.231   1.586   5.160  1.4281 -0.5025  0.3383
  171MOL    H8744627   0.423   1.813   5.173 -0.8236  0.0218  0.7815
  171MOL    H8844628   0.661   1.613   5.013  1.7496  1.1860 -0.1231
  171MOL    H8944629   0.609   1.789   5.049 -1.8541  0.0230 -0.3221
  171MOL    H9044630   0.690   1.678   5.165 -0.2882  1.6782  0.5206
  171MOL    H9144631   0.057   1.791   5.110 -0.2243 -0.1172 -3.1029
  171MOL    H9244632   0.207   1.871   5.072 -2.5022  1.1354 -1.2403
  171MOL    C9344633   0.152   1.710   4.934 -0.1839  0.0610  1.0785
  171MOL    N9444634   0.160   1.818   4.837  0.1682  0.8157 -0.0629
  171MOL    C9544635   0.273   1.879   4.803 -0.2709  0.3633  0.1168
  171MOL    O9644636   0.384   1.827   4.811 -0.6096  0.1679  0.0157
  171MOL    C9744637   0.260   2.023   4.754  0.4833 -0.1090 -0.0646
  171MOL    C9844638   0.029   1.627   4.903  0.0048  0.4307  0.7082
  171MOL    H9944639   0.244   1.652   4.926  0.0153  0.7594 -3.1439
  171MOL   H10044640   0.079   1.877   4.829  1.0863  2.3369  1.5996
  171MOL   H10144641   0.195   2.069   4.828 -0.1222 -1.2735  0.1415
  171MOL   H10244642   0.356   2.074   4.748 -0.1288  1.1133  0.1987
  171MOL   H10344643   0.228   2.027   4.650  0.9874  1.2682 -0.1723
  171MOL   H10444644   7.816   1.610   4.997 -1.5605  2.5113  0.2476
  171MOL   H10544645   7.798   1.687   4.845  1.0705 -0.3417 -1.4473
  171MOL   C10644646   0.048   1.496   4.826 -0.3832  0.0072 -0.0111
  171MOL   N10744647   0.119   1.406   4.922 -0.0419  0.2505 -0.0265
  171MOL   C10844648   0.144   1.277   4.903  0.7438  0.1962 -0.3495
  171MOL   O10944649   0.107   1.220   4.803  0.0649 -0.1055 -0.3342
  171MOL   C11044650   0.197   1.204   5.019 -0.3163 -0.6470  0.0527
  171MOL   C11144651   0.121   1.509   4.693  0.5079 -0.2241  0.3022
  171MOL   H11244652   7.790   1.452   4.807 -0.7317 -0.6923  3.1298
  171MOL   H11344653   0.129   1.439   5.017 -2.5539  1.2693 -0.0926
  171MOL   H11444654   0.262   1.266   5.081 -1.7461 -0.2145  1.1333
  171MOL   H11544655   0.112   1.165   5.074 -2.0793  0.6319 -1.7149
  171MOL   H11644656   0.251   1.120   4.976 -1.1571  1.0730 -4.6703
  171MOL   H11744657   0.219   1.548   4.717  0.8214 -1.4064  0.9957
  171MOL   H11844658   0.136   1.412   4.644  1.0032 -1.0150  1.9790
  171MOL   C11944659   0.054   1.605   4.588 -0.5497 -0.3728  0.2307
  171MOL   N12044660   7.748   1.586   4.582  0.3473  0.5756 -0.2306
  171MOL   C12144661   7.663   1.672   4.519  0.3351 -0.1690  0.0486
  171MOL   O12244662   7.710   1.775   4.466 -0.0502 -0.5374 -0.4391
  171MOL   C12344663   7.507   1.641   4.516 -0.9499  0.7178  0.5323
  171MOL   C12444664   0.142   1.589   4.457 -0.6188 -0.3471 -0.2107
  171MOL   H12544665   0.064   1.704   4.633  0.3536 -0.7738  0.9263
  171MOL   H12644666   7.700   1.502   4.611 -1.1988  0.6502 -2.4041
  171MOL   H12744667   7.488   1.579   4.428  0.8362 -0.6195  1.0393
  171MOL   H12844668   7.467   1.583   4.600 -0.8478  0.2240  0.2402
  171MOL   H12944669   7.445   1.730   4.508  0.6801  1.5973 -3.4271
  171MOL   H13044670   0.220   1.513   4.464 -1.5506 -1.1463  2.1410
  171MOL   H13144671   0.086   1.551   4.372 -0.9644 -0.5651  0.1068
  171MOL   C13244672   0.216   1.717   4.416 -0.2570 -0.1390  0.1725
  171MOL   N13344673   0.123   1.811   4.353 -0.2756  0.3452  0.3910
  171MOL   C13444674   0.144   1.945   4.334  0.1644  0.0368  0.2421
  171MOL   O13544675   0.257   2.004   4.338  0.1979  0.4462  0.0762
  171MOL   C13644676   0.015   2.029   4.325  0.2623 -1.2248  0.4208
  171MOL   C13744677   0.348   1.703   4.341  0.5136 -0.0022  0.3493
  171MOL   H13844678   0.253   1.760   4.509  0.1927 -0.7074  0.2593
  171MOL   H13944679   0.025   1.788   4.362 -0.1556 -0.3978 -0.1381
  171MOL   H14044680   7.826   2.078   4.417  1.3998  0.6003 -0.1630
  171MOL   H14144681   0.033   2.113   4.257  0.8918 -0.3816  1.5994
  171MOL   H14244682   7.774   1.969   4.283  0.1829  0.6441 -2.2273
  171MOL   H14344683   0.365   1.602   4.303  2.1320  0.0200  0.9738
  171MOL   H14444684   0.354   1.762   4.249  0.7534  0.7296  0.8328
  171MOL   C14544685   0.478   1.719   4.431 -0.1336 -1.0158  0.3907
  171MOL   N14644686   0.459   1.647   4.561  0.5552  0.3857  0.2544
  171MOL   C14744687   0.535   1.545   4.608  0.3115  0.4637  0.0133
  171MOL   O14844688   0.598   1.473   4.534  0.0815  0.1650 -0.6097
  171MOL   C14944689   0.536   1.524   4.758 -0.4216  0.1137 -0.6303
  171MOL   C15044690   0.516   1.861   4.460  0.2041  0.3959 -0.4805
  171MOL   H15144691   0.563   1.678   4.376  0.2264  1.0901 -0.7024
  171MOL   H15244692   0.399   1.688   4.631 -1.6935  0.4413 -1.6326
  171MOL   H15344693   0.624   1.468   4.789 -0.1907  1.2877  0.9509
  171MOL   H15444694   0.536   1.618   4.814  0.1367 -1.3118  1.8435
  171MOL   H15544695   0.440   1.479   4.782 -0.1092 -1.1836 -1.7552
  171MOL   H15644696   0.425   1.912   4.492 -1.3101 -1.4898 -1.6644
  171MOL   H15744697   0.577   1.865   4.550  0.3495  0.3540 -0.5769
  171MOL   C15844698   0.581   1.931   4.336  0.1923 -0.4651  0.2325
  171MOL   N15944699   0.714   1.874   4.305 -0.2579 -0.1594  0.1746
  171MOL   C16044700   0.826   1.872   4.380  0.4754  0.5008  0.0662
  171MOL   O16144701   0.840   1.939   4.479 -0.2758 -0.0832  0.0770
  171MOL   C16244702   0.940   1.778   4.347 -0.0801  0.5140  0.2177
  171MOL   C16344703   0.585   2.085   4.346 -0.2095 -0.0756 -0.0504
  171MOL   H16444704   0.511   1.914   4.255 -1.5645 -0.4889  1.7092
  171MOL   H16544705   0.712   1.815   4.223  0.9080  0.6588 -0.4487
  171MOL   H16644706   1.039   1.822   4.361  0.2151 -0.1647  0.2717
  171MOL   H16744707   0.940   1.692   4.414 -1.8134 -0.5301 -1.0603
  171MOL   H16844708   0.927   1.744   4.244 -0.2180  1.9623 -0.2515
  171MOL   H16944709   0.485   2.107   4.381  0.1408  1.8065 -0.1703
  171MOL   H17044710   0.644   2.118   4.431 -0.1557 -0.2671 -0.0153
  171MOL   C17144711   0.624   2.165   4.224  0.2506  0.3908 -0.5693
  171MOL   N17244712   0.668   2.300   4.263  0.1032  0.3853  0.1669
  171MOL   C17344713   0.766   2.368   4.197 -0.1707  0.1472  0.2256
  171MOL   O17444714   0.819   2.324   4.094  0.0021  0.1351  0.0645
  171MOL   C17544715   0.800   2.503   4.262 -0.0965 -0.1421 -0.6330
  171MOL   C17644716   0.512   2.182   4.115  0.8752  0.7334  0.7137
  171MOL   H17744717   0.712   2.119   4.179 -0.0099 -0.1052 -0.5715
  171MOL   H17844718   0.620   2.353   4.334 -0.2095  0.1101  0.1609
  171MOL   H17944719   0.878   2.548   4.201  0.8249 -0.3991  0.3314
  171MOL   H18044720   0.718   2.574   4.272  1.3618  1.3246  1.3493
  171MOL   H18144721   0.845   2.471   4.357  0.4393 -1.7164 -1.4034
  171MOL   H18244722   0.567   2.211   4.025  0.3788  3.4301  1.2205
  171MOL   H18344723   0.467   2.085   4.095  1.7712  0.1833  1.3184
  171MOL   C18444724   0.403   2.291   4.141  0.7529 -1.1070  0.8281
  171MOL   N18544725   0.326   2.265   4.259 -0.5403  0.4156 -0.5516
  171MOL   C18644726   0.289   2.358   4.353 -0.0985 -0.0222 -0.0752
  171MOL   O18744727   0.321   2.478   4.344 -0.2741 -0.3986  0.1467
  171MOL   C18844728   0.204   2.306   4.466  0.1943 -1.0641  0.1896
  171MOL   C18944729   0.305   2.313   4.017  0.1804  0.3096 -0.0020
  171MOL   H19044730   0.450   2.388   4.149 -0.8778 -0.3553  1.5767
  171MOL   H19144731   0.277   2.177   4.266 -1.5245  1.1305  2.3244
  171MOL   H19244732   0.249   2.220   4.515  1.0342  0.5294  2.2849
  171MOL   H19344733   0.189   2.387   4.537  1.2845 -1.5294  0.9663
  171MOL   H19444734   0.101   2.286   4.434 -0.2303 -0.6492  1.2600
  171MOL   H19544735   0.363   2.322   3.925 -1.3107 -0.5601 -1.0483
  171MOL   H19644736   0.228   2.236   4.025 -0.6336  1.1191  0.0354
  171MOL   C19744737   0.233   2.449   4.006 -0.0612 -0.4840 -0.2065
  171MOL   N19844738   0.133   2.452   3.903 -0.1709  0.6824 -0.1990
  171MOL   C19944739   0.155   2.432   3.771  0.1649  0.2355 -0.5002
  171MOL   O20044740   0.259   2.383   3.723  0.0221 -0.2846 -0.1814
  171MOL   C20144741   0.049   2.486   3.678  0.9485 -0.6298  0.8776
  171MOL   C20244742   0.315   2.584   3.998  0.1860  0.2823 -0.7410
  171MOL   H20344743   0.182   2.442   4.103  0.2965 -2.4261 -0.1297
  171MOL   H20444744   0.044   2.494   3.927  0.1427  0.8762  0.6428
  171MOL   H20544745   0.056   2.594   3.687 -0.3991 -0.4110 -0.4859
  171MOL   H20644746   0.073   2.449   3.578 -0.9562  1.3194 -0.3400
  171MOL   H20744747   7.797   2.442   3.717  0.9918 -0.6903  0.9119
  171MOL   H20844748   0.381   2.601   4.083 -1.5357 -1.2601  0.9515
  171MOL   H20944749   0.379   2.592   3.910  0.0811 -0.5764 -0.8974
  171MOL   C21044750   0.226   2.713   4.000 -0.8278  0.0456 -0.7077
  171MOL   N21144751   0.315   2.832   3.986  0.0940 -0.3396  0.0757
  171MOL   C21244752   0.293   2.955   3.936 -0.4889  0.0460 -0.4931
  171MOL   O21344753   0.188   2.979   3.879  0.1798 -0.0152 -0.4387
  171MOL   C21444754   0.396   3.062   3.956 -0.3967  0.2906 -0.4006
  171MOL   C21544755   0.121   2.714   4.113 -1.3383  0.3944  0.9070
  171MOL   H21644756   0.169   2.724   3.907 -0.7263  0.9717 -0.6603
  171MOL   H21744757   0.410   2.816   4.016  0.2992 -0.4812 -0.6384
  171MOL   H21844758   0.384   3.142   3.883 -0.2316 -2.1080 -3.1514
  171MOL   H21944759   0.386   3.102   4.057 -0.6063 -0.6544 -0.0384
  171MOL   H22044760   0.499   3.025   3.957 -0.6038 -0.3477  2.5307
  171MOL   H22144761   0.038   2.770   4.069  1.3982  2.6028 -1.7526
  171MOL   H22244762   0.093   2.613   4.142 -1.2208 -0.8974 -3.1862
  171MOL   C22344763   0.159   2.794   4.234 -0.0038 -0.2294  0.3947
  171MOL   N22444764   0.282   2.756   4.286  0.0464 -0.3015  0.1977
  171MOL   C22544765   0.380   2.834   4.333  0.0511 -0.0435  0.6070
  171MOL   O22644766   0.390   2.956   4.309 -0.6327  0.6424 -0.2920
  171MOL   C22744767   0.475   2.766   4.431 -0.4015 -0.1995  0.0937
  171MOL   C22844768   0.054   2.773   4.346 -0.2969 -0.1321  0.7999
  171MOL   H22944769   0.170   2.897   4.201 -2.4519  0.1492  0.6737
  171MOL   H23044770   0.291   2.656   4.280 -0.2254 -0.2924 -0.3246
  171MOL   H23144771   0.419   2.750   4.523  0.3825 -4.4783 -0.0711
  171MOL   H23244772   0.504   2.664   4.408 -0.5031  0.5836 -3.9776
  171MOL   H23344773   0.557   2.836   4.450  1.0671 -1.6641 -0.7095
  171MOL   H23444774   0.071   2.669   4.376  1.1257 -0.2040 -0.1869
  171MOL   H23544775   0.080   2.831   4.435  3.6744  0.9871 -0.9918
  171MOL   C23644776   7.746   2.783   4.314  0.0903  0.0755 -0.6686
  171MOL   N23744777   7.719   2.915   4.258  0.4430 -0.2296  0.3211
  171MOL   C23844778   7.654   2.935   4.146  0.6079  0.2286  0.6103
  171MOL   O23944779   7.593   2.842   4.094 -0.3474  0.1221  0.3873
  171MOL   C24044780   7.661   3.069   4.075 -0.5051 -0.5339  0.6079
  171MOL   C24144781   7.671   2.748   4.449  0.0328 -0.5230  0.6115
  171MOL   H24244782   7.727   2.702   4.244  0.1586 -1.0147  0.5642
  171MOL   H24344783   7.761   2.995   4.304 -0.9778  1.5881 -1.4313
  171MOL   H24444784   7.628   3.054   3.972  0.5143 -2.3460  0.5280
  171MOL   H24544785   7.588   3.142   4.112  0.0839  0.3491  0.0442
  171MOL   H24644786   7.761   3.111   4.084 -0.8968  0.0835  2.2549
  171MOL   H24744787   7.705   2.818   4.525  0.1172 -1.2187  1.2168
  171MOL   H24844788   7.566   2.771   4.433  0.0963 -0.6191  0.0534
  171MOL   C24944789   7.690   2.595   4.491 -0.0751  0.0099 -0.7498
  171MOL   N25044790   7.622   2.511   4.395  0.5170  0.6174  0.1541
  171MOL   C25144791   7.677   2.451   4.287  0.1063  0.4427 -0.0457
  171MOL   O25244792   7.798   2.447   4.260 -0.0626  0.6349 -0.2252
  171MOL   C25344793   7.574   2.394   4.196  0.6647 -0.1610  0.3377
  171MOL   C25444794   7.620   2.566   4.628 -0.2401 -0.3792  0.0750
  171MOL   H25544795   7.794   2.560   4.496 -0.2720 -0.3187  3.3794
  171MOL   H25644796   7.521   2.506   4.395  0.4470  1.2621  2.5298
  171MOL   H25744797   7.504   2.463   4.151  0.7455 -0.2031  0.1498
  171MOL   H25844798   7.635   2.346   4.120  2.0033 -0.4426  1.5614
  171MOL   H25944799   7.528   2.313   4.253  1.9828 -1.0774  0.1316
  171MOL   H26044800   7.670   2.611   4.714 -0.0624  0.0136 -0.2302
  171MOL   H26144801   7.520   2.608   4.616  0.3735  0.9748 -0.3551
  171MOL   H26244802   7.609   2.459   4.648  0.0248 -1.2973 -4.2749
  172MOL     C144803   5.250   4.777   4.422 -0.1761 -0.4767 -0.4428
  172MOL     N244804   5.318   4.887   4.500 -0.4609  0.2973 -0.7861
  172MOL     C344805   5.346   5.013   4.467  0.6165 -0.3373  0.0417
  172MOL     O444806   5.418   5.084   4.541  0.3434  0.4399 -0.2198
  172MOL     C544807   5.303   5.054   4.330 -0.2028  0.3533 -0.7146
  172MOL     C644808   5.240   4.637   4.500 -0.8756  0.1120  0.1536
  172MOL     H744809   5.145   4.799   4.402  0.1303  0.6144 -0.9049
  172MOL     H844810   5.364   4.865   4.587  2.2440 -0.2242 -2.2784
  172MOL     H944811   5.291   5.162   4.328 -0.2038  0.3794  0.6359
  172MOL    H1044812   5.371   5.034   4.247  0.4711 -1.9298  0.3439
  172MOL    H1144813   5.202   5.019   4.307 -0.8182  1.2376  0.6380
  172MOL    H1244814   5.339   4.619   4.542 -1.1525  1.8284  1.6286
  172MOL    H1344815   5.178   4.623   4.589 -2.0048 -2.3005 -0.9722
  172MOL    H1444816   5.303   4.768   4.327 -0.4471 -0.8722 -0.5551
  172MOL    C1544817   5.196   4.515   4.410 -0.1441 -0.0541 -0.2715
  172MOL    N1644818   5.052   4.512   4.418  0.1153 -0.6019  0.8660
  172MOL    C1744819   4.960   4.505   4.315 -0.7408  0.9515  0.2085
  172MOL    O1844820   4.990   4.476   4.202  0.3446  0.1904 -0.0113
  172MOL    C1944821   4.812   4.521   4.357 -0.8520  0.3370 -0.1117
  172MOL    C2044822   5.253   4.374   4.439  0.9534 -0.3269 -0.3487
  172MOL    H2144823   5.222   4.535   4.306 -4.7027  1.7490 -1.1748
  172MOL    H2244824   5.002   4.524   4.505 -0.5940  1.2632  0.2236
  172MOL    H2344825   4.747   4.445   4.315 -1.5049  0.2285  1.0830
  172MOL    H2444826   4.800   4.534   4.464  0.2270  1.2370 -0.0896
  172MOL    H2544827   4.786   4.613   4.305  1.4985  0.7784 -0.5779
  172MOL    H2644828   5.282   4.391   4.543 -1.0869 -0.5424  0.2706
  172MOL    H2744829   5.179   4.295   4.431  0.0986  0.3105  1.1507
  172MOL    C2844830   5.373   4.330   4.366  0.3894  0.1347 -0.1858
  172MOL    N2944831   5.494   4.417   4.369 -0.3290  0.0326  0.2410
  172MOL    C3044832   5.570   4.439   4.481  0.3515 -0.3652  0.6755
  172MOL    O3144833   5.549   4.391   4.591 -0.0046  0.2574  0.1070
  172MOL    C3244834   5.677   4.550   4.466 -0.1402  0.0647  0.1492
  172MOL    C3344835   5.342   4.278   4.221  0.5502 -0.1918 -0.2885
  172MOL    H3444836   5.399   4.240   4.422 -0.5334  0.3831  0.6420
  172MOL    H3544837   5.520   4.453   4.278  0.1698  0.0416  0.3875
  172MOL    H3644838   5.680   4.600   4.563  1.3763 -1.0460  0.6879
  172MOL    H3744839   5.779   4.517   4.446 -0.0497  0.1884  0.4087
  172MOL    H3844840   5.646   4.615   4.384  1.3729 -0.9536 -1.2809
  172MOL    H3944841   5.251   4.220   4.230 -0.4567  1.8076  3.2246
  172MOL    H4044842   5.312   4.363   4.159  0.7659 -0.6123 -0.9745
  172MOL    C4144843   5.468   4.209   4.154  0.1213 -0.7380  0.1899
  172MOL    N4244844   5.517   4.266   4.030  0.4707 -0.3207  0.2621
  172MOL    C4344845   5.605   4.365   4.027  0.1105  0.7325  0.5038
  172MOL    O4444846   5.637   4.432   4.121  0.9159  0.2914 -0.3265
  172MOL    C4544847   5.659   4.409   3.891 -0.1886  0.0641  0.3140
  172MOL    C4644848   5.425   4.060   4.133  0.5407  0.6244  0.3432
  172MOL    H4744849   5.553   4.219   4.222  0.1087  3.8560 -0.3109
  172MOL    H4844850   5.506   4.218   3.942  1.4543  1.2739 -0.7485
  172MOL    H4944851   5.721   4.498   3.885  0.5485 -0.4774 -0.2819
  172MOL    H5044852   5.719   4.327   3.851 -1.7471 -0.5673 -0.8189
  172MOL    H5144853   5.571   4.414   3.826 -1.8292  0.8995  2.5374
  172MOL    H5244854   5.410   4.021   4.233  0.3094 -0.1544  0.0066
  172MOL    H5344855   5.328   4.042   4.088  0.5222 -0.3711  0.7557
  172MOL    C5444856   5.530   3.967   4.057  0.0289 -0.0293 -0.2570
  172MOL    N5544857   5.497   3.964   3.912  0.1675 -0.3285 -0.2682
  172MOL    C5644858   5.584   4.004   3.818 -0.2497  0.3935 -0.1062
  172MOL    O5744859   5.697   4.027   3.844  0.1728 -0.2176 -0.3706
  172MOL    C5844860   5.530   3.993   3.677 -0.0529 -0.0276  1.0665
  172MOL    C5944861   5.534   3.816   4.117 -0.8598 -0.6853 -0.0598
  172MOL    H6044862   5.633   3.995   4.078  0.1036 -0.5938  0.1480
  172MOL    H6144863   5.407   3.927   3.886 -0.4813 -1.0273  2.8087
  172MOL    H6244864   5.576   4.057   3.602 -1.1743 -0.1359  0.2745
  172MOL    H6344865   5.536   3.890   3.641  1.7964 -0.1398  1.6250
  172MOL    H6444866   5.426   4.025   3.682 -0.1038  0.0336 -0.1202
  172MOL    H6544867   5.566   3.831   4.220 -2.8513  1.5952  0.2465
  172MOL    H6644868   5.430   3.783   4.115 -1.1982  0.3251  0.7342
  172MOL    C6744869   5.637   3.714   4.058  0.1158 -0.3097 -0.0643
  172MOL    N6844870   5.591   3.577   4.083  0.0819  0.6211 -0.2424
  172MOL    C6944871   5.467   3.523   4.054  0.9139 -0.0091  0.4320
  172MOL    O7044872   5.381   3.584   3.985  0.2443 -0.2534 -0.1270
  172MOL    C7144873   5.437   3.376   4.097  0.4277  0.1391 -0.8031
  172MOL    C7244874   5.776   3.753   4.109 -0.5373  0.2106 -0.1187
  172MOL    H7344875   5.651   3.720   3.950  1.8095  0.2671  0.1835
  172MOL    H7444876   5.658   3.505   4.107  1.9914  2.0219 -1.1750
  172MOL    H7544877   5.406   3.365   4.201 -0.2079  0.9793 -0.8959
  172MOL    H7644878   5.357   3.325   4.044 -0.2907 -0.4343  0.7850
  172MOL    H7744879   5.526   3.317   4.079  0.5394  0.6564 -2.0324
  172MOL    H7844880   5.795   3.851   4.063  0.8036  0.4650  0.9626
  172MOL    H7944881   5.778   3.793   4.210  1.4551 -0.0999 -0.0190
  172MOL    C8044882   5.891   3.651   4.086 -0.2880 -0.1479 -0.7048
  172MOL    N8144883   5.902   3.575   4.211  0.2766  0.1742 -0.9354
  172MOL    C8244884   5.859   3.451   4.237  0.1300  0.4801  0.6020
  172MOL    O8344885   5.794   3.381   4.156 -0.1491  0.0740 -0.2000
  172MOL    C8444886   5.897   3.396   4.368  0.5261  0.8662 -0.0687
  172MOL    C8544887   6.024   3.718   4.048  0.0324 -0.2233  0.1022
  172MOL    H8644888   5.866   3.584   4.004  0.5607 -0.4703 -0.7071
  172MOL    H8744889   5.972   3.609   4.275  0.6789 -2.8233  0.2861
  172MOL    H8844890   5.977   3.326   4.346 -1.9072 -1.5706 -1.4740
  172MOL    H8944891   5.943   3.476   4.427  1.3771  0.3613 -0.0370
  172MOL    H9044892   5.809   3.361   4.422 -0.3298  3.9223  0.6146
  172MOL    H9144893   5.996   3.765   3.954 -1.8655 -0.4368  0.5402
  172MOL    H9244894   6.051   3.789   4.126 -0.3353 -1.3123  1.2348
  172MOL    C9344895   6.152   3.627   4.028  0.1506  0.3459 -0.5166
  172MOL    N9444896   6.264   3.663   4.127  0.0682 -0.3855  0.3218
  172MOL    C9544897   6.271   3.616   4.251 -0.1202 -0.2369  0.4265
  172MOL    O9644898   6.188   3.550   4.306  0.3070  0.3476  0.3886
  172MOL    C9744899   6.391   3.656   4.337 -0.8350 -0.6242  0.7194
  172MOL    C9844900   6.205   3.629   3.888 -1.0375  0.4119  0.1086
  172MOL    H9944901   6.141   3.520   4.046  1.4225  0.3662  0.4414
  172MOL   H10044902   6.337   3.724   4.093 -1.0550  0.4829 -0.6075
  172MOL   H10144903   6.440   3.741   4.289  1.3974 -0.7551  2.6764
  172MOL   H10244904   6.372   3.661   4.444 -1.0505 -1.0032  0.7006
  172MOL   H10344905   6.457   3.570   4.325  1.0382  1.1154 -1.9526
  172MOL   H10444906   6.181   3.724   3.840 -0.8843  0.1345 -0.5369
  172MOL   H10544907   6.314   3.632   3.892 -0.8431 -2.6106 -1.1216
  172MOL   C10644908   6.154   3.528   3.789  0.2453  0.0166 -0.3629
  172MOL   N10744909   6.250   3.521   3.678  0.2563 -0.1518  0.2051
  172MOL   C10844910   6.292   3.412   3.610  0.1532  0.4087 -0.2834
  172MOL   O10944911   6.240   3.301   3.626  0.0052  0.7698  0.2235
  172MOL   C11044912   6.403   3.434   3.506 -0.9693  0.4886  0.7817
  172MOL   C11144913   6.010   3.557   3.735  0.8828 -0.3412  0.1652
  172MOL   H11244914   6.161   3.428   3.832 -1.1601 -0.4937 -1.2877
  172MOL   H11344915   6.296   3.606   3.649 -1.7644 -0.1324 -3.1157
  172MOL   H11444916   6.465   3.345   3.518  1.0459  2.0627  2.5554
  172MOL   H11544917   6.345   3.437   3.414 -3.4177  2.1741  2.2975
  172MOL   H11644918   6.465   3.523   3.519 -1.3084  0.6334  1.4172
  172MOL   H11744919   5.966   3.617   3.814  0.0617 -3.1843  1.9412
  172MOL   H11844920   6.014   3.625   3.650  1.4318 -1.2848 -0.5785
  172MOL   C11944921   5.903   3.439   3.714  0.5578 -0.1260 -0.3718
  172MOL   N12044922   5.964   3.317   3.671 -0.1400 -0.6164 -0.1667
  172MOL   C12144923   5.957   3.191   3.728 -0.1428  0.1751 -0.2714
  172MOL   O12244924   5.895   3.173   3.830 -0.1598  0.5348 -0.1472
  172MOL   C12344925   6.040   3.077   3.675 -0.4924  0.2343  0.4899
  172MOL   C12444926   5.787   3.476   3.621  0.1982  0.4876  0.1983
  172MOL   H12544927   5.856   3.426   3.812  0.1138  3.4827 -0.0347
  172MOL   H12644928   6.046   3.322   3.611 -0.5714 -1.2645 -0.8160
  172MOL   H12744929   5.990   2.981   3.689 -1.9770  0.7348 -1.1913
  172MOL   H12844930   6.058   3.089   3.568  1.3639  0.4811  0.8250
  172MOL   H12944931   6.141   3.081   3.715 -0.2641  1.6183 -0.2051
  172MOL   H13044932   5.731   3.560   3.660  0.9357 -0.8731  4.4712
  172MOL   H13144933   5.827   3.501   3.523 -0.6326 -1.1969 -0.5816
  172MOL   C13244934   5.684   3.362   3.595 -0.0003 -0.2861 -0.6861
  172MOL   N13344935   5.578   3.411   3.503  0.4569 -0.0151 -0.8173
  172MOL   C13444936   5.594   3.457   3.379 -0.5472 -0.4234  0.3517
  172MOL   O13544937   5.702   3.480   3.331 -0.1007  0.2028  0.3002
  172MOL   C13644938   5.472   3.504   3.310  0.6241  0.6849  0.3367
  172MOL   C13744939   5.615   3.302   3.723 -0.5476  0.6166 -0.2740
  172MOL   H13844940   5.741   3.285   3.544  1.4214  0.0581  0.3536
  172MOL   H13944941   5.481   3.400   3.530  0.5829  0.9398  0.0345
  172MOL   H14044942   5.395   3.429   3.295 -1.0209  2.1214  1.3280
  172MOL   H14144943   5.433   3.585   3.371  0.9323  0.4638  0.8327
  172MOL   H14244944   5.502   3.546   3.214  0.9910  0.8405  0.5167
  172MOL   H14344945   5.689   3.291   3.803 -1.5476  1.9836  0.8569
  172MOL   H14444946   5.547   3.382   3.751  0.1333  0.4561  1.9683
  172MOL   C14544947   5.549   3.162   3.711  0.1382  0.0212  1.0172
  172MOL   N14644948   5.422   3.171   3.639 -0.0860 -0.0143  0.2231
  172MOL   C14744949   5.390   3.113   3.524 -0.5758  0.5348 -0.0623
  172MOL   O14844950   5.467   3.036   3.465 -0.4069 -0.7358 -0.7328
  172MOL   C14944951   5.251   3.146   3.471 -0.3730 -0.2235 -0.1985
  172MOL   C15044952   5.513   3.119   3.851 -0.8180 -0.0709  0.4490
  172MOL   H15144953   5.630   3.098   3.673  0.8959  0.5909  1.6529
  172MOL   H15244954   5.351   3.227   3.683  1.1025  0.4709  1.5704
  172MOL   H15344955   5.249   3.248   3.435  1.0231 -0.9927 -2.5627
  172MOL   H15444956   5.220   3.078   3.392 -1.2419  2.3108 -2.0653
  172MOL   H15544957   5.179   3.145   3.553 -1.3963 -0.0564 -1.0838
  172MOL   H15644958   5.590   3.141   3.924  0.5039 -0.7390 -0.7153
  172MOL   H15744959   5.433   3.181   3.892 -1.3425 -0.8677  0.6492
  172MOL   C15844960   5.478   2.971   3.868 -0.3702 -0.4453 -0.5936
  172MOL   N15944961   5.411   2.961   3.996 -0.6545  0.3115  0.4403
  172MOL   C16044962   5.298   3.014   4.038  0.3672 -0.3248 -0.8915
  172MOL   O16144963   5.229   3.088   3.971  0.5025  0.1245  0.3093
  172MOL   C16244964   5.266   2.980   4.181 -0.0613  0.3907 -0.4003
  172MOL   C16344965   5.588   2.862   3.847 -0.2287  0.5702 -0.1377
  172MOL   H16444966   5.404   2.960   3.788  0.6534 -0.9882 -1.4728
  172MOL   H16544967   5.435   2.885   4.058 -1.3903  0.5631  1.0430
  172MOL   H16644968   5.356   2.992   4.242  0.4831 -1.5881 -0.7971
  172MOL   H16744969   5.187   3.046   4.219 -0.5345 -0.6219  0.3966
  172MOL   H16844970   5.232   2.879   4.204  1.0910  0.0310 -0.2458
  172MOL   H16944971   5.614   2.872   3.742  0.3362  0.9117  0.0358
  172MOL   H17044972   5.669   2.899   3.909 -1.5028  0.9269  1.3444
  172MOL   C17144973   5.551   2.719   3.886 -0.1467 -0.3763 -0.2128
  172MOL   N17244974   5.570   2.701   4.035 -0.3966  0.0406  0.6886
  172MOL   C17344975   5.467   2.675   4.121  0.0081  0.3119  0.6110
  172MOL   O17444976   5.349   2.658   4.081  0.3600  0.3840 -0.0928
  172MOL   C17544977   5.499   2.677   4.268 -0.2420  0.1128 -0.8016
  172MOL   C17644978   5.641   2.612   3.818 -0.4355  0.3970 -0.7045
  172MOL   H17744979   5.448   2.720   3.851  0.0841  1.4590 -0.9012
  172MOL   H17844980   5.662   2.702   4.076 -0.1638  0.3709  0.1583
  172MOL   H17944981   5.412   2.718   4.319  0.4968  0.3504  0.2874
  172MOL   H18044982   5.511   2.578   4.312 -2.1786  0.2980  0.1753
  172MOL   H18144983   5.590   2.734   4.289  0.9638 -1.1909 -2.3333
  172MOL   H18244984   5.691   2.667   3.739  0.6984 -1.6941 -1.4899
  172MOL   H18344985   5.718   2.578   3.887  0.6299  0.9927 -1.5979
  172MOL   C18444986   5.555   2.504   3.752 -0.3464 -0.2511 -0.5402
  172MOL   N18544987   5.613   2.368   3.749  0.3603 -0.3157 -0.3507
  172MOL   C18644988   5.561   2.268   3.817  0.3652  0.3377  0.8554
  172MOL   O18744989   5.478   2.277   3.904  0.2931 -0.3472 -0.3045
  172MOL   C18844990   5.622   2.132   3.786  0.2675 -0.0653  1.0267
  172MOL   C18944991   5.525   2.537   3.606  0.3245 -0.0981  0.6955
  172MOL   H19044992   5.460   2.493   3.805 -0.4815 -3.8422 -1.3809
  172MOL   H19144993   5.689   2.353   3.684  0.6699 -2.3778  0.4433
  172MOL   H19244994   5.700   2.115   3.860  0.5596  0.1142  0.7593
  172MOL   H19344995   5.543   2.057   3.789  1.9811 -1.9001  0.5819
  172MOL   H19444996   5.661   2.124   3.685 -1.5244  0.2058  0.2979
  172MOL   H19544997   5.613   2.543   3.542 -0.3410 -3.3273 -0.6304
  172MOL   H19644998   5.475   2.454   3.555  2.6438 -1.4768  0.5816
  172MOL   C19744999   5.426   2.655   3.578  0.6041 -0.2098  0.6403
  172MOL   N19845000   5.302   2.622   3.655  0.0277 -0.6903  0.0417
  172MOL   C19945001   5.210   2.708   3.689 -1.1685 -0.3884  0.0092
  172MOL   O20045002   5.218   2.826   3.661  0.1564  0.0948  0.0368
  172MOL   C20145003   5.102   2.654   3.784  0.4823  0.0245 -0.5690
  172MOL   C20245004   5.406   2.679   3.422  0.3124  0.3217 -0.5379
  172MOL   H20345005   5.465   2.752   3.611 -1.1682  0.9721 -0.6448
  172MOL   H20445006   5.285   2.529   3.690  0.0973  0.1583  2.4369
  172MOL   H20545007   5.142   2.585   3.858 -1.6192  1.9016  2.3945
  172MOL   H20645008   5.088   2.738   3.851 -1.6609 -2.2725  1.9668
  172MOL   H20745009   5.013   2.622   3.731  0.3641 -1.2515  0.3726
  172MOL   H20845010   5.346   2.600   3.378  1.0883 -0.5301 -0.0780
  172MOL   H20945011   5.340   2.765   3.412  3.6960  2.8072 -2.5890
  172MOL   C21045012   5.525   2.724   3.347 -0.1530 -0.4606  0.6995
  172MOL   N21145013   5.625   2.790   3.426 -0.1938 -0.9158  0.5490
  172MOL   C21245014   5.751   2.745   3.453  0.1290  0.1960 -0.2450
  172MOL   O21345015   5.794   2.639   3.403 -0.3391 -0.1757  0.4314
  172MOL   C21445016   5.828   2.834   3.545 -0.0719 -0.2847 -0.1006
  172MOL   C21545017   5.492   2.799   3.211  0.4417 -0.3909  0.0777
  172MOL   H21645018   5.568   2.629   3.316 -0.1263 -0.8838  2.0056
  172MOL   H21745019   5.591   2.877   3.465  0.6930 -1.0262  1.5982
  172MOL   H21845020   5.934   2.818   3.524  0.0315 -0.0011  0.1927
  172MOL   H21945021   5.798   2.938   3.530 -1.6058 -0.6609  0.3290
  172MOL   H22045022   5.826   2.819   3.653  1.0013  1.2890  0.1693
  172MOL   H22145023   5.434   2.725   3.154 -0.6015  0.5402 -0.0838
  172MOL   H22245024   5.422   2.881   3.226  1.3788  0.9322 -2.4752
  172MOL   C22345025   5.615   2.856   3.138 -0.7624 -0.1994 -0.2990
  172MOL   N22445026   5.662   2.989   3.191 -0.4552  0.2997 -0.3215
  172MOL   C22545027   5.783   3.017   3.226  0.3435  0.3270  0.0299
  172MOL   O22645028   5.880   2.944   3.217  0.2801 -0.7902  0.2735
  172MOL   C22745029   5.809   3.159   3.263 -0.0880 -0.1093 -0.4719
  172MOL   C22845030   5.582   2.895   2.997  0.0707 -0.2733  1.0195
  172MOL   H22945031   5.693   2.780   3.144  1.4530  2.0351  0.2682
  172MOL   H23045032   5.586   3.054   3.205 -0.8269 -0.0858 -0.5511
  172MOL   H23145033   5.900   3.170   3.322 -1.5208  1.9704  1.4587
  172MOL   H23245034   5.824   3.214   3.170 -2.0580 -0.5311 -1.0549
  172MOL   H23345035   5.725   3.214   3.308  1.9250  2.0284  0.8145
  172MOL   H23445036   5.485   2.846   2.981 -0.7980  0.6852  3.1849
  172MOL   H23545037   5.575   3.003   2.987 -0.4359 -0.2707  1.3818
  172MOL   C23645038   5.680   2.848   2.888 -0.6192  0.1590  0.3112
  172MOL   N23745039   5.817   2.893   2.917 -0.4762 -0.0821  0.5785
  172MOL   C23845040   5.922   2.844   2.855  0.1229 -0.7811 -0.3595
  172MOL   O23945041   5.916   2.764   2.766  0.5478 -0.5351  0.5598
  172MOL   C24045042   6.059   2.880   2.909 -0.3782 -0.2039  0.7237
  172MOL   C24145043   5.631   2.873   2.742 -0.4971  0.5365 -0.0729
  172MOL   H24245044   5.686   2.740   2.901  2.1712  0.1398 -0.7953
  172MOL   H24345045   5.828   2.948   3.002 -0.3231  2.3327 -0.9414
  172MOL   H24445046   6.129   2.914   2.832 -0.1571  0.4307  1.2004
  172MOL   H24545047   6.050   2.958   2.985 -2.0182  0.1991  0.1334
  172MOL   H24645048   6.093   2.794   2.966  1.8704 -0.2927 -0.7005
  172MOL   H24745049   5.691   2.829   2.662  1.0047  0.1919  1.2309
  172MOL   H24845050   5.547   2.808   2.718  0.8226 -1.1813 -0.1184
  172MOL   C24945051   5.592   3.018   2.720 -0.3222  0.8799  0.5984
  172MOL   N25045052   5.550   3.035   2.579  0.2406 -0.2991 -0.4750
  172MOL   C25145053   5.433   3.097   2.536 -0.6562 -0.3223  0.2296
  172MOL   O25245054   5.360   3.152   2.620  0.3603  0.3971  0.3822
  172MOL   C25345055   5.387   3.090   2.386  0.8185  0.2401  0.5073
  172MOL   C25445056   5.690   3.119   2.746  0.0402 -0.4591 -0.2413
  172MOL   H25545057   5.507   3.040   2.784 -0.0705 -0.8535  1.5383
  172MOL   H25645058   5.600   2.981   2.511  0.1107 -0.0532 -0.7687
  172MOL   H25745059   5.440   3.162   2.324 -2.9627 -0.2529 -3.6034
  172MOL   H25845060   5.413   2.990   2.352 -2.1812 -0.4852  0.1845
  172MOL   H25945061   5.279   3.103   2.377  1.2398  2.5628 -1.7905
  172MOL   H26045062   5.773   3.106   2.677  0.0798 -3.1203  0.2430
  172MOL   H26145063   5.652   3.219   2.727  0.0843 -0.5863 -0.9958
  172MOL   H26245064   5.733   3.119   2.846  2.3583 -1.0249 -1.1945
  173MOL     C145065   2.133   4.289   5.036  0.4637  0.9234  0.6499
  173MOL     N245066   2.243   4.263   4.940  0.4282 -0.7629 -0.3715
  173MOL     C345067   2.282   4.147   4.884 -0.0683 -0.4797  0.2140
  173MOL     O445068   2.227   4.036   4.909 -0.0301 -0.4182  0.5691
  173MOL     C545069   2.389   4.152   4.776 -0.1782  0.0422  0.6314
  173MOL     C645070   1.996   4.290   4.962  0.3848 -0.3748  0.6680
  173MOL     H745071   2.140   4.205   5.105  0.6643  0.2656 -0.1620
  173MOL     H845072   2.307   4.339   4.919  0.9136 -1.3133 -0.9029
  173MOL     H945073   2.370   4.241   4.717 -0.9293  0.0300  0.8516
  173MOL    H1045074   2.481   4.160   4.833 -2.4543  0.9981  4.3037
  173MOL    H1145075   2.402   4.061   4.716  0.6673  2.0923 -2.4365
  173MOL    H1245076   1.990   4.382   4.904 -2.3943 -1.4307 -0.8242
  173MOL    H1345077   1.987   4.208   4.891  1.5407 -0.7154  0.9014
  173MOL    H1445078   2.163   4.378   5.092  2.3835  0.4378  0.4277
  173MOL    C1545079   1.877   4.286   5.058 -0.4279 -0.0786  0.4190
  173MOL    N1645080   1.885   4.162   5.142  0.9142 -0.5535 -0.4757
  173MOL    C1745081   1.877   4.160   5.278 -0.2514 -0.2992 -0.0167
  173MOL    O1845082   1.836   4.253   5.348 -0.3211  0.3820  0.3460
  173MOL    C1945083   1.911   4.033   5.349 -0.6779 -0.2145  0.6322
  173MOL    C2045084   1.739   4.287   4.985  0.2964  0.0567 -0.7387
  173MOL    H2145085   1.883   4.377   5.117 -1.0535 -0.0915  0.5023
  173MOL    H2245086   1.916   4.081   5.090  0.2875 -1.5927  0.7486
  173MOL    H2345087   1.994   4.052   5.417 -1.4928  0.3372  1.4797
  173MOL    H2445088   1.826   3.993   5.404  0.0092 -0.6598  1.3751
  173MOL    H2545089   1.952   3.956   5.285 -1.0932 -0.5292  0.7460
  173MOL    H2645090   1.722   4.370   4.916 -1.3688 -0.5525 -1.0709
  173MOL    H2745091   1.740   4.197   4.924  0.0349 -2.2526  2.5483
  173MOL    C2845092   1.624   4.280   5.088  0.0554  1.3324 -0.1903
  173MOL    N2945093   1.502   4.241   5.015  0.0985  0.0324  0.5799
  173MOL    C3045094   1.446   4.124   5.017  0.0403 -0.4233 -0.8494
  173MOL    O3145095   1.490   4.027   5.076 -0.4377 -0.5067  0.0388
  173MOL    C3245096   1.317   4.124   4.942  0.4792  0.8525 -0.0580
  173MOL    C3345097   1.601   4.405   5.172  0.1566 -0.6465  0.0559
  173MOL    H3445098   1.650   4.193   5.148 -0.7948 -0.2656 -2.0743
  173MOL    H3545099   1.451   4.308   4.959  0.5552  0.8606  1.1475
  173MOL    H3645100   1.236   4.146   5.012  0.7793  0.3731  0.4451
  173MOL    H3745101   1.327   4.188   4.855  4.6152  0.4612  0.0147
  173MOL    H3845102   1.288   4.021   4.920  0.7364  0.2636  2.1704
  173MOL    H3945103   1.700   4.430   5.209 -0.6025  2.0022  0.3564
  173MOL    H4045104   1.558   4.493   5.124 -0.4442 -0.2562  1.2927
  173MOL    C4145105   1.516   4.361   5.295 -0.8911 -0.4779  0.5329
  173MOL    N4245106   1.376   4.335   5.267  0.3129  0.1006 -0.3761
  173MOL    C4345107   1.292   4.431   5.227 -0.0880 -0.0541  0.1754
  173MOL    O4445108   1.326   4.538   5.194 -0.0426 -0.2205 -0.2413
  173MOL    C4545109   1.151   4.388   5.208  0.4045 -0.2023  0.3104
  173MOL    C4645110   1.539   4.459   5.412 -0.0828  0.2160  0.6260
  173MOL    H4745111   1.557   4.269   5.337  0.3280 -0.6974 -1.0598
  173MOL    H4845112   1.335   4.248   5.297  2.3471 -1.0912 -1.0448
  173MOL    H4945113   1.101   4.451   5.134  2.4053  0.4128 -0.5627
  173MOL    H5045114   1.145   4.281   5.192  2.2294  0.0969 -2.6097
  173MOL    H5145115   1.099   4.400   5.304 -0.4686 -2.3844  0.1232
  173MOL    H5245116   1.645   4.479   5.427  0.0569  0.7023 -0.8870
  173MOL    H5345117   1.487   4.554   5.393 -0.7187 -0.7624 -2.9108
  173MOL    C5445118   1.474   4.408   5.545 -0.2215  0.1051 -0.3897
  173MOL    N5545119   1.498   4.506   5.649  0.3772  0.4937  0.0789
  173MOL    C5645120   1.394   4.581   5.696 -0.2185  0.6526  0.5878
  173MOL    O5745121   1.272   4.568   5.663 -0.1429 -0.0153 -0.1547
  173MOL    C5845122   1.430   4.670   5.809  0.2141 -0.4492  0.0929
  173MOL    C5945123   1.529   4.279   5.597 -0.3022 -0.0900 -0.1098
  173MOL    H6045124   1.368   4.401   5.522 -0.6319  1.3449  1.0276
  173MOL    H6145125   1.591   4.513   5.687  0.0637  2.1020  0.5876
  173MOL    H6245126   1.531   4.656   5.846  0.2584 -0.2829  0.0366
  173MOL    H6345127   1.423   4.776   5.785  0.6317 -0.2318  0.9349
  173MOL    H6445128   1.370   4.636   5.894  0.7737  0.0841  0.7054
  173MOL    H6545129   1.628   4.277   5.552 -0.5188  1.0224 -0.6611
  173MOL    H6645130   1.548   4.283   5.704  1.3696  0.2507 -0.4137
  173MOL    C6745131   1.450   4.158   5.563 -0.5334  0.9958 -0.2092
  173MOL    N6845132   1.321   4.156   5.634 -0.0311 -0.0156 -0.7850
  173MOL    C6945133   1.210   4.184   5.576  0.3503  0.0773  0.3107
  173MOL    O7045134   1.192   4.188   5.455  0.0199  0.3166  0.1689
  173MOL    C7145135   1.088   4.215   5.668  0.0085 -0.0250  0.4822
  173MOL    C7245136   1.539   4.026   5.599 -0.3378  0.6327  0.2869
  173MOL    H7345137   1.425   4.163   5.457  0.3031  1.0440 -0.4122
  173MOL    H7445138   1.325   4.155   5.735  2.1177 -2.2481 -0.8388
  173MOL    H7545139   1.094   4.155   5.759  1.8658  0.0903  0.4581
  173MOL    H7645140   1.084   4.322   5.691  1.1830  0.2278 -0.4078
  173MOL    H7745141   0.994   4.199   5.616  0.9346  1.4446 -1.7163
  173MOL    H7845142   1.637   4.034   5.553 -0.4677 -0.5413 -0.2184
  173MOL    H7945143   1.555   4.025   5.707  3.2348 -2.7787 -0.1828
  173MOL    C8045144   1.488   3.892   5.546  0.1090 -0.6799  0.1139
  173MOL    N8145145   1.548   3.780   5.625 -0.4681 -0.6697 -0.0127
  173MOL    C8245146   1.477   3.676   5.672  0.1466  0.1271 -0.1446
  173MOL    O8345147   1.363   3.647   5.647 -0.1850 -0.5064  0.8865
  173MOL    C8445148   1.542   3.591   5.776 -0.8835  0.7078  0.2135
  173MOL    C8545149   1.517   3.889   5.391  0.1247  0.0677  0.5162
  173MOL    H8645150   1.382   3.884   5.568  0.2065  0.9801  1.2839
  173MOL    H8745151   1.648   3.786   5.635 -0.5913 -0.6959  1.3646
  173MOL    H8845152   1.650   3.599   5.764 -1.1081  0.6901 -1.9565
  173MOL    H8945153   1.495   3.602   5.874  1.9917 -0.3305  1.8037
  173MOL    H9045154   1.531   3.487   5.746 -1.4018  1.0643 -0.8431
  173MOL    H9145155   1.504   3.984   5.340 -1.8869 -0.7706 -0.6083
  173MOL    H9245156   1.614   3.847   5.362 -0.5888 -2.3245  1.4720
  173MOL    C9345157   1.416   3.798   5.318 -0.4746  0.1869 -0.0595
  173MOL    N9445158   1.466   3.748   5.189 -0.1632  0.2806  0.3225
  173MOL    C9545159   1.519   3.631   5.164  0.2698 -0.5303  0.5146
  173MOL    O9645160   1.546   3.545   5.248  0.3198  0.5522  0.5599
  173MOL    C9745161   1.556   3.604   5.023  0.1210  0.0039 -0.5022
  173MOL    C9845162   1.281   3.869   5.302  0.4436 -0.4247 -0.7108
  173MOL    H9945163   1.394   3.707   5.375 -4.0545  0.5270 -0.7408
  173MOL   H10045164   1.466   3.817   5.115  2.3115  1.7049  1.5741
  173MOL   H10145165   1.665   3.599   5.021  0.0168 -3.6218 -1.3069
  173MOL   H10245166   1.501   3.514   4.996 -1.9479  0.0838  3.0587
  173MOL   H10345167   1.523   3.689   4.963 -1.3867 -0.0336  0.2560
  173MOL   H10445168   1.278   3.950   5.376 -1.2425 -2.8922  1.9995
  173MOL   H10545169   1.272   3.917   5.205 -1.0281  0.8704  0.0420
  173MOL   C10645170   1.153   3.797   5.330  0.0248 -0.4482  0.2161
  173MOL   N10745171   1.146   3.779   5.481 -0.0587 -0.3010 -0.2482
  173MOL   C10845172   1.041   3.815   5.556 -0.3238  0.6106 -0.7834
  173MOL   O10945173   0.939   3.852   5.514  0.3918 -0.3539  0.2982
  173MOL   C11045174   1.059   3.797   5.703 -0.2419 -0.3231  0.5372
  173MOL   C11145175   1.130   3.665   5.258  1.0337 -0.2427 -0.1873
  173MOL   H11245176   1.077   3.865   5.294  1.2350  0.8824  0.1194
  173MOL   H11345177   1.233   3.742   5.516 -0.1143  2.5276  3.0614
  173MOL   H11445178   1.113   3.875   5.757 -0.5005 -0.8157  1.5212
  173MOL   H11545179   0.958   3.789   5.741  0.3534  0.5397  2.3381
  173MOL   H11645180   1.121   3.708   5.715  1.3089  0.6784  0.1106
  173MOL   H11745181   1.149   3.670   5.151 -0.2470  1.0036 -0.3721
  173MOL   H11845182   1.199   3.595   5.307  1.9141  0.2140 -0.7690
  173MOL   C11945183   0.997   3.592   5.286  0.5407 -0.1321  0.1585
  173MOL   N12045184   0.994   3.454   5.227 -0.1418  0.2552  0.5629
  173MOL   C12145185   1.054   3.353   5.295 -0.8303 -0.6887 -0.0305
  173MOL   O12245186   1.105   3.363   5.402  0.2084  0.3606 -0.1176
  173MOL   C12345187   1.045   3.216   5.233 -0.8172 -0.5686 -0.6150
  173MOL   C12445188   0.870   3.664   5.234  0.8679 -0.0424 -0.8351
  173MOL   H12545189   0.998   3.591   5.395  0.8540 -1.5665  0.1540
  173MOL   H12645190   0.965   3.441   5.131 -0.2729 -0.8307  0.7419
  173MOL   H12745191   1.140   3.167   5.211 -0.6406 -0.1894 -0.7055
  173MOL   H12845192   0.997   3.145   5.300  0.5788 -0.5735  0.3979
  173MOL   H12945193   0.991   3.215   5.138 -2.1482 -1.4855  0.1482
  173MOL   H13045194   0.873   3.769   5.261 -2.1939 -0.1329 -0.0355
  173MOL   H13145195   0.861   3.652   5.126  1.4878  1.1945 -1.0324
  173MOL   C13245196   0.738   3.608   5.294 -0.1186  0.1340 -0.2126
  173MOL   N13345197   0.703   3.488   5.217 -0.1338  0.4451 -0.1909
  173MOL   C13445198   0.625   3.388   5.263  0.0078  0.3444  0.0178
  173MOL   O13545199   0.578   3.393   5.377 -0.2588  0.3007  0.3316
  173MOL   C13645200   0.607   3.270   5.177 -0.2583  0.2083  0.1367
  173MOL   C13745201   0.623   3.714   5.280 -0.2436 -0.1589 -0.0938
  173MOL   H13845202   0.759   3.576   5.396  0.2496  0.4319 -0.1918
  173MOL   H13945203   0.738   3.474   5.123  3.2247 -1.0982  1.2210
  173MOL   H14045204   0.708   3.234   5.156 -1.4623 -2.9165 -0.4994
  173MOL   H14145205   0.557   3.191   5.232 -1.1210  0.6010 -0.0706
  173MOL   H14245206   0.556   3.299   5.085  0.5992  2.0974  0.2277
  173MOL   H14345207   0.616   3.755   5.179  0.7918 -0.2804 -0.2157
  173MOL   H14445208   0.531   3.660   5.303 -1.2593  0.8820 -1.6166
  173MOL   C14545209   0.618   3.843   5.364  0.0593  0.0154  0.0255
  173MOL   N14645210   0.732   3.934   5.359 -0.1740  0.4596 -0.5471
  173MOL   C14745211   0.742   4.038   5.278 -0.1177  0.5336  0.2107
  173MOL   O14845212   0.658   4.072   5.197 -0.1346  0.2995  0.4450
  173MOL   C14945213   0.873   4.117   5.273  0.1980  0.0650 -0.3163
  173MOL   C15045214   0.582   3.831   5.518  0.2058 -0.0765 -0.0409
  173MOL   H15145215   0.529   3.895   5.327 -0.2329 -0.7548 -0.3784
  173MOL   H15245216   0.817   3.910   5.408 -0.3511  2.6031  0.8674
  173MOL   H15345217   0.914   4.120   5.172  0.8006 -0.3102 -0.0856
  173MOL   H15445218   0.849   4.215   5.313  1.9773  0.4090 -0.0645
  173MOL   H15545219   0.950   4.077   5.339 -2.8087 -1.0075  2.6625
  173MOL   H15645220   0.651   3.768   5.573  0.4594  0.9037  0.7904
  173MOL   H15745221   0.594   3.927   5.568 -0.5534  0.3996 -0.7625
  173MOL   C15845222   0.434   3.785   5.539  0.4869 -0.2242  0.0792
  173MOL   N15945223   0.361   3.887   5.619 -0.4087 -0.0258 -0.0840
  173MOL   C16045224   0.370   3.925   5.748 -0.0643 -0.0803 -0.1392
  173MOL   O16145225   0.457   3.879   5.825 -0.2500  0.4361  0.3411
  173MOL   C16245226   0.271   4.033   5.793 -0.4223  0.2122  0.3174
  173MOL   C16345227   0.427   3.647   5.598  0.3644 -0.1876  0.7042
  173MOL   H16445228   0.375   3.797   5.448  2.2327  0.8164 -0.9361
  173MOL   H16545229   0.278   3.923   5.574 -0.8786 -1.1265 -0.1181
  173MOL   H16645230   0.171   3.993   5.811 -0.6493  0.7899  0.3435
  173MOL   H16745231   0.312   4.083   5.881 -1.0063 -1.6105  1.6788
  173MOL   H16845232   0.257   4.108   5.716  0.9816  2.0393  1.7888
  173MOL   H16945233   0.506   3.582   5.562 -0.4347 -0.0224 -1.4129
  173MOL   H17045234   0.447   3.675   5.701 -0.6569 -0.5278  1.0086
  173MOL   C17145235   0.288   3.568   5.590 -0.8561  0.2103 -0.5120
  173MOL   N17245236   0.295   3.456   5.674  0.4043  0.0425  0.0880
  173MOL   C17345237   0.224   3.447   5.788  0.2434  0.6708 -0.3854
  173MOL   O17445238   0.183   3.543   5.849  0.3947  0.0305 -0.9676
  173MOL   C17545239   0.196   3.307   5.845 -0.2838  0.2266 -0.3154
  173MOL   C17645240   0.248   3.531   5.448  0.2893  0.0156 -0.3379
  173MOL   H17745241   0.212   3.639   5.625 -0.9817 -1.0360  1.8544
  173MOL   H17845242   0.315   3.366   5.634 -1.9794 -0.5710  0.1664
  173MOL   H17945243   0.235   3.305   5.947  2.3117 -0.6900 -1.2904
  173MOL   H18045244   0.089   3.293   5.857  0.1051 -2.1926  0.7520
  173MOL   H18145245   0.241   3.225   5.789 -0.0961 -0.2490  0.5088
  173MOL   H18245246   0.263   3.623   5.391  2.0868  0.4086  0.7412
  173MOL   H18345247   0.329   3.471   5.408  0.3912 -0.6111  0.8036
  173MOL   C18445248   0.116   3.444   5.422 -0.5229 -0.1952 -0.5374
  173MOL   N18545249   0.158   3.321   5.340 -0.1734 -0.6777  0.6741
  173MOL   C18645250   0.210   3.211   5.395  0.7699 -0.1406  0.9410
  173MOL   O18745251   0.245   3.203   5.511 -0.2560 -0.2781 -0.3759
  173MOL   C18845252   0.240   3.095   5.302 -0.5483  0.0257  0.3611
  173MOL   C18945253   7.829   3.509   5.360 -0.2142  0.3789  0.1566
  173MOL   H19045254   0.089   3.407   5.521 -0.3736 -0.2931 -0.5334
  173MOL   H19145255   0.149   3.323   5.240  0.6297  1.1514  0.6221
  173MOL   H19245256   0.217   3.105   5.196 -1.9043 -0.4120  0.6119
  173MOL   H19345257   0.342   3.059   5.320 -0.2311  1.8779  2.3573
  173MOL   H19445258   0.168   3.020   5.334 -1.7225  0.2715 -1.5847
  173MOL   H19545259   0.013   3.540   5.258 -2.8288 -0.2119 -0.6762
  173MOL   H19645260   7.753   3.434   5.338 -0.6542  0.9897 -0.3986
  173MOL   C19745261   7.762   3.620   5.439 -0.5042 -0.3246 -0.3019
  173MOL   N19845262   7.647   3.560   5.502 -0.3163  0.1667  0.0456
  173MOL   C19945263   7.644   3.497   5.622 -0.5492  0.5469 -0.2283
  173MOL   O20045264   7.743   3.461   5.677 -0.2257  0.5657  0.3036
  173MOL   C20145265   7.508   3.450   5.669  0.0863  1.0817  0.2516
  173MOL   C20245266   7.710   3.739   5.347 -0.0069 -0.2883 -0.5154
  173MOL   H20345267   7.826   3.655   5.520 -0.8182  1.7641 -0.9131
  173MOL   H20445268   7.559   3.575   5.454  0.2725  0.9486 -0.8208
  173MOL   H20545269   7.424   3.482   5.607  0.7593  0.0358 -1.2102
  173MOL   H20645270   7.509   3.341   5.670  1.1189  1.0911  0.8833
  173MOL   H20745271   7.488   3.482   5.772  0.7944  1.1479  0.3723
  173MOL   H20845272   7.651   3.692   5.268  1.5857 -0.7228 -1.4592
  173MOL   H20945273   7.637   3.804   5.396 -0.7724  0.0539 -2.0574
  173MOL   C21045274   7.825   3.817   5.278 -0.5957  0.0425 -0.0926
  173MOL   N21145275   7.815   3.948   5.340  0.3799  0.9554  0.2202
  173MOL   C21245276   0.034   3.989   5.450 -0.1752  0.2549  0.0876
  173MOL   O21345277   0.107   3.911   5.511  0.2733  0.0340 -0.0861
  173MOL   C21445278   0.021   4.131   5.497 -0.6075 -0.1574  0.7802
  173MOL   C21545279   7.815   3.839   5.122  0.4851 -0.4180  0.5553
  173MOL   H21645280   0.076   3.764   5.307 -1.8377 -2.4327 -0.5841
  173MOL   H21745281   7.761   4.018   5.291  0.3460 -1.3697 -3.2311
  173MOL   H21845282   7.769   4.121   5.555  0.0632 -2.2160  1.5145
  173MOL   H21945283   0.113   4.155   5.550 -0.5346 -0.5168  0.8165
  173MOL   H22045284   0.002   4.210   5.424 -0.0688  0.7874  1.6507
  173MOL   H22145285   7.711   3.864   5.100  0.7609  1.3480  1.2090
  173MOL   H22245286   0.040   3.920   5.090  1.9367 -1.1449  1.5867
  173MOL   C22345287   0.023   3.718   5.038  0.5488 -0.1171  0.7352
  173MOL   N22445288   0.173   3.705   5.038  0.5170  0.0680  0.4440
  173MOL   C22545289   0.242   3.589   5.048  0.4842 -0.0061 -0.3466
  173MOL   O22645290   0.182   3.478   5.062 -0.0698 -0.4038  0.1136
  173MOL   C22745291   0.388   3.601   5.042 -0.4769  0.5285 -0.6642
  173MOL   C22845292   7.813   3.719   4.888 -0.4807  0.1113 -0.6069
  173MOL   H22945293   7.829   3.627   5.087  1.3864 -1.5299 -1.2260
  173MOL   H23045294   0.225   3.790   5.024  1.6583 -0.6930  0.0619
  173MOL   H23145295   0.436   3.524   4.981  0.3743  0.1148  0.5173
  173MOL   H23245296   0.424   3.702   5.023  1.0286  0.4574  1.6873
  173MOL   H23345297   0.429   3.574   5.138 -1.7771  0.6682 -0.0528
  173MOL   H23445298   7.782   3.820   4.862 -1.8044  0.0760  0.7512
  173MOL   H23545299   0.059   3.704   4.822 -0.0940  1.6988 -0.5001
  173MOL   C23645300   7.716   3.605   4.861 -0.1645 -0.8335  0.0367
  173MOL   N23745301   7.775   3.478   4.901 -0.4808 -0.2283  0.4961
  173MOL   C23845302   7.732   3.378   4.984  0.6021 -0.2474 -0.0830
  173MOL   O23945303   7.628   3.389   5.049 -0.3985  0.4099  0.3677
  173MOL   C24045304   7.822   3.254   5.000  0.0535 -0.4810 -1.0360
  173MOL   C24145305   7.677   3.607   4.710 -0.0539 -0.7438  0.5566
  173MOL   H24245306   7.624   3.623   4.917  0.8000  0.5782  1.1968
  173MOL   H24345307   0.023   3.453   4.859 -1.3566 -0.7778 -1.0650
  173MOL   H24445308   7.764   3.162   4.995  1.3496 -1.5998  3.0620
  173MOL   H24545309   0.057   3.266   4.922  3.4250 -1.2986  1.9766
  173MOL   H24645310   0.031   3.245   5.097  1.7178 -0.0030 -1.8200
  173MOL   H24745311   7.611   3.694   4.708  0.0764 -0.5885  2.3140
  173MOL   H24845312   7.761   3.633   4.645 -0.0540  1.7883  1.5134
  173MOL   C24945313   7.606   3.485   4.647 -0.0685 -0.0050 -0.4475
  173MOL   N25045314   7.589   3.503   4.504  0.3054  0.7163  0.0384
  173MOL   C25145315   7.686   3.497   4.408 -0.3423  0.2842  0.1091
  173MOL   O25245316   7.801   3.478   4.441  0.5257 -0.4589 -0.1509
  173MOL   C25345317   7.637   3.517   4.265 -0.9176  0.3633 -0.0865
  173MOL   C25445318   7.463   3.453   4.720  0.4539 -0.5870  0.1947
  173MOL   H25545319   7.660   3.391   4.659 -1.8509 -0.9914  0.0693
  173MOL   H25645320   7.492   3.501   4.473  0.4096 -2.5686 -0.2357
  173MOL   H25745321   7.553   3.587   4.269 -0.3572  1.1463 -1.6146
  173MOL   H25845322   7.716   3.547   4.196  0.3421  0.3502  1.3339
  173MOL   H25945323   7.602   3.424   4.220 -0.1937  1.4151 -2.9153
  173MOL   H26045324   7.384   3.525   4.699  0.4822  1.0977  5.1291
  173MOL   H26145325   7.422   3.360   4.682  0.4002 -0.6278  0.3495
  173MOL   H26245326   7.479   3.453   4.828 -0.5372 -1.4307  0.3500
  174MOL     C145327   1.906   0.165   2.153  0.3647  0.3838 -0.2064
  174MOL     N245328   1.792   0.156   2.239 -0.0195  0.2178  0.4352
  174MOL     C345329   1.769   0.060   2.331 -0.1263  0.2778  0.5845
  174MOL     O445330   1.844   7.799   2.347 -0.3087 -0.1923 -0.5796
  174MOL     C545331   1.640   0.078   2.414 -0.9567  0.0388 -0.5841
  174MOL     C645332   1.855   0.196   2.009 -0.6473 -0.3368  0.7727
  174MOL     H745333   1.971   0.242   2.194 -1.6732  1.0612  1.8699
  174MOL     H845334   1.736   0.239   2.227 -0.0145  0.1618  0.0375
  174MOL     H945335   1.651   0.074   2.522 -0.2613  3.3911 -0.4937
  174MOL    H1045336   1.618   0.183   2.397  1.5285  0.6975 -0.0113
  174MOL    H1145337   1.565   0.014   2.368 -3.2366  1.5130  1.0260
  174MOL    H1245338   1.771   0.130   1.988 -1.1561  0.8332 -0.9279
  174MOL    H1345339   1.823   0.299   1.996  0.9241  0.2351  1.3418
  174MOL    H1445340   1.969   0.076   2.151 -1.7833 -1.1812 -0.9125
  174MOL    C1545341   1.960   0.196   1.890  0.2399  1.0055 -0.4052
  174MOL    N1645342   2.024   0.064   1.875  0.3912  0.0618 -0.4633
  174MOL    C1745343   2.019   7.819   1.770 -0.0273 -0.0904 -0.5964
  174MOL    O1845344   1.977   0.015   1.662 -0.3339 -0.7898  0.2302
  174MOL    C1945345   2.072   7.680   1.776  0.2223 -0.0523 -0.7625
  174MOL    C2045346   2.061   0.316   1.902  0.4763 -0.2301 -0.5265
  174MOL    H2145347   1.904   0.224   1.800 -0.0673 -2.5747 -1.4047
  174MOL    H2245348   2.043   0.019   1.964 -3.2336 -1.2211 -0.2489
  174MOL    H2345349   2.003   7.622   1.837 -0.0963  0.6425 -0.4521
  174MOL    H2445350   2.066   7.642   1.674 -1.9727  0.1714 -0.7517
  174MOL    H2545351   2.176   7.671   1.806  0.7504  0.8325 -2.2858
  174MOL    H2645352   2.011   0.413   1.891  2.0053  0.3189 -2.9772
  174MOL    H2745353   2.100   0.321   2.003 -0.2305  0.1935 -0.2661
  174MOL    C2845354   2.190   0.323   1.806  0.1901  0.2299  0.4804
  174MOL    N2945355   2.276   0.441   1.836 -0.2167  0.3620  0.5478
  174MOL    C3045356   2.357   0.458   1.937  0.2354 -0.2125 -0.5692
  174MOL    O3145357   2.398   0.381   2.023 -0.2003 -0.7998 -0.0880
  174MOL    C3245358   2.412   0.599   1.938  0.2661  0.4899  0.1336
  174MOL    C3345359   2.165   0.324   1.649  0.0282 -0.3230 -0.0518
  174MOL    H3445360   2.249   0.232   1.822  1.2658  1.0050  0.9516
  174MOL    H3545361   2.262   0.519   1.773  0.3183 -0.0167 -0.0410
  174MOL    H3645362   2.449   0.626   1.839  0.8400 -2.4510 -0.5099
  174MOL    H3745363   2.331   0.666   1.967 -0.6007  0.8915 -2.9866
  174MOL    H3845364   2.493   0.599   2.011  1.4610 -1.4382 -1.1337
  174MOL    H3945365   2.263   0.292   1.613  0.1916 -1.0077  0.9719
  174MOL    H4045366   2.082   0.255   1.636 -0.3116  0.3137 -1.2560
  174MOL    C4145367   2.129   0.463   1.595  0.2256 -1.0250 -0.0686
  174MOL    N4245368   1.988   0.503   1.618  0.4247 -0.5482  0.6642
  174MOL    C4345369   1.960   0.602   1.698  0.5058 -0.2192  0.0152
  174MOL    O4445370   2.041   0.684   1.743 -0.2851  0.4513 -0.3417
  174MOL    C4545371   1.810   0.620   1.729 -0.4969  0.6413  0.0675
  174MOL    C4645372   2.153   0.462   1.442 -0.1997 -0.1168 -0.0478
  174MOL    H4745373   2.202   0.536   1.630  0.4554 -0.9441 -0.7143
  174MOL    H4845374   1.909   0.469   1.565 -0.1548  1.5610  0.0982
  174MOL    H4945375   1.801   0.638   1.836 -2.8662  3.2060 -0.4926
  174MOL    H5045376   1.776   0.712   1.682 -1.3107 -0.3404 -1.3126
  174MOL    H5145377   1.742   0.537   1.708 -0.6527  0.2424  1.9944
  174MOL    H5245378   2.091   0.378   1.411  1.5288 -1.8827  1.0856
  174MOL    H5345379   2.112   0.554   1.401  0.5192 -0.1023 -0.7415
  174MOL    C5445380   2.301   0.453   1.388  0.9798  0.0674 -0.0280
  174MOL    N5545381   2.394   0.543   1.448 -0.6666  0.7201 -0.6199
  174MOL    C5645382   2.382   0.677   1.464  0.2465 -0.5385 -0.0321
  174MOL    O5745383   2.276   0.738   1.457  0.3463 -0.7620 -0.2495
  174MOL    C5845384   2.502   0.750   1.528  0.1786 -0.1111 -0.1925
  174MOL    C5945385   2.304   0.461   1.235  0.7395 -0.3073  0.7389
  174MOL    H6045386   2.333   0.353   1.418 -0.8250 -1.3635 -2.6499
  174MOL    H6145387   2.479   0.501   1.484 -0.4532  1.8162  0.1970
  174MOL    H6245388   2.598   0.708   1.496  0.8687  0.2943  1.3277
  174MOL    H6345389   2.503   0.851   1.486  1.1954 -0.3763 -0.8168
  174MOL    H6445390   2.497   0.759   1.636  1.6522  1.1656 -0.2145
  174MOL    H6545391   2.249   0.375   1.197 -2.4242  2.4530 -1.2781
  174MOL    H6645392   2.244   0.543   1.193  2.2616  0.9616  0.9974
  174MOL    C6745393   2.433   0.490   1.158  0.0829 -0.5613 -0.0930
  174MOL    N6845394   2.413   0.471   1.017  0.0193  0.9215  0.0110
  174MOL    C6945395   2.340   0.550   0.937 -0.5245 -0.2614 -0.5012
  174MOL    O7045396   2.266   0.640   0.977 -0.1892  0.8969 -0.4259
  174MOL    C7145397   2.345   0.525   0.786 -0.0271 -0.4222  0.2642
  174MOL    C7245398   2.548   0.386   1.193 -0.0558  0.5315 -0.1153
  174MOL    H7345399   2.471   0.589   1.183  0.4135  0.2399 -3.4843
  174MOL    H7445400   2.457   0.387   0.985 -3.0825 -1.4790  1.6704
  174MOL    H7545401   2.354   0.417   0.776  0.4052 -0.5498  1.8510
  174MOL    H7645402   2.249   0.552   0.742 -0.4383 -0.3822  1.1748
  174MOL    H7745403   2.417   0.593   0.741 -1.6524  0.6110 -0.8339
  174MOL    H7845404   2.498   0.298   1.232  0.2602 -0.3093 -1.5672
  174MOL    H7945405   2.599   0.356   1.101  0.0175 -0.7631  0.3415
  174MOL    C8045406   2.670   0.450   1.274 -0.1042 -0.0712 -0.4148
  174MOL    N8145407   2.746   0.539   1.183 -0.0286  0.4898 -0.2892
  174MOL    C8245408   2.792   0.657   1.225  0.1815 -0.4981  0.2701
  174MOL    O8345409   2.795   0.697   1.341 -0.3042 -0.1142 -0.4831
  174MOL    C8445410   2.850   0.753   1.118 -0.1862  0.0591 -0.8982
  174MOL    C8545411   2.761   0.335   1.325 -0.0935  0.0843  0.1839
  174MOL    H8645412   2.632   0.518   1.351  2.8193 -0.1369  1.1514
  174MOL    H8745413   2.762   0.513   1.087 -1.1135 -0.9519 -0.1110
  174MOL    H8845414   2.807   0.852   1.110 -0.8620  0.0481  2.2650
  174MOL    H8945415   2.958   0.754   1.136 -0.2992  0.1055 -0.2185
  174MOL    H9045416   2.836   0.706   1.020 -2.3145 -0.2330 -0.4647
  174MOL    H9145417   2.786   0.267   1.244  0.4298  0.1825  0.2598
  174MOL    H9245418   2.855   0.385   1.348 -0.5814  1.5405 -0.9609
  174MOL    C9345419   2.706   0.262   1.459 -0.1052  0.5876 -0.1834
  174MOL    N9445420   2.737   0.341   1.571  0.6485  0.4486  0.2808
  174MOL    C9545421   2.658   0.410   1.651 -0.6775 -0.3523 -0.3910
  174MOL    O9645422   2.536   0.414   1.636  0.0908 -0.9280  0.1633
  174MOL    C9745423   2.718   0.500   1.762  0.7020  0.0027  0.2662
  174MOL    C9845424   2.745   0.111   1.467  0.4627  0.6443  0.0722
  174MOL    H9945425   2.597   0.267   1.450 -0.3512 -2.5394  0.3734
  174MOL   H10045426   2.834   0.339   1.600  0.3081 -0.8042  1.3632
  174MOL   H10145427   2.813   0.546   1.735 -0.2665  0.8094 -1.8544
  174MOL   H10245428   2.643   0.575   1.790 -0.6343 -0.5581 -1.7744
  174MOL   H10345429   2.734   0.428   1.842 -1.2293 -0.2145  0.4723
  174MOL   H10445430   2.849   0.096   1.439  0.7842 -0.3713  1.7297
  174MOL   H10545431   2.751   0.091   1.574 -2.7920  0.4941  0.2757
  174MOL   C10645432   2.640   0.016   1.405 -0.2736 -0.6976  1.2597
  174MOL   N10745433   2.517   7.831   1.475  0.5265  0.0037 -0.1815
  174MOL   C10845434   2.399   0.028   1.437  0.1347 -0.1002 -0.0494
  174MOL   O10945435   2.380   0.103   1.340 -0.5572  0.1686  0.5577
  174MOL   C11045436   2.276   7.819   1.515  0.1769 -1.2049  0.6406
  174MOL   C11145437   2.708   7.714   1.395 -0.3963  0.1613  0.5368
  174MOL   H11245438   2.624   0.048   1.302 -0.4502 -1.3207  1.0900
  174MOL   H11345439   2.508   7.762   1.548 -0.9262 -0.7042 -1.0040
  174MOL   H11445440   2.288   7.716   1.547 -0.8687 -2.5552 -3.0543
  174MOL   H11545441   2.274   0.047   1.601 -0.3738 -1.9372  1.2124
  174MOL   H11645442   2.186   7.830   1.455  0.3067 -1.2326  0.4397
  174MOL   H11745443   2.751   7.709   1.495  0.4585 -1.2003  0.1179
  174MOL   H11845444   2.633   7.635   1.390 -0.1543 -0.0957  0.9317
  174MOL   C11945445   2.803   7.697   1.273 -0.1054  0.1091  0.1640
  174MOL   N12045446   2.734   7.723   1.144  1.0291  0.1818  0.3661
  174MOL   C12145447   2.770   7.825   1.065 -0.6186  0.3742 -0.3721
  174MOL   O12245448   2.860   0.067   1.083  0.1541 -0.2103  0.6608
  174MOL   C12345449   2.682   0.007   0.941 -0.0175  0.0117  0.0573
  174MOL   C12445450   2.868   7.557   1.263  0.9079 -0.4017 -0.2160
  174MOL   H12545451   2.889   7.763   1.286 -0.8454  1.2107 -0.4283
  174MOL   H12645452   2.666   7.652   1.122  2.7265 -1.0549 -1.0003
  174MOL   H12745453   2.729   7.789   0.861 -1.9019 -2.3855  0.6119
  174MOL   H12845454   2.579   7.812   0.935 -0.1682  0.2508  1.3223
  174MOL   H12945455   2.678   0.113   0.915  1.6941 -0.2839 -1.5370
  174MOL   H13045456   2.801   7.471   1.266 -0.0866  0.4161  2.3398
  174MOL   H13145457   2.921   7.564   1.167 -0.6168  2.5177 -0.9170
  174MOL   C13245458   2.976   7.531   1.374  0.4496 -0.1842  0.2201
  174MOL   N13345459   3.098   7.471   1.311  0.0581 -0.2791 -0.0124
  174MOL   C13445460   3.216   7.532   1.315 -0.1030 -0.2639  0.3904
  174MOL   O13545461   3.247   7.640   1.367 -0.0373  0.2523  0.5632
  174MOL   C13645462   3.332   7.449   1.262 -0.1660 -1.0505  0.7661
  174MOL   C13745463   2.913   7.443   1.494 -0.1950  0.1808  0.1644
  174MOL   H13845464   3.004   7.630   1.411  1.5984  0.5374 -2.4000
  174MOL   H13945465   3.096   7.374   1.281  0.9161  0.0564 -1.1876
  174MOL   H14045466   3.299   7.374   1.190  0.0109  0.1022 -0.5478
  174MOL   H14145467   3.389   7.509   1.191  1.3792 -1.0502  1.9937
  174MOL   H14245468   3.396   7.401   1.336  1.8760  1.0273  0.3816
  174MOL   H14345469   2.822   7.490   1.533 -0.4000 -0.2123  0.1566
  174MOL   H14445470   2.870   7.352   1.453  0.8472  0.8414 -2.4807
  174MOL   C14545471   3.002   7.421   1.612  0.3024  0.1262 -0.4640
  174MOL   N14645472   3.092   7.307   1.587  0.1075 -0.3658  0.4483
  174MOL   C14745473   3.211   7.290   1.651 -0.3605 -0.1704  0.4316
  174MOL   O14845474   3.241   7.365   1.741 -0.3646  0.3463 -0.2596
  174MOL   C14945475   3.294   7.171   1.617  0.1324 -0.2861  0.6204
  174MOL   C15045476   2.909   7.379   1.738  0.1362 -0.5595  0.7703
  174MOL   H15145477   3.065   7.505   1.641  0.6933  0.1217 -1.3010
  174MOL   H15245478   3.064   7.242   1.515  1.6403 -0.1091 -0.3877
  174MOL   H15345479   3.343   7.174   1.519 -1.0198  0.4135  0.0618
  174MOL   H15445480   3.367   7.140   1.692 -0.7804 -0.0566  1.6113
  174MOL   H15545481   3.223   7.089   1.621 -1.6757  1.2465  0.2530
  174MOL   H15645482   2.821   7.323   1.705 -1.0800  1.7691 -0.0476
  174MOL   H15745483   2.963   7.306   1.797  1.3372 -1.6688 -1.6245
  174MOL   C15845484   2.880   7.495   1.839 -1.0666  0.4897  0.2452
  174MOL   N15945485   2.805   7.451   1.954 -0.0462  0.0142  0.0622
  174MOL   C16045486   2.866   7.399   2.060  0.2439 -0.0713  0.1657
  174MOL   O16145487   2.988   7.381   2.074 -0.2970 -1.3649  0.0930
  174MOL   C16245488   2.785   7.337   2.169  0.1763  0.0843 -0.1006
  174MOL   C16345489   2.817   7.614   1.769 -0.0149 -0.0965 -0.2466
  174MOL   H16445490   2.974   7.534   1.877  0.1274 -0.5540 -1.5900
  174MOL   H16545491   2.705   7.463   1.956  0.1782  1.9459  0.4095
  174MOL   H16645492   2.747   7.420   2.229 -0.6450  2.1160 -3.2894
  174MOL   H16745493   2.709   7.278   2.118  0.4801 -1.2796  0.9910
  174MOL   H16845494   2.851   7.270   2.223  0.1348  0.8089  0.8758
  174MOL   H16945495   2.879   7.636   1.682 -1.2890 -1.8896 -1.6354
  174MOL   H17045496   2.723   7.567   1.741 -0.1752 -0.3473  0.6778
  174MOL   C17145497   2.811   7.737   1.865  0.3464  0.4907  0.2827
  174MOL   N17245498   2.694   7.825   1.831 -0.4886  0.6524  0.9321
  174MOL   C17345499   2.593   0.012   1.904  0.0687 -0.2183 -0.1600
  174MOL   O17445500   2.580   7.816   2.021 -0.4462  0.5027 -0.4806
  174MOL   C17545501   2.478   0.080   1.838 -0.2077 -0.3441 -0.1234
  174MOL   C17645502   2.943   7.819   1.871  0.2675 -0.1928  0.6466
  174MOL   H17745503   2.790   7.707   1.968 -0.7603  1.2681  0.2890
  174MOL   H17845504   2.705   0.037   1.744 -1.8908 -0.5003  0.0470
  174MOL   H17945505   2.452   0.176   1.884  0.6777 -0.0052 -0.3218
  174MOL   H18045506   2.502   0.099   1.734  0.6706 -0.4237  0.0594
  174MOL   H18145507   2.390   0.016   1.828 -0.0744 -0.4101 -0.9022
  174MOL   H18245508   3.018   7.752   1.913  1.1798 -0.2743 -1.0963
  174MOL   H18345509   2.977   7.833   1.769 -0.6376  1.0561  0.4991
  174MOL   C18445510   2.938   0.103   1.960 -0.1837  0.3800 -0.1971
  174MOL   N18545511   3.046   0.203   1.929  0.1458  0.0606  0.3631
  174MOL   C18645512   3.045   0.282   1.824  0.2554 -0.4642  0.3877
  174MOL   O18745513   2.957   0.266   1.740  0.5363 -0.1795  0.1947
  174MOL   C18845514   3.161   0.387   1.803  0.3437  0.5483  0.2573
  174MOL   C18945515   2.928   0.076   2.117 -0.1415  0.1692 -0.0658
  174MOL   H19045516   2.847   0.159   1.939  0.7806  1.5744 -1.2298
  174MOL   H19145517   3.126   0.212   1.990 -2.2326  0.5518  3.5690
  174MOL   H19245518   3.124   0.439   1.715 -3.9631 -1.4544  0.7889
  174MOL   H19345519   3.172   0.449   1.891  3.0190 -0.1232  0.4533
  174MOL   H19445520   3.261   0.349   1.781  0.8685  0.9451  1.9157
  174MOL   H19545521   2.846   0.006   2.132 -2.0417  1.2284 -4.6031
  174MOL   H19645522   3.021   0.025   2.140  0.7303  2.0764  0.7327
  174MOL   C19745523   2.909   0.196   2.210  0.1508  0.0516 -0.2156
  174MOL   N19845524   2.899   0.146   2.346 -0.7959 -0.1088 -0.1222
  174MOL   C19945525   2.968   0.201   2.445 -0.5055 -0.2097 -0.3242
  174MOL   O20045526   3.036   0.301   2.440 -0.1908 -0.5496 -1.0142
  174MOL   C20145527   2.941   0.131   2.583 -0.5864 -0.2150  0.3472
  174MOL   C20245528   2.794   0.296   2.173  0.5540  0.2913 -0.1066
  174MOL   H20345529   2.999   0.257   2.208  0.4170 -0.2771  1.4966
  174MOL   H20445530   2.827   0.079   2.369 -0.4151 -0.8058 -0.9671
  174MOL   H20545531   2.987   0.194   2.660  0.1889  0.8669 -0.9637
  174MOL   H20645532   2.834   0.120   2.600 -1.0174  1.1158 -1.3300
  174MOL   H20745533   2.999   0.039   2.588 -0.5239 -0.1459  0.9734
  174MOL   H20845534   2.804   0.310   2.065  2.4672 -1.7743 -0.2383
  174MOL   H20945535   2.698   0.244   2.173  0.5326  0.3209  1.3051
  174MOL   C21045536   2.796   0.432   2.239  0.5307 -0.2974 -0.3151
  174MOL   N21145537   2.657   0.487   2.238 -0.2172 -0.5728  0.3071
  174MOL   C21245538   2.619   0.592   2.306  0.2720  1.0396 -0.5992
  174MOL   O21345539   2.693   0.661   2.382 -0.7298 -0.6678 -0.3455
  174MOL   C21445540   2.471   0.633   2.276  0.4921 -0.3451 -0.0960
  174MOL   C21545541   2.897   0.519   2.159 -0.2985  0.3626  0.1915
  174MOL   H21645542   2.830   0.421   2.342  1.4803 -0.1687 -0.6114
  174MOL   H21745543   2.579   0.438   2.197 -0.7499 -0.0828  0.7230
  174MOL   H21845544   2.460   0.731   2.229 -0.3817  0.3778  1.5613
  174MOL   H21945545   2.412   0.555   2.229  1.6950 -1.0218 -0.4780
  174MOL   H22045546   2.426   0.634   2.376  1.1916  0.1387  0.2198
  174MOL   H22145547   2.978   0.449   2.137 -0.9375  0.1652 -1.5659
  174MOL   H22245548   2.850   0.552   2.067 -0.4975  1.4236  0.6726
  174MOL   C22345549   2.963   0.645   2.208  0.7684 -0.3287 -0.4707
  174MOL   N22445550   3.036   0.723   2.108  0.1235 -0.0833 -0.3245
  174MOL   C22545551   3.164   0.694   2.066  1.0511 -0.1276 -0.2677
  174MOL   O22645552   3.215   0.769   1.985 -0.3082 -0.2490 -0.2357
  174MOL   C22745553   3.241   0.564   2.102  0.3859 -0.2698  1.1210
  174MOL   C22845554   3.039   0.627   2.344  0.5245  0.3011 -0.2992
  174MOL   H22945555   2.877   0.706   2.237  0.8711  0.5398 -1.9812
  174MOL   H23045556   3.015   0.820   2.094 -1.3206 -0.1247  1.2708
  174MOL   H23145557   3.320   0.545   2.030  0.0884 -1.8488  1.1986
  174MOL   H23245558   3.291   0.582   2.197  2.0143  0.7353  0.0864
  174MOL   H23345559   3.163   0.489   2.119 -1.0146  0.0483 -3.2254
  174MOL   H23445560   2.965   0.585   2.412  0.2792  0.9569 -0.1572
  174MOL   H23545561   3.121   0.556   2.340 -0.0635 -0.4212  0.3462
  174MOL   C23645562   3.096   0.749   2.423  0.1174  0.2287  0.0391
  174MOL   N23745563   3.228   0.771   2.384 -0.1273 -0.2796 -0.1451
  174MOL   C23845564   3.289   0.882   2.331 -0.0630  0.6579 -0.2273
  174MOL   O23945565   3.224   0.982   2.289 -0.8152 -0.1136  0.2459
  174MOL   C24045566   3.442   0.867   2.307  0.6946  0.5288  0.4865
  174MOL   C24145567   3.085   0.720   2.575  0.5673  0.5105  0.2732
  174MOL   H24245568   3.030   0.833   2.401  0.8843  1.2612  1.5886
  174MOL   H24345569   3.284   0.689   2.400 -0.1430 -0.2912 -0.1494
  174MOL   H24445570   3.457   0.796   2.225 -4.2089  2.0650 -1.9452
  174MOL   H24545571   3.467   0.967   2.271  0.4755  0.4828  0.1994
  174MOL   H24645572   3.507   0.837   2.389  2.2703 -0.4985 -1.1006
  174MOL   H24745573   3.140   0.630   2.600 -1.1408 -1.1792 -1.8408
  174MOL   H24845574   3.132   0.804   2.626 -1.5332  2.8874 -1.5229
  174MOL   C24945575   2.953   0.689   2.642  0.4423 -0.2070  0.3207
  174MOL   N25045576   2.842   0.770   2.597 -0.2930  0.6477  0.4405
  174MOL   C25145577   2.836   0.903   2.583 -0.0230  0.0934  0.1464
  174MOL   O25245578   2.902   0.982   2.648 -0.1588 -0.2433  0.4407
  174MOL   C25345579   2.727   0.960   2.491 -0.6082 -0.2695  0.7369
  174MOL   C25445580   2.962   0.686   2.796 -0.5401  0.2036 -0.4802
  174MOL   H25545581   2.928   0.587   2.612 -0.2979  0.1568 -0.3208
  174MOL   H25645582   2.777   0.719   2.539 -0.6457  0.2510  1.1842
  174MOL   H25745583   2.626   0.919   2.491  0.2463 -2.4575 -1.2804
  174MOL   H25845584   2.695   1.056   2.532 -0.4920  0.4588 -0.8711
  174MOL   H25945585   2.772   0.984   2.395 -0.2626  0.0125  0.9621
  174MOL   H26045586   2.998   0.591   2.835  0.8472 -0.3909 -3.0212
  174MOL   H26145587   3.033   0.766   2.816 -0.0310 -0.0365 -1.2506
  174MOL   H26245588   2.867   0.714   2.840 -1.8949 -3.1152 -1.1773
  175MOL     C145589   0.732   0.898   3.527  0.4723  0.0134  0.2046
  175MOL     N245590   0.831   1.002   3.511  0.3744 -0.3257  0.0585
  175MOL     C345591   0.921   1.039   3.600  0.5301 -0.1685  0.5741
  175MOL     O445592   0.939   0.988   3.713 -0.0360 -0.0807 -0.0528
  175MOL     C545593   1.013   1.151   3.557 -0.3028  0.0232 -0.2991
  175MOL     C645594   0.786   0.754   3.509  0.3021  0.2410  0.4777
  175MOL     H745595   0.678   0.903   3.622 -0.0320 -1.0920 -0.0176
  175MOL     H845596   0.847   1.031   3.416 -1.2489  1.0434  0.1887
  175MOL     H945597   0.958   1.239   3.590 -0.5099 -1.3774  3.2895
  175MOL    H1045598   1.108   1.126   3.606 -0.3187 -2.8569 -1.6389
  175MOL    H1145599   1.030   1.162   3.450  0.0721  0.4524 -0.2011
  175MOL    H1245600   0.849   0.751   3.420  0.9887  0.3102  0.9562
  175MOL    H1345601   0.850   0.729   3.594  0.5941 -4.2378 -0.9527
  175MOL    H1445602   0.648   0.920   3.461 -1.0461 -0.3325  1.9577
  175MOL    C1545603   0.682   0.643   3.476  0.2169 -0.6469 -0.3717
  175MOL    N1645604   0.586   0.617   3.584  0.2844  0.1427  0.3632
  175MOL    C1745605   0.463   0.670   3.586  0.2801  0.8757 -1.1418
  175MOL    O1845606   0.424   0.773   3.527 -0.2088 -0.2511 -0.6196
  175MOL    C1945607   0.362   0.596   3.666 -0.3652  0.5056 -0.0649
  175MOL    C2045608   0.747   0.507   3.437  0.3356  0.6064 -0.0598
  175MOL    H2145609   0.630   0.677   3.387  2.3110  0.0468 -1.3788
  175MOL    H2245610   0.604   0.539   3.646  0.3993  0.4396  0.7029
  175MOL    H2345611   0.407   0.514   3.722 -1.1570 -0.9521 -1.5159
  175MOL    H2445612   0.312   0.666   3.733 -1.4209 -1.4154  1.2167
  175MOL    H2545613   0.286   0.556   3.599  1.4097 -0.0077 -1.8179
  175MOL    H2645614   0.814   0.473   3.516  0.5061 -1.3878 -1.0221
  175MOL    H2745615   0.664   0.438   3.448 -0.4488  1.3774 -1.0273
  175MOL    C2845616   0.810   0.491   3.295  0.7197  0.1780 -0.5809
  175MOL    N2945617   0.722   0.545   3.185 -0.7348  0.0978  0.0225
  175MOL    C3045618   0.754   0.641   3.094  0.9257 -0.3061  0.3497
  175MOL    O3145619   0.849   0.720   3.087 -0.3478  0.3894 -0.4019
  175MOL    C3245620   0.635   0.669   3.000 -1.0771 -0.1515  0.9729
  175MOL    C3345621   0.841   0.345   3.268 -0.4186  0.0522 -0.1939
  175MOL    H3445622   0.906   0.541   3.305  0.4668  0.5720 -0.0985
  175MOL    H3545623   0.636   0.497   3.165  0.5588 -1.5400 -1.7530
  175MOL    H3645624   0.628   0.603   2.913 -0.3217  1.3715 -0.2628
  175MOL    H3745625   0.537   0.676   3.048 -1.9544 -2.6315 -0.3294
  175MOL    H3845626   0.653   0.764   2.950  2.3184  0.6349  3.5065
  175MOL    H3945627   0.751   0.283   3.270  0.1287 -0.7555 -0.3759
  175MOL    H4045628   0.875   0.344   3.165  1.5968  1.6975  0.4095
  175MOL    C4145629   0.957   0.282   3.357  0.6114 -0.3716 -0.6245
  175MOL    N4245630   1.056   0.230   3.268 -0.3541 -0.8498  0.0773
  175MOL    C4345631   1.163   0.298   3.229  0.1221  0.5240  0.3644
  175MOL    O4445632   1.179   0.416   3.254  0.0727  0.1491 -0.2642
  175MOL    C4545633   1.257   0.221   3.140 -0.3940 -0.5874 -0.2700
  175MOL    C4645634   0.911   0.176   3.469 -0.3064  0.1890 -0.0487
  175MOL    H4745635   0.988   0.363   3.422 -0.3155 -1.5046  1.2642
  175MOL    H4845636   1.045   0.136   3.234 -1.0667  0.1249 -2.5433
  175MOL    H4945637   1.254   0.272   3.044  1.8530 -0.6007 -0.3832
  175MOL    H5045638   1.360   0.223   3.178 -0.3718  1.0007 -0.3953
  175MOL    H5145639   1.232   0.116   3.126 -0.2434 -0.1481 -4.3673
  175MOL    H5245640   0.839   0.231   3.528 -1.5511 -1.6689  0.2195
  175MOL    H5345641   0.863   0.092   3.418 -2.2077  0.5300  1.1346
  175MOL    C5445642   1.023   0.115   3.561  0.6620  0.0262  0.0065
  175MOL    N5545643   1.137   0.075   3.488  0.3659 -0.2946 -0.2772
  175MOL    C5645644   1.267   0.068   3.529  0.7091 -0.1721 -0.2024
  175MOL    O5745645   1.297   0.071   3.645 -0.0695 -0.3596  0.1274
  175MOL    C5845646   1.364   0.037   3.421 -0.2702 -0.2224  0.5849
  175MOL    C5945647   0.973   0.010   3.655  0.1768 -0.3554  0.1476
  175MOL    H6045648   1.042   0.200   3.626  3.8500  0.3355 -1.2462
  175MOL    H6145649   1.136   0.055   3.389  2.6847  0.4928 -0.5114
  175MOL    H6245650   1.340   0.059   3.317  1.2477 -2.2297 -0.2202
  175MOL    H6345651   1.452   0.098   3.439  0.8111 -0.8614 -2.1887
  175MOL    H6445652   1.390   7.771   3.417 -0.2468 -0.1581 -2.1548
  175MOL    H6545653   0.943   7.768   3.589  1.1618 -0.8193  0.2688
  175MOL    H6645654   1.048   7.809   3.723 -0.3658  0.9302  1.5338
  175MOL    C6745655   0.856   0.052   3.757 -0.4187  0.7811 -0.0186
  175MOL    N6845656   0.886   0.174   3.835 -0.1391 -0.2332  0.1487
  175MOL    C6945657   0.818   0.293   3.813 -0.5733  0.3325  0.1557
  175MOL    O7045658   0.713   0.302   3.752  0.6533 -0.3650  0.1818
  175MOL    C7145659   0.871   0.412   3.889 -0.7636  0.4993 -0.1575
  175MOL    C7245660   0.824   7.777   3.862  0.1394 -0.0871  0.5218
  175MOL    H7345661   0.770   0.058   3.690 -0.0385 -0.7848 -0.6744
  175MOL    H7445662   0.963   0.168   3.901  0.8013 -1.3699 -1.0142
  175MOL    H7545663   0.833   0.508   3.856 -1.1535 -0.3162 -2.0944
  175MOL    H7645664   0.857   0.390   3.995  0.1862 -0.4846 -0.2210
  175MOL    H7745665   0.980   0.417   3.878 -0.8419  0.3669 -0.9909
  175MOL    H7845666   0.810   7.681   3.811 -0.0749 -0.3470  1.0711
  175MOL    H7945667   0.908   7.763   3.930 -0.9314  1.9737  2.3123
  175MOL    C8045668   0.712   7.804   3.961  0.2190 -0.0756  0.2057
  175MOL    N8145669   0.699   7.684   4.044 -0.1783  0.0102  0.6007
  175MOL    C8245670   0.780   7.654   4.144  0.2234  0.0302  0.1834
  175MOL    O8345671   0.865   7.726   4.179  0.2744 -0.7262  0.1645
  175MOL    C8445672   0.751   7.522   4.222  0.3804 -0.4937 -0.4238
  175MOL    C8545673   0.577   7.825   3.888  0.2508  1.0256  0.4347
  175MOL    H8645674   0.726   0.057   4.018 -2.1323  1.8198 -2.1430
  175MOL    H8745675   0.634   7.613   4.013 -0.0703  0.1464  0.0619
  175MOL    H8845676   0.817   7.436   4.208  1.9680  0.5064  0.7862
  175MOL    H8945677   0.761   7.543   4.328  1.0411 -1.8381 -0.2112
  175MOL    H9045678   0.646   7.500   4.203 -0.0713  0.5609  0.8193
  175MOL    H9145679   0.577   0.068   3.816  1.0865  2.0714  1.5997
  175MOL    H9245680   0.568   7.736   3.827 -0.1070  0.6256  1.0712
  175MOL    C9345681   0.444   7.826   3.972 -0.0616  0.6736  0.0257
  175MOL    N9445682   0.328   7.820   3.883  0.0703 -0.1613 -0.5805
  175MOL    C9545683   0.201   7.784   3.921  0.0350  0.0419 -0.0508
  175MOL    O9645684   0.178   7.725   4.029 -0.0644  0.3404  0.5659
  175MOL    C9745685   0.094   7.818   3.815  0.5035  0.2062  0.6218
  175MOL    C9845686   0.443   0.102   4.072  0.2173  0.2552 -0.1851
  175MOL    H9945687   0.433   7.728   4.017  0.2991 -1.2332 -3.8160
  175MOL   H10045688   0.356   0.022   3.795  0.3126 -0.3478 -0.5939
  175MOL   H10145689   0.015   7.743   3.818 -0.3330  0.9394 -1.9957
  175MOL   H10245690   0.051   0.078   3.827 -0.0892 -0.1864  1.8605
  175MOL   H10345691   0.138   7.796   3.717  2.6790  0.1252  1.5883
  175MOL   H10445692   0.512   0.185   4.056  0.5546 -0.0148 -0.1283
  175MOL   H10545693   0.346   0.152   4.075 -0.5713 -1.3223  2.1002
  175MOL   C10645694   0.458   0.051   4.216 -0.0407  0.1643 -0.0276
  175MOL   N10745695   0.364   7.783   4.250  0.7626  0.2159  0.2546
  175MOL   C10845696   0.380   7.694   4.340  0.9038  0.0475 -0.2456
  175MOL   O10945697   0.477   7.692   4.415  0.1945 -0.3178  0.7646
  175MOL   C11045698   0.261   7.594   4.355  0.1633  0.0088 -0.1065
  175MOL   C11145699   0.438   0.177   4.314  0.5850  0.5826  0.4358
  175MOL   H11245700   0.555   0.002   4.230 -0.8918 -2.5512 -3.0529
  175MOL   H11345701   0.277   7.775   4.199  0.2013 -2.8905  1.5214
  175MOL   H11445702   0.200   7.581   4.266  0.9487  0.6880 -0.7457
  175MOL   H11545703   0.297   7.498   4.392  3.1294  0.7972 -0.8466
  175MOL   H11645704   0.195   7.627   4.436 -0.4677  0.4450 -0.7936
  175MOL   H11745705   0.354   0.240   4.287  1.2529  1.7323  1.0262
  175MOL   H11845706   0.415   0.142   4.415 -2.3021  1.6071  0.1590
  175MOL   C11945707   0.555   0.284   4.321  0.2584  1.0519 -0.4437
  175MOL   N12045708   0.676   0.200   4.357 -0.1523 -0.2689  0.2605
  175MOL   C12145709   0.803   0.235   4.372  0.6827 -0.1940  0.4660
  175MOL   O12245710   0.848   0.350   4.356  0.7235  0.8186 -0.4599
  175MOL   C12345711   0.896   0.116   4.424  0.2238  0.1402 -0.3781
  175MOL   C12445712   0.531   0.391   4.422  0.1814  0.4347  0.3922
  175MOL   H12545713   0.585   0.329   4.226 -0.5247  2.5227 -0.0103
  175MOL   H12645714   0.666   0.099   4.354  1.3730 -0.3926 -1.1093
  175MOL   H12745715   0.996   0.135   4.384 -0.3994  0.4673 -1.7906
  175MOL   H12845716   0.905   0.107   4.532 -2.1769 -1.3637 -0.2846
  175MOL   H12945717   0.879   0.018   4.382  0.7499 -0.2825  0.3811
  175MOL   H13045718   0.508   0.347   4.519  0.8935 -4.1733 -1.4024
  175MOL   H13145719   0.629   0.435   4.443  0.3585 -0.6890  1.9806
  175MOL   C13245720   0.425   0.496   4.377 -0.7003 -0.2868  0.0147
  175MOL   N13345721   0.464   0.551   4.246  0.2253 -0.1613 -0.4033
  175MOL   C13445722   0.415   0.503   4.127  0.2532 -0.0983  0.2560
  175MOL   O13545723   0.334   0.414   4.123 -0.5937 -0.0065  0.5978
  175MOL   C13645724   0.491   0.554   4.005 -0.2927 -0.0905 -0.7062
  175MOL   C13745725   0.415   0.612   4.475 -0.0673  0.2137 -0.6747
  175MOL   H13845726   0.329   0.447   4.365  0.4481 -3.1620  1.8130
  175MOL   H13945727   0.522   0.633   4.238 -3.3838  2.3830 -1.8254
  175MOL   H14045728   0.448   0.645   3.964 -0.6952  0.5448  1.0660
  175MOL   H14145729   0.592   0.580   4.038 -0.6011 -0.7615  0.8226
  175MOL   H14245730   0.495   0.484   3.922  1.3839  1.5698 -2.0825
  175MOL   H14345731   0.512   0.644   4.513 -1.2906  0.2262  2.6383
  175MOL   H14445732   0.385   0.703   4.423  0.0317  1.4579  1.3867
  175MOL   C14545733   0.330   0.601   4.601 -0.3348  0.7270 -0.6646
  175MOL   N14645734   0.295   0.734   4.655  0.2336 -0.1797  0.6273
  175MOL   C14745735   0.190   0.804   4.605  0.2645 -0.3015 -0.4271
  175MOL   O14845736   0.138   0.766   4.503  0.0820 -0.0811 -0.0434
  175MOL   C14945737   0.157   0.940   4.673 -0.6334  0.5413  0.4020
  175MOL   C15045738   0.391   0.517   4.713 -0.5021 -0.6306  0.5138
  175MOL   H15145739   0.232   0.561   4.575 -1.0916  0.4625  2.4366
  175MOL   H15245740   0.348   0.773   4.732  1.3492 -2.5181  1.0723
  175MOL   H15345741   0.097   0.920   4.761 -0.7920  0.0875  0.1914
  175MOL   H15445742   0.251   0.989   4.699 -0.0217 -0.4905  0.1703
  175MOL   H15545743   0.100   0.999   4.601  0.3985  0.1311 -0.7827
  175MOL   H15645744   0.387   0.411   4.687 -1.6463 -0.5263  0.2458
  175MOL   H15745745   0.496   0.535   4.734 -1.0558 -0.2647  3.2412
  175MOL   C15845746   0.316   0.511   4.851  0.0719 -0.4719  0.1209
  175MOL   N15945747   0.395   0.429   4.940 -0.5251  0.2942  0.2347
  175MOL   C16045748   0.419   0.457   5.065 -0.1761  0.1314  0.1343
  175MOL   O16145749   0.367   0.546   5.128  0.2583 -0.4854  0.1195
  175MOL   C16245750   0.513   0.362   5.137 -0.2696 -0.5231  0.4173
  175MOL   C16345751   0.173   0.473   4.851 -0.0840  0.9880 -0.2626
  175MOL   H16445752   0.320   0.613   4.888 -0.3376 -0.2590 -0.4261
  175MOL   H16545753   0.445   0.354   4.895 -1.4891 -0.3992  0.2860
  175MOL   H16645754   0.574   0.296   5.076  1.8364  0.5406  1.3239
  175MOL   H16745755   0.588   0.420   5.191  0.0971 -1.3084  0.7562
  175MOL   H16845756   0.453   0.310   5.212 -1.0755  3.2068  2.4868
  175MOL   H16945757   0.148   0.435   4.752 -1.1324 -1.8535  1.0478
  175MOL   H17045758   0.164   0.379   4.904 -1.4090  1.9612  1.2834
  175MOL   C17145759   0.064   0.580   4.903  0.7504 -0.2356 -0.7837
  175MOL   N17245760   0.112   0.632   5.039 -0.1819  0.5417 -0.2372
  175MOL   C17345761   0.116   0.760   5.085  0.3696  0.4309 -0.1306
  175MOL   O17445762   0.080   0.851   5.014  0.0919  0.1302 -0.1411
  175MOL   C17545763   0.160   0.802   5.228 -0.2660  0.5518 -0.0285
  175MOL   C17645764   7.766   0.519   4.915  0.2258  0.2243  0.0421
  175MOL   H17745765   0.065   0.670   4.842  0.3028 -0.5338 -1.2301
  175MOL   H17845766   0.164   0.571   5.100 -0.4802 -1.9156 -2.3588
  175MOL   H17945767   0.148   0.720   5.300  0.3776  0.6291  0.1656
  175MOL   H18045768   0.266   0.824   5.218 -0.3484  1.5557  1.2387
  175MOL   H18145769   0.108   0.887   5.270 -0.3853  0.1747  0.5931
  175MOL   H18245770   7.774   0.418   4.874 -0.7112  0.1272  0.0819
  175MOL   H18345771   7.740   0.505   5.020  0.7745  1.1200  0.3003
  175MOL   C18445772   7.646   0.612   4.860  0.2620 -0.0811  0.4595
  175MOL   N18545773   7.673   0.757   4.883 -0.6718  0.6954  0.2448
  175MOL   C18645774   7.619   0.850   4.809 -0.5186  0.0562 -0.0048
  175MOL   O18745775   7.558   0.831   4.704 -0.7334 -0.6307  0.0582
  175MOL   C18845776   7.642   0.989   4.856 -0.0926  0.5587  0.0024
  175MOL   C18945777   7.511   0.566   4.923 -0.3725 -0.1674 -0.3410
  175MOL   H19045778   7.645   0.588   4.754 -1.9149 -0.6401  0.5885
  175MOL   H19145779   7.744   0.784   4.950  2.3356 -1.9606 -1.7374
  175MOL   H19245780   7.715   1.036   4.790  0.0140  1.9023  1.0425
  175MOL   H19345781   7.544   1.037   4.846 -0.6707 -0.9723 -2.1841
  175MOL   H19445782   7.699   0.994   4.948  2.3126 -0.7973 -1.3736
  175MOL   H19545783   7.507   0.569   5.032 -2.5729 -3.9455 -0.2052
  175MOL   H19645784   7.430   0.636   4.904  0.1411  0.8115  0.9949
  175MOL   C19745785   7.473   0.419   4.884 -0.0790  0.5750  0.2508
  175MOL   N19845786   7.416   0.402   4.753  0.3218 -0.1320  0.5764
  175MOL   C19945787   7.492   0.366   4.649 -0.5037 -0.4435  0.4345
  175MOL   O20045788   7.611   0.343   4.655 -0.4769 -0.2173  0.1299
  175MOL   C20145789   7.423   0.338   4.516 -0.0003 -0.2805 -0.8386
  175MOL   C20245790   7.381   0.352   4.995 -0.0421  0.8299  0.0350
  175MOL   H20345791   7.563   0.358   4.890 -0.4385  0.0800  0.6638
  175MOL   H20445792   7.316   0.388   4.745 -0.1445  1.0567  3.4734
  175MOL   H20545793   7.503   0.294   4.457  1.2798 -0.1376  0.7819
  175MOL   H20645794   7.340   0.268   4.526 -2.0938  2.1155 -0.9164
  175MOL   H20745795   7.390   0.430   4.467 -0.0734 -0.3680 -0.9560
  175MOL   H20845796   7.379   0.417   5.082 -1.7172  1.5620 -0.5373
  175MOL   H20945797   7.277   0.371   4.966  0.3548  1.4626 -1.0281
  175MOL   C21045798   7.397   0.196   5.029  0.5139  0.1502 -0.1268
  175MOL   N21145799   7.533   0.169   5.047  0.4289 -0.2993  0.1529
  175MOL   C21245800   7.603   0.209   5.152  0.9979  0.0806  0.9485
  175MOL   O21345801   7.552   0.268   5.247  0.0281  0.9022 -0.3851
  175MOL   C21445802   7.752   0.177   5.156 -0.1064  0.0362  0.4726
  175MOL   C21545803   7.333   0.100   4.929  0.0862  0.0135 -0.1706
  175MOL   H21645804   7.361   0.176   5.130 -2.0607 -2.1735 -1.4314
  175MOL   H21745805   7.578   0.109   4.979  0.6793  0.9072 -0.7541
  175MOL   H21845806   7.775   0.166   5.262  0.2110 -0.2099  0.3794
  175MOL   H21945807   7.766   0.080   5.109 -1.1889 -0.6050  1.4444
  175MOL   H22045808   7.809   0.257   5.108 -0.5434 -1.2062 -2.2178
  175MOL   H22145809   7.332   0.158   4.837 -0.8745 -0.4945 -0.4853
  175MOL   H22245810   7.404   0.025   4.895 -0.9762 -0.6038 -1.0659
  175MOL   C22345811   7.191   0.042   4.964 -0.3945  0.1926  0.0185
  175MOL   N22445812   7.202   7.797   5.083 -0.8347  0.3024  0.4079
  175MOL   C22545813   7.262   7.674   5.087  0.0615 -0.5948 -0.3897
  175MOL   O22645814   7.297   7.612   4.986  0.4081  0.3677 -0.5498
  175MOL   C22745815   7.268   7.603   5.225 -0.4794 -0.1858  0.1232
  175MOL   C22845816   7.121   7.815   4.841  0.0138  0.0187 -0.0374
  175MOL   H22945817   7.131   0.131   4.982 -0.3891  0.1844  0.0773
  175MOL   H23045818   7.184   7.838   5.173  2.7227  3.2118 -0.0725
  175MOL   H23145819   7.363   7.621   5.276 -0.2211 -2.3184  0.4179
  175MOL   H23245820   7.196   7.649   5.293 -0.5444 -0.9547  0.5829
  175MOL   H23345821   7.246   7.497   5.221 -0.9678 -0.0575 -0.6152
  175MOL   H23445822   7.191   7.747   4.794  0.7282  1.7158 -1.5162
  175MOL   H23545823   7.038   7.752   4.870 -0.7648  0.3749 -1.4184
  175MOL   C23645824   7.083   0.071   4.718  0.5110 -0.1169 -0.7678
  175MOL   N23745825   7.003   0.183   4.766  0.0853 -0.0372 -0.7312
  175MOL   C23845826   7.020   0.311   4.763 -0.8399  0.0807 -0.2835
  175MOL   O23945827   7.120   0.372   4.723  0.0053 -0.3585  0.9500
  175MOL   C24045828   6.898   0.386   4.814 -0.6444 -0.2781 -0.5673
  175MOL   C24145829   7.009   7.821   4.616  0.1876  0.1244  0.8390
  175MOL   H24245830   7.170   0.110   4.664  1.7447 -0.0412  1.2254
  175MOL   H24345831   6.908   0.155   4.789 -0.1425 -0.7130 -2.4353
  175MOL   H24445832   6.867   0.365   4.916  1.3122 -1.9039 -0.2872
  175MOL   H24545833   6.886   0.494   4.799 -1.1458 -0.5177 -1.9899
  175MOL   H24645834   6.811   0.338   4.768 -1.2559 -1.1588  1.4783
  175MOL   H24745835   7.068   7.732   4.598  2.0562  1.5147  0.0184
  175MOL   H24845836   6.915   7.786   4.660 -0.9020  0.7579 -0.9364
  175MOL   C24945837   6.967   0.042   4.480 -0.4057 -0.4570 -0.5598
  175MOL   N25045838   6.912   7.777   4.397  0.0598  0.1409 -0.0888
  175MOL   C25145839   6.784   7.730   4.394 -0.6193 -0.0698  0.5818
  175MOL   O25245840   6.694   7.772   4.465 -0.1115  0.1673  0.1935
  175MOL   C25345841   6.759   7.625   4.288  0.3425 -0.3185  0.5100
  175MOL   C25445842   7.080   0.090   4.386  0.1619  0.1952 -0.3009
  175MOL   H25545843   6.894   0.123   4.485  1.8168  1.5740 -0.0742
  175MOL   H25645844   6.981   7.747   4.329 -1.5530 -1.8162 -0.9144
  175MOL   H25745845   6.786   7.662   4.190  2.4454  0.0264  1.1998
  175MOL   H25845846   6.818   7.535   4.302 -2.3189 -2.1188  0.6471
  175MOL   H25945847   6.653   7.598   4.281 -0.6490  2.8833  2.2042
  175MOL   H26045848   7.157   0.014   4.400 -1.1536 -1.1502 -0.3160
  175MOL   H26145849   7.062   0.109   4.280  3.7471  2.4262 -0.5992
  175MOL   H26245850   7.127   0.178   4.430 -0.0167  1.0128 -1.7007
  176MOL     C145851   2.568   5.784   7.612  0.3411  0.7789 -0.2271
  176MOL     N245852   2.667   5.710   7.536  0.1017 -0.0607  0.9708
  176MOL     C345853   2.686   5.577   7.543 -0.4346  1.2173  0.0538
  176MOL     O445854   2.620   5.496   7.598  0.8468  0.7137 -0.0917
  176MOL     C545855   2.828   5.533   7.491 -0.6827  0.0699  0.3144
  176MOL     C645856   2.503   5.905   7.538  0.3765  0.5888 -0.3410
  176MOL     H745857   2.491   5.714   7.642  0.2818  0.5683 -0.8694
  176MOL     H845858   2.725   5.760   7.469 -0.0943  0.8417  1.4710
  176MOL     H945859   2.812   5.458   7.414 -0.5283  0.9465 -0.5669
  176MOL    H1045860   2.905   5.609   7.481  0.0850 -0.2455  3.1287
  176MOL    H1145861   2.867   5.477   7.577  2.9823 -0.2952 -1.5196
  176MOL    H1245862   2.458   5.870   7.445 -0.5002 -3.0688  1.3601
  176MOL    H1345863   2.425   5.947   7.602 -1.4807  0.7875 -2.6733
  176MOL    H1445864   2.616   5.822   7.702 -0.8975 -0.2320  0.8864
  176MOL    C1545865   2.600   6.023   7.514 -0.7868 -0.5144 -0.6954
  176MOL    N1645866   2.664   6.070   7.640  0.1008  0.1533 -0.1042
  176MOL    C1745867   2.796   6.087   7.665  0.4422 -0.4899  0.5910
  176MOL    O1845868   2.885   6.056   7.581  0.1579 -0.1013  0.1069
  176MOL    C1945869   2.839   6.121   7.802  0.1613  0.2487  0.3032
  176MOL    C2045870   2.533   6.139   7.442  0.0112 -0.6690  0.4833
  176MOL    H2145871   2.672   5.983   7.443 -2.6542 -1.4143 -2.1125
  176MOL    H2245872   2.601   6.087   7.717  0.8310 -3.4964  1.4058
  176MOL    H2345873   2.937   6.167   7.799  0.6708 -0.8805 -0.4698
  176MOL    H2445874   2.781   6.200   0.010  2.0130  1.3562  0.7626
  176MOL    H2545875   2.846   6.033   0.025  3.2097 -0.5057 -1.0037
  176MOL    H2645876   2.459   6.083   7.384  2.3050  0.1938 -3.4605
  176MOL    H2745877   2.478   6.201   7.513 -1.2895 -1.4259  0.1389
  176MOL    C2845878   2.630   6.224   7.350  0.2172  0.3780  0.3498
  176MOL    N2945879   2.616   6.366   7.368 -0.9748  0.1910 -0.8207
  176MOL    C3045880   2.508   6.445   7.358 -0.3384  0.4391 -0.3086
  176MOL    O3145881   2.397   6.402   7.324  0.3468 -0.2944 -0.2537
  176MOL    C3245882   2.521   6.591   7.379 -0.4385 -0.0087 -0.7360
  176MOL    C3345883   2.612   6.182   7.202  0.1936  0.6382  0.2458
  176MOL    H3445884   2.733   6.195   7.369  0.6144  0.3035 -1.7584
  176MOL    H3545885   2.691   6.417   7.412 -1.0009  0.0152 -0.5705
  176MOL    H3645886   2.496   6.617   7.482  1.7194  0.7213 -0.3612
  176MOL    H3745887   2.621   6.628   7.357  0.6622 -1.9973  0.8080
  176MOL    H3845888   2.448   6.643   7.317  0.6738  0.0527 -2.0237
  176MOL    H3945889   2.508   6.200   7.174  0.5327  3.1352  0.4939
  176MOL    H4045890   2.663   6.254   7.139 -0.1842 -0.0725 -0.8861
  176MOL    C4145891   2.654   6.040   7.155 -0.6241  0.3591  0.1044
  176MOL    N4245892   2.793   6.021   7.185 -0.2925  0.3253  0.1208
  176MOL    C4345893   2.852   5.923   7.249  0.0157 -0.7800 -0.4927
  176MOL    O4445894   2.787   5.827   7.287  0.0914  0.3071 -0.2707
  176MOL    C4545895   2.999   5.940   7.292 -0.3458  0.0559  0.7025
  176MOL    C4645896   2.637   6.027   6.998  0.3314 -0.0201 -0.8427
  176MOL    H4745897   2.587   5.976   7.212 -1.5507 -0.1133 -1.4867
  176MOL    H4845898   2.858   6.086   7.143 -0.4286  0.2465 -0.2165
  176MOL    H4945899   3.002   5.914   7.398  0.2530 -0.2149  0.6188
  176MOL    H5045900   3.042   5.862   7.229 -1.7704  0.3686 -0.6950
  176MOL    H5145901   3.039   6.039   7.274 -1.5752  0.1352 -1.8248
  176MOL    H5245902   2.546   6.078   6.968 -0.5848  0.3558  2.3998
  176MOL    H5345903   2.706   6.091   6.944  1.7370  0.1179  1.0743
  176MOL    C5445904   2.636   5.877   6.946 -0.1907 -0.1591  0.1811
  176MOL    N5545905   2.652   5.875   6.802  0.0996  0.3045 -0.3118
  176MOL    C5645906   2.698   5.776   6.721 -0.2204  0.2210 -0.1722
  176MOL    O5745907   2.743   5.664   6.757 -0.2710 -0.9156  0.3766
  176MOL    C5845908   2.677   5.795   6.577  0.6497 -0.3721 -0.2356
  176MOL    C5945909   2.502   5.801   6.990  0.3513  0.2275  0.4740
  176MOL    H6045910   2.725   5.831   6.988  0.2088  0.7465  0.3478
  176MOL    H6145911   2.620   5.960   6.759 -1.7603  1.4762  3.2075
  176MOL    H6245912   2.624   5.709   6.534  0.5325 -0.3524 -0.1299
  176MOL    H6345913   2.634   5.887   6.539 -1.6291 -0.7833  1.1876
  176MOL    H6445914   2.774   5.795   6.528  1.2608 -1.2295  0.9363
  176MOL    H6545915   2.515   5.693   6.977  1.1109  0.5447 -1.6383
  176MOL    H6645916   2.489   5.821   7.096  0.8329  2.6703  0.1124
  176MOL    C6745917   2.373   5.843   6.918 -0.2664  0.5973 -0.1137
  176MOL    N6845918   2.265   5.836   7.016  0.1863  0.8767  0.2242
  176MOL    C6945919   2.208   5.938   7.077  0.5602 -0.0710 -0.4514
  176MOL    O7045920   2.248   6.050   7.065  0.2750  0.4236  0.1973
  176MOL    C7145921   2.082   5.901   7.162  0.0085 -0.0852  0.7222
  176MOL    C7245922   2.345   5.762   6.787 -0.8129  0.3153 -0.4702
  176MOL    H7345923   2.383   5.948   6.888 -2.9000  1.3482  1.4786
  176MOL    H7445924   2.223   5.745   7.026  1.5271 -0.0201 -1.8864
  176MOL    H7545925   2.017   5.986   7.139  2.0371  1.2642 -0.2040
  176MOL    H7645926   2.037   5.809   7.126  2.4446 -0.8127 -0.5112
  176MOL    H7745927   2.101   5.890   7.269  0.3988 -1.4799  0.5116
  176MOL    H7845928   2.423   5.785   6.714 -0.4421 -0.5476 -0.3608
  176MOL    H7945929   2.359   5.657   6.815  0.6138  0.9556  1.3280
  176MOL    C8045930   2.205   5.783   6.736  0.7049  0.2797 -0.1039
  176MOL    N8145931   2.193   5.708   6.602 -0.0818  0.1148  0.0823
  176MOL    C8245932   2.093   5.634   6.561  0.0497  0.3282 -0.3764
  176MOL    O8345933   1.993   5.617   6.629 -0.1529  0.1263 -0.2965
  176MOL    C8445934   2.102   5.569   6.425 -0.0031 -0.6809 -0.2803
  176MOL    C8545935   2.158   5.929   6.711  0.3443 -0.3045  0.6886
  176MOL    H8645936   2.139   5.733   6.807  2.5226 -1.0864  0.6612
  176MOL    H8745937   2.278   5.717   6.548  0.4142 -1.9425  0.4684
  176MOL    H8845938   2.195   5.514   6.415 -0.0093 -0.9383  1.0215
  176MOL    H8945939   2.014   5.508   6.405 -0.5019  0.3955 -1.4420
  176MOL    H9045940   2.110   5.649   6.351  0.7038 -0.6289 -0.1492
  176MOL    H9145941   2.199   5.994   6.788  1.8402 -0.3718 -0.0386
  176MOL    H9245942   2.213   5.967   6.625 -2.1734  1.5225 -0.1775
  176MOL    C9345943   2.005   5.954   6.683 -0.6914 -0.5771 -0.2264
  176MOL    N9445944   1.988   6.085   6.621  0.8883  0.2662  0.2982
  176MOL    C9545945   2.025   6.124   6.501 -0.3050  0.8631 -0.0421
  176MOL    O9645946   2.054   6.047   6.410  0.6523  0.1033 -0.5115
  176MOL    C9745947   2.062   6.267   6.483  0.0936  0.3444  0.2634
  176MOL    C9845948   1.916   5.932   6.810 -0.2589  0.1361 -0.1982
  176MOL    H9945949   1.975   5.887   6.602  1.9810  0.0108 -1.7620
  176MOL   H10045950   1.970   6.154   6.692 -0.3507  0.6226 -0.3442
  176MOL   H10145951   2.043   6.322   6.576  0.3104 -0.8107  0.9953
  176MOL   H10245952   2.170   6.279   6.472  0.0546  0.7740  0.3335
  176MOL   H10345953   2.011   6.318   6.401 -0.5923 -2.4827 -1.1040
  176MOL   H10445954   1.914   5.830   6.848  0.1455 -0.2412 -1.1656
  176MOL   H10545955   1.956   5.993   6.891  0.2292  0.2370 -0.5124
  176MOL   C10645956   1.765   5.978   6.801 -0.1493  0.0068 -0.6932
  176MOL   N10745957   1.692   5.947   6.929 -0.1847  0.3706 -0.0979
  176MOL   C10845958   1.716   6.002   7.050 -0.5980  0.0601  0.6199
  176MOL   O10945959   1.799   6.088   7.073  0.6305  0.5595 -0.2557
  176MOL   C11045960   1.619   5.953   7.157 -0.0532  0.3238 -0.1089
  176MOL   C11145961   1.698   5.889   6.687 -0.8007  0.1522  0.0102
  176MOL   H11245962   1.756   6.085   6.780 -4.0997 -0.0915  0.0934
  176MOL   H11345963   1.627   5.870   6.923 -0.5441  0.4890  1.9436
  176MOL   H11445964   1.601   6.036   7.225 -1.4031  0.0070 -0.0653
  176MOL   H11545965   1.529   5.912   7.112  0.4436 -3.6811  2.2686
  176MOL   H11645966   1.664   5.879   7.223 -2.1024 -0.5097  0.3916
  176MOL   H11745967   1.769   5.867   6.607 -0.3708  0.0337  0.4210
  176MOL   H11845968   1.676   5.789   6.724 -1.0978 -0.0614 -0.7330
  176MOL   C11945969   1.570   5.957   6.634  0.0340 -0.5724  0.3059
  176MOL   N12045970   1.508   5.854   6.554 -0.3520  0.1161 -0.4040
  176MOL   C12145971   1.379   5.846   6.531 -0.1019  0.1642 -0.4219
  176MOL   O12245972   1.300   5.921   6.579 -0.0188 -0.4697 -0.1340
  176MOL   C12345973   1.340   5.738   6.439  0.3033 -0.1942  0.2644
  176MOL   C12445974   1.581   6.088   6.559  0.3245 -0.5560  0.0286
  176MOL   H12545975   1.515   5.973   6.726  1.7682 -1.8408  1.5889
  176MOL   H12645976   1.569   5.793   6.501  0.6071 -0.7972  1.7042
  176MOL   H12745977   1.421   5.723   6.367  1.6026  2.4449  1.1360
  176MOL   H12845978   1.301   5.649   6.488 -0.3918 -0.0282  0.0140
  176MOL   H12945979   1.259   5.787   6.386  1.9148  1.8467 -0.3776
  176MOL   H13045980   1.479   6.128   6.557 -0.5348 -2.7472 -3.6130
  176MOL   H13145981   1.632   6.162   6.621  0.1183 -0.1338 -0.3052
  176MOL   C13245982   1.635   6.085   6.412  0.1803 -0.3455  0.4132
  176MOL   N13345983   1.740   5.986   6.384 -0.2066 -0.4033 -0.2813
  176MOL   C13445984   1.725   5.872   6.320  0.6056  0.3419  0.4242
  176MOL   O13545985   1.626   5.828   6.273  0.2413  0.0112 -0.1990
  176MOL   C13645986   1.852   5.786   6.312 -0.2310 -0.1573 -0.1872
  176MOL   C13745987   1.687   6.221   6.372  0.2317  0.2046  0.1605
  176MOL   H13845988   1.557   6.045   6.347 -0.4844 -1.2245  1.7288
  176MOL   H13945989   1.834   6.006   6.415 -0.0836 -0.8287 -0.3709
  176MOL   H14045990   1.879   5.762   6.415  0.7913 -1.6423 -0.7797
  176MOL   H14145991   1.837   5.688   6.267 -0.1981  0.2961 -1.2083
  176MOL   H14245992   1.932   5.838   6.259 -0.8899  1.2979  0.2303
  176MOL   H14345993   1.626   6.296   6.422 -1.3748 -1.2610  0.4447
  176MOL   H14445994   1.784   6.234   6.419 -0.6705  2.0093  1.6173
  176MOL   C14545995   1.685   6.254   6.224  0.1166  0.2787  0.6410
  176MOL   N14645996   1.803   6.192   6.166  0.2390 -0.0161  0.5715
  176MOL   C14745997   1.807   6.098   6.069  0.2641 -0.3474 -0.2299
  176MOL   O14845998   1.710   6.030   6.051  0.2656  0.0953  0.3857
  176MOL   C14945999   1.935   6.070   6.002 -0.2680 -0.0729  0.7416
  176MOL   C15046000   1.692   6.412   6.203  0.4094  0.4467 -0.4804
  176MOL   H15146001   1.598   6.212   6.173  0.7198 -0.5550  0.2970
  176MOL   H15246002   1.893   6.229   6.191 -0.5617  4.1188 -2.1081
  176MOL   H15346003   1.914   6.021   5.907  1.9337 -0.6191  0.5091
  176MOL   H15446004   2.008   6.149   5.985  0.1531 -0.5855  0.1613
  176MOL   H15546005   1.992   6.002   6.066 -0.2936  0.0715  0.9208
  176MOL   H15646006   1.602   6.450   6.252 -0.7680  0.6848 -2.7600
  176MOL   H15746007   1.773   6.463   6.256 -2.1103  1.6515  2.3496
  176MOL   C15846008   1.708   6.455   6.052  0.6590  0.2572  0.9271
  176MOL   N15946009   1.736   6.596   6.040 -0.0420 -0.2770 -0.4682
  176MOL   C16046010   1.784   6.664   5.933  0.0502 -0.3085 -0.1135
  176MOL   O16146011   1.833   6.611   5.834  0.1171 -0.0087  0.0765
  176MOL   C16246012   1.774   6.816   5.935  0.2942 -0.6795 -0.2767
  176MOL   C16346013   1.590   6.402   5.963 -0.1341  0.1086  0.8709
  176MOL   H16446014   1.792   6.401   6.007  1.8275  2.6837  0.0939
  176MOL   H16546015   1.710   6.660   6.114  2.7348  0.9976 -0.5345
  176MOL   H16646016   1.802   6.861   5.839 -1.0251  0.3385 -0.1905
  176MOL   H16746017   1.683   6.868   5.962  0.3049  0.0486 -1.5701
  176MOL   H16846018   1.848   6.864   5.999 -1.4668 -0.6132  1.7306
  176MOL   H16946019   1.606   6.432   5.859  0.6610 -4.4561 -0.4431
  176MOL   H17046020   1.600   6.294   5.964 -1.2660  0.0057  1.0707
  176MOL   C17146021   1.451   6.444   6.014  0.3826 -0.1230  0.4586
  176MOL   N17246022   1.351   6.377   5.939  0.0760  0.7056 -0.1198
  176MOL   C17346023   1.314   6.251   5.951 -0.2029  0.1260  0.6415
  176MOL   O17446024   1.350   6.177   6.039 -0.3652  0.2983 -0.6184
  176MOL   C17546025   1.215   6.203   5.843  0.0287  0.1810 -0.6359
  176MOL   C17646026   1.431   6.602   5.999 -0.2253 -0.2334 -0.9299
  176MOL   H17746027   1.446   6.415   6.119 -2.5690 -1.1124  0.0833
  176MOL   H17846028   1.320   6.424   5.855  0.9597  1.7959  0.1577
  176MOL   H17946029   1.259   6.149   5.760 -0.6820 -1.4201  0.0138
  176MOL   H18046030   1.156   6.122   5.886 -1.6248  1.9155  0.4382
  176MOL   H18146031   1.152   6.286   5.812 -0.6737 -0.3784 -0.7138
  176MOL   H18246032   1.480   6.649   6.085 -1.4479 -0.5067 -0.0737
  176MOL   H18346033   1.498   6.639   5.921  0.8103  1.0822  0.5356
  176MOL   C18446034   1.290   6.656   5.969 -0.7984  0.4594 -0.2364
  176MOL   N18546035   1.294   6.804   5.948  0.2323  0.0763  0.2285
  176MOL   C18646036   1.287   6.868   5.829  0.2290  0.2804  0.4428
  176MOL   O18746037   1.281   6.814   5.721  0.3896  0.3370 -0.3474
  176MOL   C18846038   1.307   7.020   5.840  0.6912  0.6529 -0.3795
  176MOL   C18946039   1.176   6.612   6.066  0.2067 -0.4903  0.4839
  176MOL   H19046040   1.264   6.616   5.871  0.4214 -0.6669 -0.1261
  176MOL   H19146041   1.312   6.863   6.028  0.1195  0.8537 -0.3182
  176MOL   H19246042   1.208   7.063   5.853  0.7105  0.1054  1.8654
  176MOL   H19346043   1.373   7.047   5.923  0.8301  0.2125 -0.3449
  176MOL   H19446044   1.360   7.065   5.756  1.2041  1.7631  0.5269
  176MOL   H19546045   1.194   6.505   6.077 -1.0830 -0.8070 -0.3197
  176MOL   H19646046   1.200   6.647   6.166 -1.1005  1.1223  0.2422
  176MOL   C19746047   1.032   6.638   6.020  0.2089 -0.3367  0.3672
  176MOL   N19846048   0.998   6.782   6.040 -0.2728  0.3626 -0.1172
  176MOL   C19946049   0.919   6.859   5.967  0.1605 -0.0670 -0.6013
  176MOL   O20046050   0.865   6.815   5.863 -0.4073 -0.1946 -0.0645
  176MOL   C20146051   0.884   6.997   6.022  0.3967 -0.4575 -0.3631
  176MOL   C20246052   0.927   6.564   6.100 -0.1370  0.0721  0.4072
  176MOL   H20346053   1.018   6.625   5.912  0.9412  2.1912 -0.0789
  176MOL   H20446054   1.057   6.826   6.108  1.4267 -0.2603 -1.1655
  176MOL   H20546055   0.800   6.984   6.090 -0.0514  0.8695 -0.6606
  176MOL   H20646056   0.959   7.057   6.074 -1.4886  1.7057 -0.0985
  176MOL   H20746057   0.849   7.060   5.940 -3.8599 -0.6838  1.1810
  176MOL   H20846058   0.977   6.562   6.196  0.8381  2.0332 -0.0347
  176MOL   H20946059   0.827   6.608   6.097 -0.0551  0.1717 -1.6657
  176MOL   C21046060   0.901   6.413   6.069 -0.9384 -0.1385 -0.2701
  176MOL   N21146061   0.813   6.411   5.952 -0.4414 -0.0928 -0.0000
  176MOL   C21246062   0.799   6.308   5.870 -0.0651 -0.2735 -0.5668
  176MOL   O21346063   0.871   6.211   5.878 -0.2308 -0.3376 -0.3705
  176MOL   C21446064   0.708   6.327   5.745  0.2012  0.5329 -0.4253
  176MOL   C21546065   0.822   6.335   6.183 -0.1507 -0.1424  0.2274
  176MOL   H21646066   0.992   6.356   6.049 -1.8397 -1.1559 -1.5587
  176MOL   H21746067   0.766   6.499   5.936 -0.3613  0.0311  0.4354
  176MOL   H21846068   0.707   6.241   5.678 -1.9408  0.0958  0.1224
  176MOL   H21946069   0.606   6.330   5.783  0.3024  0.2828 -0.1298
  176MOL   H22046070   0.732   6.421   5.695 -0.3851 -0.4394 -2.6048
  176MOL   H22146071   0.729   6.392   6.173  1.0524  1.5457 -1.8318
  176MOL   H22246072   0.806   6.231   6.156 -0.2826 -0.0940  0.1200
  176MOL   C22346073   0.895   6.344   6.324 -0.0407  0.3849 -0.0882
  176MOL   N22446074   1.028   6.286   6.318  0.0340 -0.2755  0.5575
  176MOL   C22546075   1.143   6.355   6.352  0.7083 -0.6725 -0.1963
  176MOL   O22646076   1.142   6.482   6.364  0.0360 -0.1691  0.6739
  176MOL   C22746077   1.267   6.273   6.382  0.4658 -0.2957  0.5492
  176MOL   C22846078   0.805   6.290   6.436 -0.1931 -0.6057  0.2783
  176MOL   H22946079   0.905   6.449   6.349 -0.0605  0.3134  0.2276
  176MOL   H23046080   1.040   6.186   6.311  0.7100 -0.0678 -1.7877
  176MOL   H23146081   1.320   6.336   6.453 -2.7969  1.0247  1.9187
  176MOL   H23246082   1.248   6.171   6.416 -0.7082 -0.5913 -0.9035
  176MOL   H23346083   1.316   6.269   6.284  0.3570  0.8988  0.4387
  176MOL   H23446084   0.798   6.181   6.440  1.9839 -0.8706 -1.6368
  176MOL   H23546085   0.857   6.313   6.528 -1.4087  0.2811  0.7513
  176MOL   C23646086   0.666   6.353   6.445  0.1013 -0.5781 -0.2445
  176MOL   N23746087   0.696   6.496   6.472 -0.3100  0.0138  0.0783
  176MOL   C23846088   0.653   6.596   6.393  0.0549  0.2541  0.3149
  176MOL   O23946089   0.564   6.576   6.312 -0.2341 -0.1566  0.2207
  176MOL   C24046090   0.695   6.743   6.418 -0.3949 -0.1340 -0.4861
  176MOL   C24146091   0.570   6.289   6.545 -0.8794  0.2547  0.4399
  176MOL   H24246092   0.617   6.331   6.351  0.1844  1.3941 -0.7824
  176MOL   H24346093   0.761   6.521   6.545 -0.7071  0.3020  0.3349
  176MOL   H24446094   0.628   6.821   6.380  0.1967  0.4251 -0.3819
  176MOL   H24546095   0.729   6.765   6.520  1.1887  0.8027 -1.2066
  176MOL   H24646096   0.782   6.764   6.357  0.2339 -1.6381 -0.1246
  176MOL   H24746097   0.596   6.185   6.567 -0.6084  0.1333 -0.4311
  176MOL   H24846098   0.596   6.334   6.640 -1.1997  0.8441  0.2519
  176MOL   C24946099   0.422   6.296   6.530  0.5024  0.0325 -0.1823
  176MOL   N25046100   0.387   6.430   6.495 -0.0193  0.2503  0.0420
  176MOL   C25146101   0.270   6.472   6.444  0.0204  0.0966  0.9216
  176MOL   O25246102   0.181   6.399   6.412  0.6095  0.0410  0.6311
  176MOL   C25346103   0.255   6.621   6.422 -0.7906 -0.5221  0.6083
  176MOL   C25446104   0.352   6.252   6.655 -0.6431  0.0111  0.2906
  176MOL   H25546105   0.385   6.230   6.452 -3.5771  0.4743  1.2684
  176MOL   H25646106   0.452   6.501   6.524  1.8305 -1.7207  0.8765
  176MOL   H25746107   0.258   6.643   6.315  0.4935  0.8857  0.9051
  176MOL   H25846108   0.164   6.657   6.470  1.3581  2.9645  2.2840
  176MOL   H25946109   0.347   6.662   6.465 -0.2805 -0.1949 -0.7519
  176MOL   H26046110   0.245   6.233   6.647 -1.1449  2.8890 -0.1966
  176MOL   H26146111   0.401   6.163   6.696  0.3069  0.6742  0.6332
  176MOL   H26246112   0.370   6.332   6.727  2.4392 -2.3110  2.2726
  177MOL     C146113   5.055   5.156   2.064 -0.6389 -0.1858 -0.7864
  177MOL     N246114   4.960   5.079   2.136 -0.0690  0.1098 -0.5651
  177MOL     C346115   4.936   5.080   2.268  0.5179 -0.1074 -0.5453
  177MOL     O446116   5.005   5.149   2.352  0.2544 -0.3526 -0.2810
  177MOL     C546117   4.809   5.008   2.309  0.0932 -0.2198 -0.3429
  177MOL     C646118   5.189   5.178   2.135 -0.0509  0.3575  0.1342
  177MOL     H746119   5.065   5.105   1.968 -1.2892 -1.2978 -0.2770
  177MOL     H846120   4.908   5.016   2.077  0.4138 -2.4622  1.6230
  177MOL     H946121   4.760   4.958   2.225  0.9865 -1.1247 -0.3275
  177MOL    H1046122   4.819   4.936   2.390 -1.2573 -0.2939 -0.2272
  177MOL    H1146123   4.735   5.085   2.332 -0.5218 -0.5253 -1.2607
  177MOL    H1246124   5.188   5.226   2.233 -0.7546  1.8538 -0.5931
  177MOL    H1346125   5.225   5.078   2.163  0.7323  0.9638  1.3531
  177MOL    H1446126   5.021   5.257   2.041  1.4215  0.9919  1.2378
  177MOL    C1546127   5.313   5.237   2.065  0.0472  0.0607 -0.0079
  177MOL    N1646128   5.288   5.383   2.042 -0.2319 -0.0457  0.1237
  177MOL    C1746129   5.379   5.481   2.051 -0.0356 -0.5349 -0.5270
  177MOL    O1846130   5.489   5.466   2.108 -0.4414  0.1820  0.4226
  177MOL    C1946131   5.349   5.611   1.980 -0.2161  0.2061  0.4960
  177MOL    C2046132   5.350   5.166   1.934  0.1981 -0.1660  0.4328
  177MOL    H2146133   5.391   5.226   2.140 -1.4322 -0.9995  1.3991
  177MOL    H2246134   5.195   5.411   2.015  0.5294  0.0740 -2.4950
  177MOL    H2346135   5.247   5.642   2.004  0.5010  2.6943  0.4408
  177MOL    H2446136   5.423   5.685   2.010 -1.0761  0.2577  2.5862
  177MOL    H2546137   5.369   5.595   1.874  0.8160  2.2336  0.3750
  177MOL    H2646138   5.330   5.060   1.951  1.2438 -0.0179  2.8636
  177MOL    H2746139   5.292   5.214   1.856 -0.1252 -1.5316 -0.1747
  177MOL    C2846140   5.496   5.158   1.884  0.2413  0.5836  0.1703
  177MOL    N2946141   5.494   5.109   1.743  0.3104  0.3203 -0.3746
  177MOL    C3046142   5.514   5.193   1.639 -0.1818  0.7706 -0.4339
  177MOL    O3146143   5.514   5.316   1.634 -0.0650 -0.6661 -0.2851
  177MOL    C3246144   5.518   5.120   1.502 -0.1917  0.2827 -0.7375
  177MOL    C3346145   5.587   5.071   1.971 -0.0695  0.0775 -0.0390
  177MOL    H3446146   5.536   5.259   1.877  1.2331  0.0707 -1.9946
  177MOL    H3546147   5.483   5.010   1.727  0.4270  0.5104 -1.6351
  177MOL    H3646148   5.458   5.175   1.430  0.3474  1.2300 -0.4649
  177MOL    H3746149   5.618   5.114   1.459  0.5973 -1.1428  1.2100
  177MOL    H3846150   5.475   5.019   1.508  1.9326 -0.5288  2.2687
  177MOL    H3946151   5.626   5.120   2.060 -0.1456 -0.2283  0.1640
  177MOL    H4046152   5.531   4.989   2.016  0.7731 -1.3403 -1.5091
  177MOL    C4146153   5.720   5.026   1.910  0.2391 -0.9609  0.4052
  177MOL    N4246154   5.788   4.936   2.004 -0.3790 -0.4468 -0.1477
  177MOL    C4346155   5.757   4.805   2.041 -0.2956 -0.6590  0.3186
  177MOL    O4446156   5.644   4.762   2.012  0.5605 -0.3360  0.5716
  177MOL    C4546157   5.846   4.718   2.140 -0.1622 -0.2273 -0.2197
  177MOL    C4646158   5.810   5.154   1.880  0.3264  0.1720  0.3293
  177MOL    H4746159   5.702   4.972   1.817  1.2031 -0.2497 -0.1960
  177MOL    H4846160   5.874   4.973   2.042  0.2695 -1.2747 -0.7969
  177MOL    H4946161   5.881   4.637   2.076 -1.5529 -0.9173 -0.1165
  177MOL    H5046162   5.938   4.767   2.171 -0.7792  0.0192  1.3106
  177MOL    H5146163   5.791   4.673   2.223 -0.1872 -0.6925 -0.4863
  177MOL    H5246164   5.775   5.239   1.822 -0.6281 -0.5097 -0.0989
  177MOL    H5346165   5.836   5.197   1.976  1.4666 -0.7885  0.4640
  177MOL    C5446166   5.944   5.125   1.808  0.2185 -0.1844 -0.3731
  177MOL    N5546167   6.030   5.248   1.819 -0.8285 -0.2283  0.0560
  177MOL    C5646168   6.165   5.253   1.797  0.5717 -0.1736  0.0343
  177MOL    O5746169   6.234   5.156   1.767 -0.3575  0.3857  0.2992
  177MOL    C5846170   6.228   5.390   1.817  0.4576 -0.7400 -0.3409
  177MOL    C5946171   5.931   5.089   1.659  0.4899 -1.2907  0.1855
  177MOL    H6046172   5.997   5.043   1.858  1.3314  1.1177  0.6166
  177MOL    H6146173   5.988   5.337   1.840  0.1572  0.2771 -0.1008
  177MOL    H6246174   6.216   5.435   1.718  1.8021 -2.8034 -1.4825
  177MOL    H6346175   6.179   5.457   1.886 -0.7292 -0.5868 -1.3092
  177MOL    H6446176   6.333   5.369   1.834  0.6018 -2.0710 -2.6522
  177MOL    H6546177   5.834   5.133   1.634  0.9836  0.5133  1.3815
  177MOL    H6646178   6.001   5.142   1.595 -1.2828 -0.5196 -1.1678
  177MOL    C6746179   5.925   4.939   1.629 -0.7017 -0.5999  0.0506
  177MOL    N6846180   6.063   4.889   1.635 -0.4429 -0.1772  0.1935
  177MOL    C6946181   6.106   4.809   1.733 -0.3912  0.3214 -0.1176
  177MOL    O7046182   6.039   4.778   1.831  0.1487 -0.3661 -0.3391
  177MOL    C7146183   6.248   4.751   1.719  0.1417  0.2549  0.0108
  177MOL    C7246184   5.870   4.901   1.491 -0.9278  0.2353 -0.0097
  177MOL    H7346185   5.868   4.886   1.706 -1.2694  0.1704  0.1654
  177MOL    H7446186   6.129   4.917   1.564  0.1552  0.6389  1.0654
  177MOL    H7546187   6.309   4.821   1.661 -0.8297 -0.2634 -1.6926
  177MOL    H7646188   6.293   4.737   1.817 -2.2356 -1.1103  0.9399
  177MOL    H7746189   6.252   4.650   1.679  0.9829  0.0672  0.5590
  177MOL    H7846190   5.836   4.797   1.496  3.3511 -1.3083 -1.1910
  177MOL    H7946191   5.783   4.966   1.478 -2.1532 -1.1072  1.2259
  177MOL    C8046192   5.951   4.913   1.363 -0.6999 -1.0125 -0.2397
  177MOL    N8146193   6.022   5.038   1.367  0.0510 -0.3556  0.2146
  177MOL    C8246194   6.153   5.059   1.376 -0.0807  0.5101 -0.1526
  177MOL    O8346195   6.233   4.964   1.385  0.1576 -0.5720  0.4380
  177MOL    C8446196   6.195   5.209   1.370  0.2726  0.0992 -0.1265
  177MOL    C8546197   5.859   4.908   1.234  0.7628  0.0234  0.3932
  177MOL    H8646198   6.019   4.829   1.352  1.5139  0.8831 -1.4803
  177MOL    H8746199   5.967   5.120   1.347 -0.9743 -0.8636  0.9129
  177MOL    H8846200   6.286   5.227   1.427 -0.1132 -0.9428  0.8417
  177MOL    H8946201   6.206   5.222   1.263  1.2468  2.4480  0.2340
  177MOL    H9046202   6.118   5.277   1.405  0.6003  0.7135 -0.5961
  177MOL    H9146203   5.753   4.918   1.259  0.6390  0.0579 -0.1389
  177MOL    H9246204   5.876   4.999   1.176  0.3926 -0.6205 -0.7243
  177MOL    C9346205   5.874   4.790   1.134  0.0240 -0.0874 -0.5313
  177MOL    N9446206   5.819   4.830   1.005  0.7364 -0.6058 -0.9724
  177MOL    C9546207   5.870   4.809   0.884  0.2432  0.4721 -0.0887
  177MOL    O9646208   5.978   4.754   0.863  0.2280  0.5876 -0.1203
  177MOL    C9746209   5.785   4.843   0.763  0.3772  0.2792  0.0397
  177MOL    C9846210   5.800   4.665   1.183 -0.9920 -0.2669 -0.4368
  177MOL    H9946211   5.981   4.772   1.123  0.3905  1.9055 -0.5102
  177MOL   H10046212   5.731   4.879   1.015  0.7077 -1.2296  2.1458
  177MOL   H10146213   5.832   4.782   0.685 -1.4271 -1.4850  0.2837
  177MOL   H10246214   5.679   4.817   0.764  0.5314 -0.3532  0.2964
  177MOL   H10346215   5.803   4.946   0.733  1.2505  1.2195  3.5443
  177MOL   H10446216   5.832   4.637   1.284 -0.1766  1.1896 -0.2703
  177MOL   H10546217   5.697   4.698   1.196 -0.8137  0.5485 -1.0685
  177MOL   C10646218   5.800   4.528   1.104  0.1762 -0.4813 -0.2386
  177MOL   N10746219   5.661   4.466   1.112 -0.4091  0.7317 -0.5478
  177MOL   C10846220   5.590   4.430   1.221 -0.1071 -0.6728 -1.0170
  177MOL   O10946221   5.627   4.464   1.335 -0.3246  0.3063 -0.5804
  177MOL   C11046222   5.464   4.360   1.198 -0.1333  0.7222  0.3052
  177MOL   C11146223   5.916   4.431   1.129 -0.1798  0.5015  0.2672
  177MOL   H11246224   5.810   4.545   0.997 -1.3496 -1.1068 -0.4855
  177MOL   H11346225   5.624   4.430   1.025  0.1749  0.3066 -0.6206
  177MOL   H11446226   5.459   4.286   1.117 -0.5945  1.4532 -0.3427
  177MOL   H11546227   5.438   4.305   1.288 -1.4787  1.6442  0.4991
  177MOL   H11646228   5.384   4.434   1.189 -0.0458  0.9194  1.1348
  177MOL   H11746229   6.009   4.486   1.123  0.1796 -0.2479 -1.1111
  177MOL   H11846230   5.915   4.392   1.231  0.2612  0.4860  0.2642
  177MOL   C11946231   5.935   4.313   1.035  0.4467  1.0340  0.5064
  177MOL   N12046232   5.854   4.200   1.067  0.6342 -0.4116  0.1416
  177MOL   C12146233   5.743   4.160   1.010 -0.4744  0.5028 -0.0414
  177MOL   O12246234   5.707   4.213   0.904 -0.0040 -0.0618  0.1322
  177MOL   C12346235   5.664   4.049   1.069 -0.4282 -0.6525 -0.2131
  177MOL   C12446236   6.077   4.263   1.006 -0.0495  0.1263 -0.8720
  177MOL   H12546237   5.900   4.360   0.943  0.0630 -0.5017 -0.1423
  177MOL   H12646238   5.886   4.155   1.151 -0.9644 -0.5480  0.6921
  177MOL   H12746239   5.697   4.020   1.169  0.6685  2.9192  0.5471
  177MOL   H12846240   5.561   4.082   1.082 -0.6338 -0.9642 -1.0515
  177MOL   H12946241   5.679   3.964   1.003 -1.3731 -0.4763 -0.6607
  177MOL   H13046242   6.152   4.342   1.005 -1.1837  1.2051 -2.8586
  177MOL   H13146243   6.123   4.200   1.082  1.9186  1.5830 -0.7984
  177MOL   C13246244   6.098   4.188   0.867 -0.5202 -0.8219  0.3761
  177MOL   N13346245   6.045   4.274   0.759  0.0880 -0.0844 -0.6468
  177MOL   C13446246   6.114   4.374   0.696 -0.4042 -0.3069 -0.3009
  177MOL   O13546247   6.232   4.403   0.713  0.2969 -0.1796 -0.2994
  177MOL   C13646248   6.032   4.471   0.612  0.0880 -0.7981 -0.0673
  177MOL   C13746249   6.056   4.041   0.847 -0.2590 -0.0201  0.1457
  177MOL   H13846250   6.205   4.182   0.850 -0.4790  1.5581 -0.4089
  177MOL   H13946251   5.949   4.255   0.735  0.2509 -2.6224  0.5606
  177MOL   H14046252   6.019   4.443   0.507 -0.7227  1.1122 -0.5033
  177MOL   H14146253   5.935   4.469   0.660  0.5975  0.0448  1.0134
  177MOL   H14246254   6.073   4.572   0.622  0.2227 -0.8370 -0.2099
  177MOL   H14346255   5.947   4.037   0.851 -0.4764  2.0011 -2.4706
  177MOL   H14446256   6.098   4.021   0.749 -1.5866  2.5313 -0.9834
  177MOL   C14546257   6.108   3.932   0.947  0.0714 -0.0329 -0.1084
  177MOL   N14646258   6.156   3.810   0.878 -0.4546 -0.3409  0.3306
  177MOL   C14746259   6.280   3.773   0.849 -0.2771 -0.1837  0.1448
  177MOL   O14846260   6.383   3.836   0.874 -0.1191 -0.1123  0.1571
  177MOL   C14946261   6.307   3.642   0.777 -0.4188 -0.4132  0.6749
  177MOL   C15046262   6.012   3.889   1.063  0.3914 -0.3432  0.0092
  177MOL   H15146263   6.198   3.981   0.986  0.5439 -0.9246 -0.0515
  177MOL   H15246264   6.085   3.749   0.840 -1.5048  1.6234 -0.8796
  177MOL   H15346265   6.218   3.579   0.777 -1.1282  0.5597  1.4370
  177MOL   H15446266   6.321   3.647   0.670 -2.7483  3.5630  0.4351
  177MOL   H15546267   6.393   3.589   0.816  2.3208  2.9073 -0.5572
  177MOL   H15646268   6.000   3.980   1.121  2.1829  0.2091 -0.4625
  177MOL   H15746269   5.914   3.868   1.021 -0.5490 -0.1547  2.0746
  177MOL   C15846270   6.057   3.771   1.157  0.0506  0.6058  0.6889
  177MOL   N15946271   5.947   3.692   1.210  0.3773  0.5642  0.0011
  177MOL   C16046272   5.843   3.737   1.291 -0.8579 -0.0688 -0.3636
  177MOL   O16146273   5.822   3.857   1.316 -0.5268 -0.1634 -0.5160
  177MOL   C16246274   5.754   3.638   1.348  0.4703 -0.4560  0.0353
  177MOL   C16346275   6.135   3.819   1.285  0.0120  0.5970 -0.0219
  177MOL   H16446276   6.110   3.695   1.099  1.5600  0.3625  2.3564
  177MOL   H16546277   5.953   3.592   1.194 -0.4107  0.0446  2.7502
  177MOL   H16646278   5.782   3.534   1.331 -2.8690 -1.0582 -2.4261
  177MOL   H16746279   5.734   3.658   1.453 -0.4067 -0.9337 -0.0366
  177MOL   H16846280   5.658   3.650   1.297  0.1685 -1.6023  0.3140
  177MOL   H16946281   6.085   3.907   1.325 -0.4903 -0.1366  0.9717
  177MOL   H17046282   6.145   3.745   1.364  0.5282  1.4720  0.7410
  177MOL   C17146283   6.285   3.862   1.256  0.1978  0.6287  0.1448
  177MOL   N17246284   6.379   3.752   1.235  0.2591 -0.1805  0.3247
  177MOL   C17346285   6.506   3.762   1.192  0.2426  0.9051 -0.3958
  177MOL   O17446286   6.560   3.863   1.147  0.3489  0.0954 -0.2561
  177MOL   C17546287   6.579   3.631   1.194  0.2066  0.3707  0.1192
  177MOL   C17646288   6.339   3.967   1.356  0.2481 -0.0185  0.2018
  177MOL   H17746289   6.267   3.909   1.160  1.2708 -3.6995 -2.3081
  177MOL   H17846290   6.355   3.658   1.260  0.7289 -0.8937 -1.8083
  177MOL   H17946291   6.535   3.544   1.144 -1.5770  1.3000  0.0546
  177MOL   H18046292   6.681   3.658   1.168 -0.0849 -0.2179 -1.6669
  177MOL   H18146293   6.575   3.604   1.300 -4.5140  0.2781  0.0108
  177MOL   H18246294   6.262   3.972   1.433  0.6084  1.5244  0.4906
  177MOL   H18346295   6.431   3.933   1.403  0.4697  0.3623  0.0458
  177MOL   C18446296   6.357   4.113   1.303 -0.6130  0.1224 -0.2391
  177MOL   N18546297   6.431   4.097   1.184  0.2052 -0.2945 -0.3815
  177MOL   C18646298   6.439   4.176   1.080  0.2097 -0.3481  1.3766
  177MOL   O18746299   6.388   4.286   1.084 -0.0534  0.1944  0.4917
  177MOL   C18846300   6.509   4.132   0.952  0.6950  0.1955 -0.3315
  177MOL   C18946301   6.429   4.212   1.402 -0.0903 -0.4197  0.3449
  177MOL   H19046302   6.261   4.159   1.279 -0.4241  0.6774  0.0792
  177MOL   H19146303   6.468   4.006   1.162 -2.0439 -0.7315 -2.6396
  177MOL   H19246304   6.530   4.025   0.954  1.0048  0.2595 -0.0532
  177MOL   H19346305   6.445   4.148   0.865  0.9622 -0.4035 -0.6427
  177MOL   H19446306   6.604   4.185   0.940  1.4191 -0.5368  1.9303
  177MOL   H19546307   6.508   4.166   1.463  0.2504  2.6755  2.3583
  177MOL   H19646308   6.482   4.286   1.343 -1.4896  2.4624  2.5503
  177MOL   C19746309   6.325   4.290   1.491  0.0685 -0.3635 -0.2291
  177MOL   N19846310   6.319   4.433   1.451  0.6330 -0.1679 -0.4853
  177MOL   C19946311   6.213   4.492   1.400 -0.1127 -0.4428 -0.5092
  177MOL   O20046312   6.099   4.451   1.400  0.1894  0.3165  0.2894
  177MOL   C20146313   6.245   4.619   1.321  0.5431  0.2395 -0.0855
  177MOL   C20246314   6.329   4.276   1.646  0.9374  0.1342 -0.2626
  177MOL   H20346315   6.228   4.249   1.461  0.0898 -0.0221 -0.7842
  177MOL   H20446316   6.409   4.477   1.442  2.2547 -3.0545  0.6646
  177MOL   H20546317   6.178   4.630   1.235 -0.2928  0.1139  0.5473
  177MOL   H20646318   6.234   4.701   1.391 -0.7651  0.1875 -0.2118
  177MOL   H20746319   6.346   4.615   1.280  0.7336  0.6524  0.3425
  177MOL   H20846320   6.429   4.303   1.680  1.2027  0.8622 -1.6139
  177MOL   H20946321   6.254   4.344   1.688 -1.6139 -1.8162 -1.5031
  177MOL   C21046322   6.316   4.136   1.707 -0.3374  0.6843 -0.5866
  177MOL   N21146323   6.179   4.108   1.695 -0.1382  0.0425  0.9497
  177MOL   C21246324   6.105   3.999   1.688 -0.4751  0.5132  1.0791
  177MOL   O21346325   6.163   3.888   1.669 -0.3133 -0.4738 -0.0711
  177MOL   C21446326   5.956   4.016   1.703 -0.1021  0.0231 -0.7515
  177MOL   C21546327   6.360   4.123   1.859  0.5307 -0.8156  0.4309
  177MOL   H21646328   6.369   4.064   1.645 -0.3442  0.3511 -0.2062
  177MOL   H21746329   6.117   4.188   1.695 -0.3971  0.0256 -4.3559
  177MOL   H21846330   5.913   3.978   1.796 -0.3759 -1.3899 -1.4383
  177MOL   H21946331   5.929   4.122   1.704  0.7925  0.2579 -0.7603
  177MOL   H22046332   5.904   3.978   1.616  1.6042  1.3020 -2.3671
  177MOL   H22146333   6.298   4.185   1.924  0.1773 -2.5651  1.7933
  177MOL   H22246334   6.341   4.018   1.884  1.6083 -1.2286 -0.4171
  177MOL   C22346335   6.513   4.145   1.881 -0.4059  0.6882 -0.5944
  177MOL   N22446336   6.595   4.051   1.798 -0.0824  0.3758 -0.1593
  177MOL   C22546337   6.594   3.918   1.803 -0.0723  0.0021  0.0137
  177MOL   O22646338   6.525   3.851   1.880 -0.3290 -0.5485 -0.0775
  177MOL   C22746339   6.703   3.843   1.724 -0.2856  0.4514 -0.5914
  177MOL   C22846340   6.567   4.152   2.022 -0.5703  0.2360  0.1693
  177MOL   H22946341   6.537   4.244   1.844  3.2892 -0.0066 -0.2600
  177MOL   H23046342   6.675   4.096   1.754  1.7611 -1.6412  1.0520
  177MOL   H23146343   6.803   3.883   1.738 -0.0814  0.6442 -2.4846
  177MOL   H23246344   6.704   3.746   1.774 -1.4331  1.4602  1.4724
  177MOL   H23346345   6.682   3.836   1.617  2.0683  0.2386 -1.0479
  177MOL   H23446346   6.566   4.049   2.059 -2.5253  0.5310  1.0130
  177MOL   H23546347   6.668   4.194   2.025 -1.1429  1.7319 -1.0429
  177MOL   C23646348   6.493   4.234   2.129  0.0447 -0.1129 -0.0114
  177MOL   N23746349   6.449   4.363   2.070  0.0644  0.5495 -0.0378
  177MOL   C23846350   6.345   4.426   2.120  0.6213 -0.2713  0.4399
  177MOL   O23946351   6.275   4.380   2.205  0.0992  0.0632  0.1230
  177MOL   C24046352   6.313   4.559   2.064  0.5405  0.5928 -0.1864
  177MOL   C24146353   6.589   4.279   2.246 -0.0455  0.1215  0.2690
  177MOL   H24246354   6.406   4.178   2.162  0.0784  0.2743  0.7482
  177MOL   H24346355   6.507   4.396   1.994 -1.7428  0.4024 -1.5239
  177MOL   H24446356   6.297   4.551   1.957 -0.3036 -0.2931  0.0030
  177MOL   H24546357   6.227   4.602   2.116 -0.7848 -1.2573 -0.8421
  177MOL   H24646358   6.399   4.624   2.084 -0.8108  2.0691  1.0207
  177MOL   H24746359   6.687   4.305   2.205 -0.7598  0.1916 -1.4187
  177MOL   H24846360   6.549   4.362   2.304 -1.8935 -0.6402  0.1222
  177MOL   C24946361   6.628   4.167   2.350 -0.6055 -0.2923 -0.0603
  177MOL   N25046362   6.505   4.107   2.406  0.7066 -0.3919  0.3809
  177MOL   C25146363   6.472   3.975   2.401 -0.4895  0.1535  0.7683
  177MOL   O25246364   6.546   3.888   2.362 -0.4218 -0.0900  0.4139
  177MOL   C25346365   6.331   3.947   2.446  0.0006  0.8873 -0.1462
  177MOL   C25446366   6.702   4.232   2.463 -0.7010 -0.6712 -1.2613
  177MOL   H25546367   6.693   4.092   2.305  0.2856 -1.1068  2.4858
  177MOL   H25646368   6.439   4.175   2.442 -0.6806  0.0604 -2.8055
  177MOL   H25746369   6.333   3.952   2.555  1.1712 -0.0372 -0.1044
  177MOL   H25846370   6.253   4.006   2.399 -3.0621 -0.9022  2.4436
  177MOL   H25946371   6.310   3.842   2.426 -2.1154  1.4233 -0.8801
  177MOL   H26046372   6.768   4.310   2.425  0.1222 -1.7970 -2.1880
  177MOL   H26146373   6.642   4.276   2.543 -0.4151 -0.5281 -1.1229
  177MOL   H26246374   6.763   4.160   2.518  0.0757  2.2498  1.9062
  178MOL     C146375   0.124   4.461   5.592 -0.0750  0.5351 -0.0240
  178MOL     N246376   0.268   4.427   5.612  0.7249 -0.1845  0.7599
  178MOL     C346377   0.336   4.356   5.527  0.7340  0.3144 -0.9524
  178MOL     O446378   0.284   4.321   5.421 -0.0058 -0.5733  0.0949
  178MOL     C546379   0.479   4.331   5.556 -0.3024 -0.1864  0.1934
  178MOL     C646380   0.112   4.614   5.560 -0.1215 -0.1615  0.5466
  178MOL     H746381   0.070   4.400   5.519 -0.0783 -1.8321  1.9052
  178MOL     H846382   0.308   4.456   5.700  2.6149 -2.4134  0.6744
  178MOL     H946383   0.530   4.288   5.470  0.8455  0.9022  0.3209
  178MOL    H1046384   0.531   4.419   5.592  2.9964 -1.6794 -0.7683
  178MOL    H1146385   0.499   4.255   5.632  0.0569 -2.5952 -2.2460
  178MOL    H1246386   0.171   4.668   5.634 -0.8490  1.1900  0.1426
  178MOL    H1346387   0.167   4.625   5.467  0.2064 -0.6735  0.6763
  178MOL    H1446388   0.066   4.427   5.678 -0.4464  1.6095  0.1576
  178MOL    C1546389   7.801   4.656   5.560  0.1502  0.6027  0.3471
  178MOL    N1646390   7.728   4.586   5.454 -0.1414  0.3369 -0.4447
  178MOL    C1746391   7.617   4.515   5.467  0.5685 -0.2468  0.7420
  178MOL    O1846392   7.581   4.464   5.570  0.2149 -0.1297 -0.0560
  178MOL    C1946393   7.531   4.484   5.342  0.9180 -0.5328 -0.4296
  178MOL    C2046394   7.760   4.806   5.553 -0.2695 -0.0105  0.3785
  178MOL    H2146395   7.765   4.627   5.658 -0.2764  1.4147  0.4398
  178MOL    H2246396   7.755   4.620   5.363  0.6401  2.3000  0.4927
  178MOL    H2346397   7.434   4.532   5.336  1.6847  1.5029  2.4282
  178MOL    H2446398   7.582   4.497   5.247  1.9180 -1.1346  0.0144
  178MOL    H2546399   7.509   4.377   5.339  1.1873 -0.5666 -1.4222
  178MOL    H2646400   7.815   4.857   5.632 -0.2926  2.5853 -1.2453
  178MOL    H2746401   7.806   4.857   5.469  1.4651 -0.9767  0.7232
  178MOL    C2846402   7.616   4.854   5.586 -0.3928  0.4761  0.1252
  178MOL    N2946403   7.559   4.758   5.686 -0.7284  0.1403 -0.6112
  178MOL    C3046404   7.525   4.776   5.816 -0.6078 -0.2248 -0.2802
  178MOL    O3146405   7.524   4.891   5.869  0.1724 -0.0540 -0.2927
  178MOL    C3246406   7.466   4.661   5.893 -0.0285 -0.3295 -0.1266
  178MOL    C3346407   7.528   4.865   5.460 -0.1798 -0.0342 -0.0369
  178MOL    H3446408   7.612   4.954   5.629 -1.9583 -0.1096  1.3942
  178MOL    H3546409   7.545   4.668   5.642 -0.5933 -0.5581  0.7753
  178MOL    H3646410   7.363   4.677   5.925  0.4371  2.1936  0.2077
  178MOL    H3746411   7.482   4.562   5.851 -1.1928 -1.0664  1.1218
  178MOL    H3846412   7.525   4.664   5.985 -0.6302 -0.8683  0.2823
  178MOL    H3946413   7.525   4.762   5.423  0.1253 -0.0284 -0.0795
  178MOL    H4046414   7.427   4.878   5.499  1.5407  2.4366  3.8984
  178MOL    C4146415   7.587   4.951   5.339 -0.1536 -0.4526 -0.4292
  178MOL    N4246416   7.571   5.098   5.361 -0.0560 -0.6202 -0.6263
  178MOL    C4346417   7.674   5.176   5.394  0.2927  0.4364  0.0389
  178MOL    O4446418   7.780   5.129   5.439 -0.1834  0.2492 -0.3618
  178MOL    C4546419   7.655   5.323   5.379 -0.1975  0.5276  0.0204
  178MOL    C4646420   7.515   4.908   5.204 -0.0231 -0.7734 -0.7602
  178MOL    H4746421   7.691   4.929   5.311  0.9600  0.6950  2.6104
  178MOL    H4846422   7.483   5.141   5.334 -0.5667 -2.0765 -1.3255
  178MOL    H4946423   7.740   5.365   5.325 -0.0593  0.1439 -0.0608
  178MOL    H5046424   7.559   5.342   5.332 -1.4040 -0.8160  1.8992
  178MOL    H5146425   7.663   5.382   5.471 -1.7645  0.7950 -0.0027
  178MOL    H5246426   7.531   4.802   5.181 -1.7380 -0.8681 -1.6230
  178MOL    H5346427   7.406   4.914   5.199 -0.1024  0.0745  1.6210
  178MOL    C5446428   7.552   4.991   5.079  1.0442 -0.1822 -0.8470
  178MOL    N5546429   7.459   5.104   5.076  0.7361  0.1712  0.4028
  178MOL    C5646430   7.451   5.198   4.973  0.1127 -0.3775 -0.1014
  178MOL    O5746431   7.521   5.210   4.874 -0.1232  0.0565  0.0120
  178MOL    C5846432   7.332   5.282   4.994  0.3338  0.0203 -0.6017
  178MOL    C5946433   7.559   4.907   4.949  0.0346 -0.1369  0.3177
  178MOL    H6046434   7.650   5.031   5.103  0.4237  0.1494  1.2853
  178MOL    H6146435   7.396   5.114   5.155  0.1322 -0.3651 -0.0128
  178MOL    H6246436   7.322   5.356   4.915 -1.2588 -0.6207 -1.0292
  178MOL    H6346437   7.242   5.220   4.998 -0.0891  0.5745 -1.3993
  178MOL    H6446438   7.348   5.342   5.084  2.0405 -1.8552  0.3753
  178MOL    H6546439   7.457   4.873   4.930  0.6124 -2.7882  1.8370
  178MOL    H6646440   7.586   4.966   4.861 -1.4034 -2.3019 -1.6348
  178MOL    C6746441   7.654   4.793   4.932  0.6456 -0.7961  0.6423
  178MOL    N6846442   7.783   4.825   4.983 -0.3754  0.0037  0.4814
  178MOL    C6946443   7.828   4.782   5.106 -0.2388  0.4265  0.4253
  178MOL    O7046444   7.774   4.688   5.174 -0.3422 -0.3318  0.1003
  178MOL    C7146445   0.112   4.842   5.159 -0.1176 -0.0547  0.0427
  178MOL    C7246446   7.666   4.748   4.791  0.1221  0.1299  0.3221
  178MOL    H7346447   7.627   4.700   4.983  0.7575 -0.9690  0.3885
  178MOL    H7446448   7.823   4.905   4.936  0.4720 -0.3965  0.5098
  178MOL    H7546449   0.190   4.831   5.083  0.3148  0.2538  0.4385
  178MOL    H7646450   0.103   4.948   5.182 -0.4048 -0.3926  1.5215
  178MOL    H7746451   0.136   4.797   5.256 -0.7345 -2.5940 -0.9425
  178MOL    H7846452   7.718   4.818   4.725 -0.4195 -0.6730 -0.9693
  178MOL    H7946453   7.729   4.658   4.790  1.1478  0.8400 -1.0132
  178MOL    C8046454   7.533   4.701   4.710  0.7332 -0.2510 -0.6608
  178MOL    N8146455   7.459   4.618   4.802 -0.0241 -0.1425  0.1192
  178MOL    C8246456   7.339   4.640   4.863 -0.4422  0.4670  0.4110
  178MOL    O8346457   7.253   4.723   4.824  0.2344 -0.1768 -0.2657
  178MOL    C8446458   7.311   4.552   4.986  0.4836  0.1137 -0.3122
  178MOL    C8546459   7.572   4.641   4.571  0.1153  0.2781 -0.4553
  178MOL    H8646460   7.473   4.791   4.696  0.9472  0.1972  1.1118
  178MOL    H8746461   7.509   4.538   4.836  2.5468  1.0744 -0.6240
  178MOL    H8846462   7.399   4.546   5.051  0.0133 -0.1225  0.3153
  178MOL    H8946463   7.231   4.596   5.046 -0.2506  0.6881 -1.7087
  178MOL    H9046464   7.275   4.455   4.951 -1.6583  0.2239  1.4365
  178MOL    H9146465   7.621   4.544   4.584  1.0159  0.5048 -2.0343
  178MOL    H9246466   7.476   4.614   4.527 -0.4194  0.1481  0.7743
  178MOL    C9346467   7.646   4.728   4.472  0.3337  0.3002 -0.2385
  178MOL    N9446468   7.547   4.797   4.380 -0.4522  0.3767 -0.3988
  178MOL    C9546469   7.557   4.927   4.356  0.0834  0.3962  0.4915
  178MOL    O9646470   7.636   4.999   4.411  0.1363 -0.6492  0.3870
  178MOL    C9746471   7.469   4.989   4.244  0.4210 -0.5822  0.3801
  178MOL    C9846472   7.745   4.653   4.383 -0.7938  0.0681 -0.7304
  178MOL    H9946473   7.707   4.807   4.516  0.0329  0.9478 -0.9722
  178MOL   H10046474   7.479   4.746   4.327 -0.4234 -1.2612  1.0926
  178MOL   H10146475   7.394   4.931   4.191 -0.2653 -0.2234  0.9503
  178MOL   H10246476   7.423   5.082   4.279  1.5270 -0.2511  0.9701
  178MOL   H10346477   7.535   5.036   4.172 -0.2887  0.4339  0.3817
  178MOL   H10446478   7.674   4.577   4.352  0.4129 -0.5576 -1.9908
  178MOL   H10546479   7.770   4.710   4.293  2.5054  0.4148  0.3422
  178MOL   C10646480   0.027   4.585   4.449 -0.2339  0.4605  0.1940
  178MOL   N10746481   0.125   4.685   4.499  0.3519 -0.4058  0.3604
  178MOL   C10846482   0.179   4.685   4.622 -0.6417 -0.5107  0.5620
  178MOL   O10946483   0.150   4.609   4.712 -0.4063  0.3865  0.0789
  178MOL   C11046484   0.284   4.794   4.652 -0.8609  0.1280 -0.0798
  178MOL   C11146485   0.108   4.499   4.341 -0.7381  0.3381  0.4750
  178MOL   H11246486   7.831   4.526   4.534 -2.9501  0.9056 -0.6058
  178MOL   H11346487   0.167   4.757   4.443 -0.8321  0.4568  0.5681
  178MOL   H11446488   0.328   4.792   4.752  0.3234 -2.3020 -0.6008
  178MOL   H11546489   0.366   4.797   4.580 -1.7268 -0.2521 -1.0867
  178MOL   H11646490   0.239   4.892   4.636  0.6736  0.9285  0.3960
  178MOL   H11746491   0.118   4.561   4.252  1.3921  1.6766  1.6180
  178MOL   H11846492   0.209   4.478   4.376  0.1573 -0.2223 -2.3450
  178MOL   C11946493   0.044   4.355   4.320 -0.1181  0.7302  0.0097
  178MOL   N12046494   0.085   4.275   4.439  0.8583 -0.2589  0.1547
  178MOL   C12146495   7.834   4.239   4.534 -0.0821 -0.0277 -0.0839
  178MOL   O12246496   7.717   4.277   4.548  0.5929 -0.5801  0.4362
  178MOL   C12346497   0.045   4.136   4.636  0.2658  0.0789  0.6583
  178MOL   C12446498   0.087   4.291   4.182 -0.2401  0.5141 -0.9557
  178MOL   H12546499   7.776   4.360   4.308  0.2594  3.8129 -2.9190
  178MOL   H12646500   0.183   4.248   4.446  1.5755  2.2805  0.2843
  178MOL   H12746501   0.004   4.167   4.732  1.2634 -0.7481  1.3668
  178MOL   H12846502   0.011   4.036   4.608  2.5250 -0.6789  0.4554
  178MOL   H12946503   0.154   4.129   4.636  0.3615  1.2035 -0.9874
  178MOL   H13046504   0.196   4.279   4.177 -0.0157  0.8633  2.0952
  178MOL   H13146505   0.063   4.185   4.175  2.3792 -0.3085  1.5994
  178MOL   C13246506   0.048   4.375   4.059 -0.3058 -0.5266 -0.2498
  178MOL   N13346507   0.021   4.283   3.947  0.7058  0.2973 -0.2380
  178MOL   C13446508   7.752   4.199   3.957 -0.7002  0.9390 -0.2169
  178MOL   O13546509   7.672   4.193   4.052 -0.6975  0.3650 -0.3817
  178MOL   C13646510   7.717   4.106   3.841 -0.8807  0.0875  0.3302
  178MOL   C13746511   0.165   4.468   4.015 -0.9122 -0.0977  0.0756
  178MOL   H13846512   7.797   4.429   4.085 -0.4464 -0.4115 -0.9765
  178MOL   H13946513   0.082   4.286   3.867  0.4000 -0.8123 -0.5279
  178MOL   H14046514   7.780   4.017   3.848  2.1531  1.9234 -2.4969
  178MOL   H14146515   7.610   4.085   3.842 -0.3976 -2.5804  1.1780
  178MOL   H14246516   7.739   4.152   3.745  1.1490  0.6863  1.0533
  178MOL   H14346517   0.231   4.486   4.100 -1.2701  0.0198  0.3289
  178MOL   H14446518   0.241   4.414   3.959  2.7381  2.3810  2.3416
  178MOL   C14546519   0.124   4.602   3.943 -0.0336 -0.5744 -0.2934
  178MOL   N14646520   0.069   4.564   3.816  0.3444 -0.3143 -0.1599
  178MOL   C14746521   0.000   4.636   3.729  0.1547  0.2410  0.4785
  178MOL   O14846522   7.822   4.756   3.753  0.4979  0.4110  0.1149
  178MOL   C14946523   7.785   4.570   3.597 -0.2519 -0.2821  0.1621
  178MOL   C15046524   0.236   4.702   3.921 -0.1794  0.3331 -0.4866
  178MOL   H15146525   0.050   4.657   4.002  0.4654  0.5988 -0.7578
  178MOL   H15246526   0.094   4.473   3.778 -0.4534 -0.9002  0.7038
  178MOL   H15346527   0.003   4.590   3.506  2.4997  1.4326  2.2092
  178MOL   H15446528   7.773   4.462   3.608 -2.9030  0.0562  0.7534
  178MOL   H15546529   7.686   4.613   3.583  0.7506  1.1335 -3.1951
  178MOL   H15646530   0.314   4.642   3.874  0.0212  0.7202 -0.6480
  178MOL   H15746531   0.209   4.787   3.857 -0.2289  0.1662 -0.6874
  178MOL   C15846532   0.294   4.764   4.048 -0.0274  0.3424  0.1682
  178MOL   N15946533   0.199   4.864   4.106  0.6299 -0.0068  0.1961
  178MOL   C16046534   0.202   4.892   4.238  0.3959 -0.0535 -0.3146
  178MOL   O16146535   0.278   4.850   4.323 -1.0126 -0.3342 -0.2942
  178MOL   C16246536   0.093   4.984   4.290 -0.7936 -0.3516 -0.1916
  178MOL   C16346537   0.424   4.847   4.019  0.8500 -0.0006 -0.2421
  178MOL   H16446538   0.311   4.693   4.129  1.1919  0.1375 -0.2613
  178MOL   H16546539   0.128   4.914   4.053  0.1266 -0.3786  0.5182
  178MOL   H16646540   0.129   5.078   4.330  0.9158 -1.3435  0.6206
  178MOL   H16746541   0.015   5.000   4.215 -0.5714  0.5353 -0.2421
  178MOL   H16846542   0.060   4.929   4.378 -2.2639  0.5997 -0.1274
  178MOL   H16946543   0.379   4.906   3.939 -0.6915 -1.2106 -0.2952
  178MOL   H17046544   0.457   4.907   4.104 -0.6307 -1.9283  1.7592
  178MOL   C17146545   0.544   4.763   3.970  0.4153 -0.1807 -0.3726
  178MOL   N17246546   0.594   4.683   4.078  0.2836  0.2418 -0.6558
  178MOL   C17346547   0.555   4.553   4.101 -0.1204  0.3974  0.5268
  178MOL   O17446548   0.474   4.493   4.034  0.3755  0.9040  0.3420
  178MOL   C17546549   0.623   4.479   4.222 -0.2290  0.8036  0.2585
  178MOL   C17646550   0.659   4.856   3.918 -0.0620  0.5565 -0.8607
  178MOL   H17746551   0.514   4.689   3.895  1.4771 -0.9652 -0.0257
  178MOL   H17846552   0.677   4.710   4.129 -1.3161  0.1483  2.0506
  178MOL   H17946553   0.625   4.553   4.302  0.1894  0.5063  0.5196
  178MOL   H18046554   0.563   4.390   4.242  0.7567  0.3710  1.3215
  178MOL   H18146555   0.724   4.447   4.195 -0.9311 -0.0177 -1.4827
  178MOL   H18246556   0.678   4.928   3.998 -1.9445 -0.8155  0.8457
  178MOL   H18346557   0.742   4.790   3.892 -0.1516  0.2342 -0.3217
  178MOL   C18446558   0.622   4.924   3.790  0.6826 -0.2613  0.8863
  178MOL   N18546559   0.588   4.833   3.679 -0.4916 -0.0745  0.1057
  178MOL   C18646560   0.497   4.846   3.579 -0.3935  0.3836  0.3169
  178MOL   O18746561   0.424   4.945   3.571  0.1961  0.0149  0.5186
  178MOL   C18846562   0.487   4.736   3.475  0.5835  0.3489  0.2784
  178MOL   C18946563   0.737   5.016   3.746  0.4215 -0.2599 -0.6445
  178MOL   H19046564   0.531   4.983   3.805  0.7379 -0.6545  2.9494
  178MOL   H19146565   0.632   4.742   3.677  1.6076  0.9093 -1.5745
  178MOL   H19246566   0.574   4.727   3.410  1.3888 -0.4524  1.4488
  178MOL   H19346567   0.475   4.645   3.532  2.3216  1.0935  1.8884
  178MOL   H19446568   0.407   4.756   3.403  0.5366 -0.2423  0.1647
  178MOL   H19546569   0.694   5.097   3.687 -1.0542 -1.0907 -0.7437
  178MOL   H19646570   0.779   5.068   3.832  3.8318 -3.1991 -0.4131
  178MOL   C19746571   0.853   4.966   3.676  0.0773  0.5021 -0.2191
  178MOL   N19846572   0.930   4.881   3.759  0.1713  0.2475 -0.5711
  178MOL   C19946573   1.017   4.916   3.853  0.3593  0.2849 -0.6310
  178MOL   O20046574   1.013   5.015   3.920  0.4122  0.5948 -0.1492
  178MOL   C20146575   1.138   4.828   3.885 -0.4278  0.1872 -0.1605
  178MOL   C20246576   0.941   5.072   3.606 -1.3450  0.8879 -0.1720
  178MOL   H20346577   0.816   4.901   3.597  1.5277 -2.4057  1.3944
  178MOL   H20446578   0.931   4.788   3.721  0.5451 -0.6219  1.4754
  178MOL   H20546579   1.115   4.722   3.879  1.0681 -0.1490 -0.1324
  178MOL   H20646580   1.217   4.860   3.818 -0.9860  1.4900 -0.2314
  178MOL   H20746581   1.170   4.843   3.988  0.8625 -1.4517 -0.3018
  178MOL   H20846582   0.963   5.150   3.678 -0.2085  1.6019 -1.2574
  178MOL   H20946583   1.040   5.036   3.578 -0.2426  2.1747  1.9025
  178MOL   C21046584   0.866   5.150   3.488 -0.2178  0.9578  0.3646
  178MOL   N21146585   0.826   5.055   3.379 -0.4238 -0.4498 -0.4917
  178MOL   C21246586   0.893   4.951   3.331  0.2281  0.0961 -0.6687
  178MOL   O21346587   1.010   4.928   3.358 -0.9843  0.1403 -0.1040
  178MOL   C21446588   0.826   4.860   3.236 -1.2970 -0.3319 -0.1885
  178MOL   C21546589   0.952   5.261   3.431 -0.0166  0.4300 -0.6347
  178MOL   H21646590   0.772   5.193   3.524 -0.7107 -0.0097  0.2589
  178MOL   H21746591   0.740   5.074   3.329  0.3477 -0.2503 -1.7524
  178MOL   H21846592   0.898   4.786   3.201 -1.1510 -0.1377 -0.2990
  178MOL   H21946593   0.744   4.811   3.288 -0.8085  0.1091  1.0049
  178MOL   H22046594   0.809   4.913   3.142 -0.1769  0.4940  0.0644
  178MOL   H22146595   1.055   5.240   3.459 -0.0275 -0.8210 -1.4511
  178MOL   H22246596   0.948   5.249   3.323  1.1471 -1.6554 -0.4821
  178MOL   C22346597   0.916   5.405   3.474  0.1986  0.3276 -0.7810
  178MOL   N22446598   0.872   5.425   3.618 -0.0066 -0.0121 -0.4144
  178MOL   C22546599   0.951   5.426   3.725  0.1105  0.0745  0.1202
  178MOL   O22646600   1.061   5.375   3.725 -0.1680  0.8506  0.1916
  178MOL   C22746601   0.897   5.491   3.857  0.0804 -0.0478  0.8328
  178MOL   C22846602   0.824   5.491   3.381 -0.3564  0.5141  0.1678
  178MOL   H22946603   1.011   5.457   3.481  0.3386 -0.0339  0.2012
  178MOL   H23046604   0.788   5.478   3.635  0.1008 -0.3348  1.1356
  178MOL   H23146605   0.889   5.599   3.842  0.5628 -0.0110  0.8391
  178MOL   H23246606   0.796   5.458   3.880  0.2460  0.3852  2.2361
  178MOL   H23346607   0.962   5.482   3.944 -0.4645  1.1186  1.3743
  178MOL   H23446608   0.744   5.424   3.351  0.0677  0.7025 -1.4262
  178MOL   H23546609   0.775   5.580   3.421  0.6839  0.8617  0.6969
  178MOL   C23646610   0.902   5.547   3.252 -0.5365 -0.3192 -0.6827
  178MOL   N23746611   0.984   5.660   3.304  0.7861  0.7680 -0.0148
  178MOL   C23846612   1.112   5.679   3.278 -0.3308 -1.0922  0.0864
  178MOL   O23946613   1.182   5.603   3.213  0.4718 -0.4243  0.5115
  178MOL   C24046614   1.169   5.813   3.318 -0.8476 -0.3698 -0.1318
  178MOL   C24146615   0.817   5.607   3.134 -0.3521 -0.3801  0.0964
  178MOL   H24246616   0.965   5.467   3.214  0.8519  0.7041 -0.5787
  178MOL   H24346617   0.932   5.724   3.362  2.1077  0.2156  1.8363
  178MOL   H24446618   1.182   5.830   3.425 -0.6804  1.4665 -0.4172
  178MOL   H24546619   1.261   5.834   3.263 -1.1747 -2.5141 -1.5308
  178MOL   H24646620   1.099   5.888   3.280 -0.5844  0.9125  1.8671
  178MOL   H24746621   0.748   5.683   3.171  0.8812  0.9065 -0.1997
  178MOL   H24846622   0.884   5.652   3.061 -1.5661  1.7182  0.2343
  178MOL   C24946623   0.725   5.509   3.064  1.0401  1.0065  0.0209
  178MOL   N25046624   0.803   5.395   3.010  0.5354  0.8633 -0.6539
  178MOL   C25146625   0.788   5.264   3.044  0.0651  0.2216  0.2646
  178MOL   O25246626   0.693   5.218   3.106  0.1900  0.3135 -0.5967
  178MOL   C25346627   0.896   5.169   3.000  0.6035  0.2708 -0.1810
  178MOL   C25446628   0.645   5.581   2.953 -0.1930  0.0004  0.1963
  178MOL   H25546629   0.653   5.479   3.140  2.8050  0.8102  1.6394
  178MOL   H25646630   0.889   5.412   2.961  1.3946 -1.1301  0.1113
  178MOL   H25746631   0.975   5.163   3.074 -0.5820 -0.3431  1.0609
  178MOL   H25846632   0.854   5.069   2.999  0.5727  0.2840 -0.3405
  178MOL   H25946633   0.921   5.178   2.895  2.1798 -0.5058  0.1052
  178MOL   H26046634   0.580   5.658   2.996  0.6495  0.6613  0.3024
  178MOL   H26146635   0.713   5.616   2.876 -0.4823 -2.8507 -1.4118
  178MOL   H26246636   0.569   5.512   2.918  1.2830 -0.7706 -1.5576
  179MOL     C146637   5.589   5.258   4.186 -0.5045  0.5383 -0.0118
  179MOL     N246638   5.579   5.236   4.042  0.0303  0.4504 -0.4177
  179MOL     C346639   5.684   5.186   3.970  0.1931  0.0976  0.0669
  179MOL     O446640   5.788   5.138   4.020  0.1154 -0.3004 -0.1035
  179MOL     C546641   5.680   5.201   3.825 -0.2626  0.6611  0.8016
  179MOL     C646642   5.630   5.402   4.216  0.1201  0.6435  0.5000
  179MOL     H746643   5.498   5.232   4.240 -1.5404  2.1395 -0.9349
  179MOL     H846644   5.504   5.273   3.985 -2.3096 -1.7436  1.1054
  179MOL     H946645   5.701   5.108   3.772 -1.4107  0.4227  0.7645
  179MOL    H1046646   5.576   5.225   3.805 -0.4137 -0.5060  0.1768
  179MOL    H1146647   5.746   5.282   3.794 -1.4153  0.2603 -2.9459
  179MOL    H1246648   5.652   5.408   4.322 -0.9543  2.2729  0.6445
  179MOL    H1346649   5.717   5.434   4.158  0.0531 -0.7276 -0.3665
  179MOL    H1446650   5.667   5.191   4.223 -0.7158  0.3967  0.1792
  179MOL    C1546651   5.516   5.512   4.204  0.5730 -0.2081 -0.2682
  179MOL    N1646652   5.528   5.576   4.071  0.1052 -0.5233  0.4581
  179MOL    C1746653   5.462   5.550   3.959 -0.1490 -0.4564 -0.3545
  179MOL    O1846654   5.376   5.463   3.953 -0.3140 -0.5491  0.3488
  179MOL    C1946655   5.494   5.636   3.846  0.2878 -0.2643 -0.2308
  179MOL    C2046656   5.537   5.623   4.307  0.5127 -0.4407 -0.3992
  179MOL    H2146657   5.417   5.474   4.229  0.5141  0.4576  0.5391
  179MOL    H2246658   5.607   5.637   4.058 -0.7329  0.2149 -1.3902
  179MOL    H2346659   5.542   5.584   3.762  1.4681  0.8821 -0.2742
  179MOL    H2446660   5.398   5.679   3.817  0.5918  1.0865  0.7578
  179MOL    H2546661   5.557   5.720   3.876  1.4198 -0.6005 -1.5695
  179MOL    H2646662   5.642   5.636   4.335  0.4667  0.7856 -0.7481
  179MOL    H2746663   5.501   5.719   4.269 -1.8057 -0.7516  0.9264
  179MOL    C2846664   5.445   5.617   4.435 -0.3532  0.2568  0.8781
  179MOL    N2946665   5.477   5.735   4.523  0.2514  0.3923 -0.1114
  179MOL    C3046666   5.420   5.859   4.515 -0.5820  0.3331 -0.7556
  179MOL    O3146667   5.351   5.902   4.425  0.4345 -0.2994 -0.9076
  179MOL    C3246668   5.473   5.954   4.617  0.5643  0.5468  0.2595
  179MOL    C3346669   5.440   5.481   4.505  0.3126 -0.6834  0.5635
  179MOL    H3446670   5.345   5.633   4.394 -0.3868  2.0288  1.6328
  179MOL    H3546671   5.543   5.720   4.598  0.1657 -0.1644 -0.1405
  179MOL    H3646672   5.394   6.022   4.649 -0.5072 -0.6375  0.2055
  179MOL    H3746673   5.503   5.898   4.706  0.1207  0.5523  0.4163
  179MOL    H3846674   5.556   6.012   4.578 -0.2308 -0.9493 -3.9298
  179MOL    H3946675   5.415   5.409   4.427 -1.3427  0.4872 -0.0084
  179MOL    H4046676   5.546   5.469   4.530  0.1544  0.5508  1.9243
  179MOL    C4146677   5.344   5.476   4.616  0.7915  0.1848 -0.2224
  179MOL    N4246678   5.375   5.356   4.696  0.7590 -0.3864 -0.1428
  179MOL    C4346679   5.369   5.354   4.829 -0.6447 -0.6497  0.1063
  179MOL    O4446680   5.355   5.451   4.902  0.5324  0.6920  0.2387
  179MOL    C4546681   5.368   5.211   4.890  0.0637 -0.2757 -0.1306
  179MOL    C4646682   5.198   5.474   4.555  0.1951 -0.3199  0.0076
  179MOL    H4746683   5.353   5.568   4.673  2.3421 -0.2644  0.2891
  179MOL    H4846684   5.375   5.269   4.645  0.5205  0.3810 -1.4610
  179MOL    H4946685   5.426   5.210   4.982 -1.0775  0.5639  0.6220
  179MOL    H5046686   5.275   5.160   4.915 -1.7098  1.8367 -2.1222
  179MOL    H5146687   5.405   5.136   4.819  1.3485  1.2337 -1.1141
  179MOL    H5246688   5.172   5.565   4.501 -0.6560  0.7749  2.1882
  179MOL    H5346689   5.198   5.387   4.489 -0.1734  0.8602 -1.5711
  179MOL    C5446690   5.086   5.453   4.658 -0.0065  0.2096 -0.0514
  179MOL    N5546691   5.110   5.534   4.774 -0.3508  0.4021 -0.9147
  179MOL    C5646692   5.049   5.645   4.805 -0.1683  0.7906 -1.4256
  179MOL    O5746693   4.949   5.691   4.751  0.4944  0.2164 -0.2752
  179MOL    C5846694   5.118   5.723   4.918 -0.5525  0.7055 -0.3542
  179MOL    C5946695   5.052   5.308   4.700  0.2687  0.2520  0.1335
  179MOL    H6046696   4.995   5.481   4.604  0.1823 -0.6911 -0.8384
  179MOL    H6146697   5.185   5.501   4.833 -0.1709 -0.7438 -1.7783
  179MOL    H6246698   5.226   5.723   4.902 -0.0321  0.3555  2.7962
  179MOL    H6346699   5.086   5.823   4.946 -0.5326  1.1663 -1.9908
  179MOL    H6446700   5.099   5.656   5.002  0.1419 -1.3482 -1.7899
  179MOL    H6546701   5.130   5.233   4.685  1.8369  1.5638  1.6958
  179MOL    H6646702   5.021   5.311   4.804  1.3032  1.4562  0.4151
  179MOL    C6746703   4.948   5.243   4.609  0.1682 -0.2518 -1.0163
  179MOL    N6846704   4.937   5.097   4.633  0.0855  0.1714 -0.1324
  179MOL    C6946705   4.930   5.024   4.749  0.1790 -0.6375  0.1023
  179MOL    O7046706   4.924   5.082   4.855  0.6168 -0.2182 -0.2807
  179MOL    C7146707   4.948   4.878   4.745 -0.3983  0.2708 -0.2404
  179MOL    C7246708   4.969   5.247   4.458  0.2662  0.0179  0.2461
  179MOL    H7346709   4.855   5.298   4.624  1.2438  1.3775 -0.1565
  179MOL    H7446710   4.930   5.040   4.550 -0.4392  0.5515 -0.3566
  179MOL    H7546711   4.948   4.840   4.847  2.4741  0.8874  0.0400
  179MOL    H7646712   4.866   4.835   4.688  1.4461 -1.0064 -1.9774
  179MOL    H7746713   5.039   4.847   4.694  0.6985  0.9529  1.2669
  179MOL    H7846714   4.996   5.347   4.424  0.5618  0.2365  1.1143
  179MOL    H7946715   5.065   5.202   4.434  0.5467  1.4379 -1.4580
  179MOL    C8046716   4.857   5.194   4.366  0.0368 -0.5288  0.5259
  179MOL    N8146717   4.906   5.095   4.272  0.1416  0.6356 -0.0826
  179MOL    C8246718   4.891   4.962   4.287 -0.4978  0.1651 -0.8997
  179MOL    O8346719   4.857   4.901   4.387  0.3544  0.4642  0.1508
  179MOL    C8446720   4.948   4.885   4.166  0.0838  0.9278  0.6469
  179MOL    C8546721   4.778   5.304   4.287 -0.3597  0.3747 -0.0827
  179MOL    H8646722   4.786   5.146   4.433 -0.8138  0.8050  0.5945
  179MOL    H8746723   4.950   5.127   4.187 -1.1276 -0.2662 -1.1010
  179MOL    H8846724   4.976   4.785   4.200  1.4604 -0.0139 -3.0559
  179MOL    H8946725   4.883   4.861   4.082 -0.0672 -1.7107  1.4530
  179MOL    H9046726   5.044   4.921   4.129  0.4377 -0.1686  0.4708
  179MOL    H9146727   4.856   5.344   4.223  0.9043 -0.1783  1.0949
  179MOL    H9246728   4.704   5.253   4.225  0.3389 -0.7230 -0.0326
  179MOL    C9346729   4.708   5.413   4.371  0.5950  0.3146  0.2353
  179MOL    N9446730   4.581   5.357   4.402  0.5997  0.5206 -0.3906
  179MOL    C9546731   4.520   5.388   4.517  0.0414 -0.0304  0.1716
  179MOL    O9646732   4.565   5.470   4.594  0.1623  0.2383  0.1506
  179MOL    C9746733   4.390   5.316   4.544 -0.8643  0.1954 -0.1661
  179MOL    C9846734   4.680   5.536   4.287  0.9751  0.6594  0.0866
  179MOL    H9946735   4.764   5.435   4.461  0.5407 -0.8924  0.5728
  179MOL   H10046736   4.540   5.281   4.349  0.9987 -1.0695  1.4951
  179MOL   H10146737   4.347   5.368   4.630 -2.5623  0.3545 -1.0830
  179MOL   H10246738   4.324   5.344   4.463 -2.7943 -0.6248  1.0818
  179MOL   H10346739   4.397   5.208   4.556  0.9680  0.2017 -1.0940
  179MOL   H10446740   4.758   5.544   4.211 -0.9513  1.3004 -1.8923
  179MOL   H10546741   4.593   5.519   4.223  1.6235 -1.1483 -0.3332
  179MOL   C10646742   4.656   5.672   4.348 -0.1601 -0.0801  0.5951
  179MOL   N10746743   4.640   5.765   4.230 -0.5728  0.6516  0.4153
  179MOL   C10846744   4.531   5.847   4.211  0.0158  0.2703 -0.3431
  179MOL   O10946745   4.442   5.859   4.296 -0.3469  0.0024 -0.3631
  179MOL   C11046746   4.521   5.927   4.084  0.8576 -0.7876  0.0620
  179MOL   C11146747   4.769   5.717   4.442 -0.3945  0.4796 -0.0805
  179MOL   H11246748   4.558   5.670   4.396 -1.1386 -2.7243 -1.3685
  179MOL   H11346749   4.715   5.756   4.162 -2.5891  1.0632 -1.9205
  179MOL   H11446750   4.418   5.939   4.051  0.6808  0.8974  1.1595
  179MOL   H11546751   4.553   6.027   4.115  1.3327 -0.6485 -0.8529
  179MOL   H11646752   4.576   5.909   3.991 -0.0964 -0.8803 -0.4901
  179MOL   H11746753   4.800   5.636   4.509 -0.0180  1.3846  0.8449
  179MOL   H11846754   4.841   5.744   4.364 -0.0615  1.4644  0.5651
  179MOL   C11946755   4.727   5.832   4.531  0.2714 -0.6800  0.1394
  179MOL   N12046756   4.841   5.890   4.601 -0.4645 -0.4827 -0.2873
  179MOL   C12146757   4.888   6.016   4.600  0.0683 -0.6985 -0.6030
  179MOL   O12246758   4.826   6.110   4.549  0.9503 -0.2796  0.2882
  179MOL   C12346759   5.030   6.030   4.663  0.5782 -0.7423  0.7430
  179MOL   C12446760   4.615   5.787   4.631  0.0078  0.1967  0.5797
  179MOL   H12546761   4.682   5.911   4.470 -2.1118 -1.0454  1.3588
  179MOL   H12646762   4.891   5.822   4.656 -1.9081 -1.3078  0.0231
  179MOL   H12746763   5.045   5.976   4.757 -1.1508 -3.2359 -0.3687
  179MOL   H12846764   5.100   5.978   4.598  1.4265  0.3093  0.8054
  179MOL   H12946765   5.058   6.135   4.658 -0.4160 -0.4432  1.4042
  179MOL   H13046766   4.524   5.762   4.576  0.2479 -1.6805  0.9822
  179MOL   H13146767   4.637   5.692   4.680 -0.5250  0.3704  1.1635
  179MOL   C13246768   4.569   5.898   4.734 -0.4713  0.8441  0.6787
  179MOL   N13346769   4.640   5.870   4.853  0.2769 -0.1743  0.3001
  179MOL   C13446770   4.667   5.957   4.956 -0.0616  0.2257 -0.0985
  179MOL   O13546771   4.615   6.067   4.957 -0.1717  0.2208 -0.0502
  179MOL   C13646772   4.770   5.912   5.060  0.1647 -0.2975  0.0869
  179MOL   C13746773   4.414   5.904   4.749 -0.0430  0.4939 -0.4926
  179MOL   H13846774   4.600   5.989   4.684 -0.5349  0.6253  0.2375
  179MOL   H13946775   4.669   5.774   4.861 -0.0076 -0.2486  0.4641
  179MOL   H14046776   4.803   5.987   5.132 -0.4136 -0.0126  0.0516
  179MOL   H14146777   4.734   5.820   5.105  0.8733  0.8093  2.9996
  179MOL   H14246778   4.868   5.900   5.014  0.3445  0.9193  0.1172
  179MOL   H14346779   4.367   5.850   4.667 -2.0533 -0.2537  1.1156
  179MOL   H14446780   4.372   5.842   4.828 -1.0904 -1.9694 -2.8890
  179MOL   C14546781   4.354   6.046   4.753  0.0419 -0.4634 -0.5431
  179MOL   N14646782   4.205   6.036   4.767  0.3128 -0.1264  0.4603
  179MOL   C14746783   4.123   6.077   4.864  0.4438 -0.3711  0.2745
  179MOL   O14846784   4.163   6.131   4.966  0.3650  0.3427  0.4983
  179MOL   C14946785   3.976   6.061   4.848 -0.1554  0.0193  0.0270
  179MOL   C15046786   4.395   6.148   4.647 -0.2948  0.0600  0.2126
  179MOL   H15146787   4.375   6.085   4.852 -1.9255 -1.2667  0.2351
  179MOL   H15246788   4.155   5.982   4.697  2.1544  0.6364 -1.5211
  179MOL   H15346789   3.966   6.053   4.740 -0.2853 -1.0754  0.1144
  179MOL   H15446790   3.950   5.975   4.910 -0.4222 -0.2393 -0.4373
  179MOL   H15546791   3.924   6.151   4.879 -0.1437  0.5044 -1.3423
  179MOL   H15646792   4.340   6.241   4.660  1.1321  0.7274  1.7271
  179MOL   H15746793   4.499   6.169   4.672  0.3917  0.3723 -2.7269
  179MOL   C15846794   4.414   6.100   4.503 -0.3130 -0.2211  0.9731
  179MOL   N15946795   4.531   6.173   4.447 -0.0726 -0.3361 -0.2830
  179MOL   C16046796   4.545   6.298   4.413  0.0871 -0.6240 -0.3604
  179MOL   O16146797   4.461   6.384   4.412 -0.0141  0.1420 -0.2893
  179MOL   C16246798   4.694   6.325   4.371  1.4257 -0.0229 -0.0931
  179MOL   C16346799   4.284   6.123   4.416 -0.3166  0.2994  0.2425
  179MOL   H16446800   4.455   5.999   4.502  2.2385  0.7601 -1.2868
  179MOL   H16546801   4.623   6.135   4.459  0.6714  1.8349  1.2182
  179MOL   H16646802   4.707   6.416   4.312 -2.0350  0.8167  0.3616
  179MOL   H16746803   4.753   6.338   4.462 -0.7219  1.4268  1.1322
  179MOL   H16846804   4.736   6.245   4.311  1.0719 -1.3828  1.4543
  179MOL   H16946805   4.245   6.221   4.443  0.8917  0.2408  2.2509
  179MOL   H17046806   4.320   6.128   4.313 -1.7691  0.5729 -0.2620
  179MOL   C17146807   4.167   6.017   4.430  1.0375 -0.5052  0.5185
  179MOL   N17246808   4.219   5.885   4.450  0.2290  0.3214  0.0520
  179MOL   C17346809   4.157   5.789   4.522 -0.0106 -0.1435 -0.2869
  179MOL   O17446810   4.056   5.808   4.588  0.0290  0.1736 -0.3634
  179MOL   C17546811   4.207   5.645   4.508 -0.3200  0.3871 -0.4984
  179MOL   C17646812   4.078   6.012   4.301  0.0766  0.4349  0.1297
  179MOL   H17746813   4.113   6.052   4.518  1.1089 -1.4127  0.9321
  179MOL   H17846814   4.285   5.856   4.379 -2.6192  0.1824 -2.6547
  179MOL   H17946815   4.115   5.587   4.520 -0.3340  0.3753 -0.6570
  179MOL   H18046816   4.260   5.634   4.413  0.7746  1.2712  0.0016
  179MOL   H18146817   4.275   5.606   4.583  0.6945  0.2033 -1.4996
  179MOL   H18246818   4.156   5.993   4.226  0.2422  1.6966 -0.0193
  179MOL   H18346819   4.015   5.923   4.299  0.8096 -0.1257  1.3015
  179MOL   C18446820   3.995   6.146   4.279  0.6584  0.6535 -0.1571
  179MOL   N18546821   3.879   6.137   4.378  0.2133 -0.4686  0.3665
  179MOL   C18646822   3.865   6.197   4.499 -0.3528 -1.0064 -0.7599
  179MOL   O18746823   3.951   6.250   4.561 -0.1897 -0.0176  0.1570
  179MOL   C18846824   3.728   6.204   4.557  0.2293 -0.4516  0.4208
  179MOL   C18946825   3.941   6.174   4.135  0.0547 -0.2016 -0.1881
  179MOL   H19046826   4.055   6.231   4.309 -1.3880  2.1944 -0.2736
  179MOL   H19146827   3.800   6.078   4.355  0.1798 -0.2301 -0.1484
  179MOL   H19246828   3.754   6.202   4.663 -0.1857  1.4610  0.5791
  179MOL   H19346829   3.685   6.302   4.537  0.0376 -1.0699 -2.4102
  179MOL   H19446830   3.662   6.126   4.518 -1.2367  1.7477 -1.6744
  179MOL   H19546831   4.021   6.160   4.062  0.0810  0.5485 -0.3075
  179MOL   H19646832   3.873   6.095   4.105  1.4222 -1.1894 -0.7592
  179MOL   C19746833   3.867   6.306   4.115  0.8004 -0.6485 -0.3030
  179MOL   N19846834   3.819   6.316   3.979  0.7575 -0.1680  0.5530
  179MOL   C19946835   3.690   6.310   3.944 -0.2001 -0.2039  0.7510
  179MOL   O20046836   3.600   6.278   4.018  0.6456 -0.0867  0.1684
  179MOL   C20146837   3.660   6.332   3.798  0.9819 -0.1751 -0.2160
  179MOL   C20246838   3.955   6.424   4.172  0.7879  0.2281  0.6683
  179MOL   H20346839   3.780   6.319   4.179  0.7126 -1.6647 -0.2118
  179MOL   H20446840   3.883   6.321   3.901 -0.1613 -3.4788 -0.4869
  179MOL   H20546841   3.552   6.332   3.791  1.0686  1.1994 -1.8538
  179MOL   H20646842   3.698   6.427   3.760  0.1658  0.1785 -0.1455
  179MOL   H20746843   3.692   6.251   3.732  0.2171  0.8193 -1.8324
  179MOL   H20846844   3.971   6.414   4.279 -0.3272 -0.1872  0.8053
  179MOL   H20946845   4.056   6.412   4.131  0.6455 -1.1158  0.6743
  179MOL   C21046846   3.913   6.570   4.136 -0.4731  0.3844  0.1049
  179MOL   N21146847   3.773   6.593   4.182 -1.1508  0.7842 -0.0895
  179MOL   C21246848   3.722   6.640   4.298 -0.2377 -0.2780 -0.2806
  179MOL   O21346849   3.795   6.687   4.385 -0.6003  0.5407  0.1225
  179MOL   C21446850   3.573   6.658   4.321 -0.0300 -0.0179 -0.4122
  179MOL   C21546851   3.935   6.596   3.984 -0.2366 -0.6151  0.0314
  179MOL   H21646852   3.988   6.631   4.187 -0.9833  0.7065  0.4772
  179MOL   H21746853   3.704   6.566   4.113 -1.4025  2.0051 -0.3208
  179MOL   H21846854   3.564   6.759   4.362 -1.5328 -1.0646  1.9336
  179MOL   H21946855   3.518   6.652   4.227 -1.9251  0.0183  0.6733
  179MOL   H22046856   3.539   6.585   4.395  0.3094  0.8335  0.5981
  179MOL   H22146857   4.026   6.542   3.958  0.1434  0.3922 -0.7470
  179MOL   H22246858   3.860   6.563   3.912 -1.3623 -0.8199  1.2637
  179MOL   C22346859   3.963   6.743   3.960  0.1556 -0.7529  1.4980
  179MOL   N22446860   3.859   6.831   4.015  0.1035  0.1991 -0.6373
  179MOL   C22546861   3.733   6.840   3.974  0.1656  0.3374  0.0749
  179MOL   O22646862   3.684   6.770   3.874 -0.3812 -0.6378  0.1494
  179MOL   C22746863   3.645   6.936   4.047  0.4347 -0.0653  0.5610
  179MOL   C22846864   3.997   6.788   3.814 -1.0032  0.0115  0.2685
  179MOL   H22946865   4.048   6.774   4.020 -0.0015  1.9055  0.4585
  179MOL   H23046866   3.892   6.884   4.094  0.5243 -0.3689 -0.4322
  179MOL   H23146867   3.709   7.019   4.080 -0.5214  0.9221 -0.0481
  179MOL   H23246868   3.571   6.986   3.985  0.7588 -0.9501 -0.5447
  179MOL   H23346869   3.599   6.886   4.132 -1.3039  1.4128  0.5203
  179MOL   H23446870   3.916   6.763   3.745 -1.9169  1.9907  0.5738
  179MOL   H23546871   4.007   6.896   3.800  2.9916 -0.0638  1.8673
  179MOL   C23646872   4.131   6.725   3.767  0.2790 -0.3131 -0.5784
  179MOL   N23746873   4.241   6.799   3.833 -0.5105  0.1271 -0.4074
  179MOL   C23846874   4.307   6.903   3.786  0.0907 -0.7223  0.0899
  179MOL   O23946875   4.298   6.946   3.671  0.1959 -0.2213 -0.4762
  179MOL   C24046876   4.403   6.966   3.882 -0.8070 -0.1913  0.5454
  179MOL   C24146877   4.133   6.719   3.612  0.6439 -0.3050  0.3354
  179MOL   H24246878   4.140   6.620   3.794 -0.6669  0.0389  1.1537
  179MOL   H24346879   4.262   6.771   3.927 -0.7153 -0.7471 -0.6142
  179MOL   H24446880   4.439   7.066   3.862  0.8461 -0.6190  1.2526
  179MOL   H24546881   4.348   6.967   3.976 -1.1779 -0.1955  0.3275
  179MOL   H24646882   4.499   6.913   3.887 -0.4767  0.3614  0.0039
  179MOL   H24746883   4.102   6.810   3.561  2.6402  0.0027 -0.3779
  179MOL   H24846884   4.229   6.705   3.562  0.1922  1.5865 -1.0972
  179MOL   C24946885   4.045   6.605   3.560 -0.4312  0.1682 -0.9632
  179MOL   N25046886   4.111   6.475   3.578 -0.0220 -0.0160 -0.3379
  179MOL   C25146887   4.080   6.372   3.657  0.1019  0.1882 -0.2921
  179MOL   O25246888   3.984   6.384   3.737 -0.5633  0.5689  0.9413
  179MOL   C25346889   4.184   6.257   3.661 -0.2483 -0.2868 -0.6192
  179MOL   C25446890   4.030   6.623   3.412  0.6088 -0.3717 -0.0898
  179MOL   H25546891   3.948   6.607   3.610  0.6042  0.1973  1.0832
  179MOL   H25646892   4.198   6.462   3.527  0.3967  1.1547  0.0533
  179MOL   H25746893   4.205   6.208   3.566  0.7916  0.5832 -0.8542
  179MOL   H25846894   4.285   6.283   3.694 -0.1413 -0.5723 -0.7183
  179MOL   H25946895   4.150   6.184   3.734 -0.2329  0.2669 -0.0560
  179MOL   H26046896   4.120   6.625   3.350 -0.4166  0.7489 -1.5763
  179MOL   H26146897   3.972   6.538   3.376 -0.9328 -0.2153  1.9233
  179MOL   H26246898   3.966   6.709   3.396 -1.5707 -2.0359 -0.5551
  180MOL     C146899   5.825   5.658   2.605 -0.8838  0.6182  0.3173
  180MOL     N246900   5.755   5.699   2.481  0.8595  0.0412  0.2622
  180MOL     C346901   5.623   5.701   2.483 -0.4406  0.6578 -0.2560
  180MOL     O446902   5.559   5.651   2.572 -0.1133 -0.6307 -0.1173
  180MOL     C546903   5.552   5.768   2.366 -0.3523 -0.7544 -0.5294
  180MOL     C646904   5.945   5.758   2.627  0.4610  0.2485 -0.5384
  180MOL     H746905   5.773   5.643   2.700  1.5432 -1.9258  1.3096
  180MOL     H846906   5.805   5.742   2.404  0.8160 -1.9810 -0.9321
  180MOL     H946907   5.469   5.708   2.331  0.7844 -2.9888  0.4855
  180MOL    H1046908   5.523   5.867   2.401  0.7111 -0.7239  0.2950
  180MOL    H1146909   5.616   5.795   2.282 -1.6128  0.2052 -1.2049
  180MOL    H1246910   5.999   5.750   2.533  0.1340  2.7658 -0.9790
  180MOL    H1346911   5.898   5.856   2.632  0.1527  0.1212 -0.8714
  180MOL    H1446912   5.869   5.563   2.575  0.0582  0.8136  1.0404
  180MOL    C1546913   6.020   5.745   2.756  0.0331  0.1464 -0.1369
  180MOL    N1646914   6.090   5.872   2.782  0.3448  0.3867 -0.5619
  180MOL    C1746915   6.080   5.952   2.886  0.5691  0.0719  0.0845
  180MOL    O1846916   5.993   5.945   2.974 -0.3841 -0.8014 -0.3690
  180MOL    C1946917   6.179   6.069   2.880 -0.0904 -0.9413  0.0635
  180MOL    C2046918   6.130   5.631   2.762  0.5288 -0.2214  0.4231
  180MOL    H2146919   5.948   5.720   2.835  0.2890  0.4368  0.1890
  180MOL    H2246920   6.144   5.896   2.700 -0.4123 -0.0770 -1.2000
  180MOL    H2346921   6.284   6.040   2.876 -0.4563 -2.2618 -0.0488
  180MOL    H2446922   6.153   6.137   2.799  1.5350 -0.1254  0.2054
  180MOL    H2546923   6.166   6.129   2.970 -2.5363 -2.7169  0.9664
  180MOL    H2646924   6.212   5.656   2.695  0.5712  0.5929  0.7712
  180MOL    H2746925   6.172   5.629   2.862 -0.7920 -1.9064  0.9715
  180MOL    C2846926   6.088   5.486   2.726  0.2659  0.0699  0.3480
  180MOL    N2946927   5.987   5.429   2.821  0.1437  0.0987  0.0763
  180MOL    C3046928   5.913   5.319   2.792 -0.0980  0.2046 -1.0312
  180MOL    O3146929   5.892   5.286   2.675  0.2646 -0.5630 -0.0578
  180MOL    C3246930   5.864   5.233   2.908 -0.9401  0.2583  0.4280
  180MOL    C3346931   6.208   5.392   2.707  0.1939  0.2754  0.5753
  180MOL    H3446932   6.046   5.487   2.625  1.9031 -2.6771 -0.4216
  180MOL    H3546933   5.994   5.466   2.915 -1.4505 -1.0875  0.6729
  180MOL    H3646934   5.882   5.292   2.998  0.0342 -0.5391  0.7687
  180MOL    H3746935   5.756   5.219   2.899 -0.8305  0.3237 -1.1196
  180MOL    H3846936   5.908   5.134   2.926 -0.1227  0.0409 -2.5908
  180MOL    H3946937   6.173   5.294   2.674  0.1969  0.2630  0.6082
  180MOL    H4046938   6.252   5.434   2.617 -2.5344  0.5980 -0.6651
  180MOL    C4146939   6.323   5.374   2.808  0.2038 -0.1144 -0.1514
  180MOL    N4246940   6.424   5.296   2.750  0.1584 -0.2343  0.1858
  180MOL    C4346941   6.512   5.335   2.652 -0.6171  0.7286  0.0552
  180MOL    O4446942   6.520   5.447   2.606  0.1834 -0.3265  0.2792
  180MOL    C4546943   6.601   5.223   2.605 -0.4749  0.5215 -0.7145
  180MOL    C4646944   6.268   5.328   2.945  0.1730  0.2477  0.2096
  180MOL    H4746945   6.375   5.467   2.830 -0.3276  0.2666 -0.4712
  180MOL    H4846946   6.429   5.197   2.772 -0.8848 -0.3584 -0.1133
  180MOL    H4946947   6.682   5.266   2.546 -0.0833  2.2335  0.9927
  180MOL    H5046948   6.648   5.174   2.690 -0.2864  2.1480  0.1454
  180MOL    H5146949   6.553   5.152   2.538 -0.2561 -0.9290  0.6465
  180MOL    H5246950   6.220   5.417   2.986 -0.5840 -0.0264 -0.0631
  180MOL    H5346951   6.185   5.257   2.946  1.3919 -1.2158  1.2387
  180MOL    C5446952   6.376   5.284   3.043 -0.1878 -0.1126  0.6467
  180MOL    N5546953   6.408   5.142   3.013 -0.0267  0.8571  0.1845
  180MOL    C5646954   6.527   5.092   2.985  0.6004 -0.0005 -0.2848
  180MOL    O5746955   6.625   5.161   2.967 -0.1319  0.1408 -0.3254
  180MOL    C5846956   6.524   4.940   2.957 -0.1547  0.3548 -0.1494
  180MOL    C5946957   6.334   5.296   3.191 -0.2209 -0.3304  0.0001
  180MOL    H6046958   6.470   5.336   3.021  0.5075 -0.5080  2.6608
  180MOL    H6146959   6.330   5.079   3.003 -0.2474  1.2976 -0.8322
  180MOL    H6246960   6.605   4.903   2.894 -1.2085 -1.1609 -0.6510
  180MOL    H6346961   6.534   4.899   3.057  2.4501  0.7916 -0.2020
  180MOL    H6446962   6.436   4.904   2.903  0.4603 -1.1785 -0.1452
  180MOL    H6546963   6.236   5.251   3.203  0.1691 -0.9094  1.0701
  180MOL    H6646964   6.412   5.241   3.244  1.4695  2.6581  0.7464
  180MOL    C6746965   6.328   5.446   3.237  0.5607 -0.4384 -0.2551
  180MOL    N6846966   6.460   5.500   3.245  0.0828 -0.0827 -0.1483
  180MOL    C6946967   6.566   5.468   3.318 -0.3523  0.2122 -0.0127
  180MOL    O7046968   6.562   5.387   3.411 -0.5184 -0.2173 -0.3376
  180MOL    C7146969   6.698   5.540   3.288 -0.1441 -0.5090 -0.1830
  180MOL    C7246970   6.237   5.475   3.361 -0.5293  0.1048 -0.5793
  180MOL    H7346971   6.294   5.518   3.162  1.3634  0.6357  0.4024
  180MOL    H7446972   6.497   5.544   3.162 -0.0973  0.1985 -0.0796
  180MOL    H7546973   6.692   5.642   3.251  0.8883 -0.2122  0.4496
  180MOL    H7646974   6.742   5.563   3.385 -0.3524 -1.3066  0.1052
  180MOL    H7746975   6.771   5.484   3.228 -0.3444 -2.1052  1.0226
  180MOL    H7846976   6.268   5.402   3.436  0.0192  2.3127  1.3873
  180MOL    H7946977   6.256   5.575   3.401  2.0303  0.2235 -2.0162
  180MOL    C8046978   6.083   5.453   3.338  0.5416  0.3242 -0.0912
  180MOL    N8146979   6.018   5.581   3.305 -1.1554  0.2407 -0.2697
  180MOL    C8246980   5.986   5.621   3.183 -0.0214  0.3530  0.5587
  180MOL    O8346981   6.011   5.561   3.081 -0.3159 -0.2995 -0.2747
  180MOL    C8446982   5.893   5.741   3.181 -0.6802  0.7239  0.1997
  180MOL    C8546983   6.024   5.411   3.474 -0.3818 -0.1302  0.3398
  180MOL    H8646984   6.063   5.375   3.264  1.1855 -0.7676  0.8643
  180MOL    H8746985   6.005   5.643   3.383  1.8492 -0.7873  1.1553
  180MOL    H8846986   5.818   5.733   3.260  0.0085  0.6390  0.8473
  180MOL    H8946987   5.959   5.826   3.191  1.5948 -0.8756 -0.8213
  180MOL    H9046988   5.841   5.738   3.085  0.1868 -0.3663 -0.2497
  180MOL    H9146989   6.063   5.479   3.549  0.0821  0.6141 -0.5758
  180MOL    H9246990   5.918   5.436   3.463 -0.6959 -1.0570  1.0609
  180MOL    C9346991   6.036   5.267   3.512  0.2979  0.7673 -0.6888
  180MOL    N9446992   5.947   5.195   3.426 -0.2128 -0.0154 -0.5545
  180MOL    C9546993   5.969   5.083   3.359  0.0693 -0.0638 -0.6035
  180MOL    O9646994   6.081   5.035   3.363  0.1533  0.0938  0.2997
  180MOL    C9746995   5.851   5.010   3.278 -0.2083 -0.1748  0.0457
  180MOL    C9846996   6.016   5.237   3.656 -0.1800  0.4207  0.7690
  180MOL    H9946997   6.138   5.240   3.483 -0.3383 -1.2992 -1.1193
  180MOL   H10046998   5.849   5.219   3.419 -0.4282 -1.2232 -1.8566
  180MOL   H10146999   5.838   5.058   3.181 -2.1795  1.0138  0.8743
  180MOL   H10247000   5.857   4.903   3.258  0.8718 -0.0466 -0.3732
  180MOL   H10347001   5.758   5.025   3.332 -0.9556  2.3887 -1.8641
  180MOL   H10447002   5.942   5.304   3.701  1.3382  1.0297  2.4347
  180MOL   H10547003   5.965   5.141   3.670  1.2735 -0.3434  0.8353
  180MOL   C10647004   6.150   5.247   3.730  0.2633 -0.2512  0.6097
  180MOL   N10747005   6.213   5.118   3.709  0.6851 -0.0750 -0.1800
  180MOL   C10847006   6.346   5.093   3.715 -0.5298  0.2113  0.0162
  180MOL   O10947007   6.425   5.183   3.740 -0.9259 -0.4164  0.2039
  180MOL   C11047008   6.395   4.953   3.704  0.3233 -0.4622 -0.3530
  180MOL   C11147009   6.132   5.281   3.883 -0.0525  0.3151 -0.5887
  180MOL   H11247010   6.202   5.332   3.686  2.5798 -2.1183 -0.3542
  180MOL   H11347011   6.155   5.042   3.677  2.4162 -1.5818  0.1627
  180MOL   H11447012   6.446   4.916   3.793 -0.2836 -0.9771 -0.2173
  180MOL   H11547013   6.327   4.873   3.677  0.0712 -0.2757 -0.2694
  180MOL   H11647014   6.483   4.956   3.639 -0.1321 -3.3194 -1.1775
  180MOL   H11747015   6.027   5.307   3.902 -0.0918 -0.3252  0.1253
  180MOL   H11847016   6.161   5.192   3.940  0.2197  0.7034 -0.1213
  180MOL   C11947017   6.212   5.399   3.932  0.1031  0.1819 -0.0747
  180MOL   N12047018   6.354   5.389   3.909  0.7410  0.1269 -0.1312
  180MOL   C12147019   6.441   5.491   3.903  0.4509  0.0603 -0.2168
  180MOL   O12247020   6.413   5.607   3.926 -0.4476  0.6004  0.0803
  180MOL   C12347021   6.585   5.465   3.868  0.5666 -0.2087 -0.7401
  180MOL   C12447022   6.196   5.406   4.090 -0.0993 -0.0648  0.1531
  180MOL   H12547023   6.171   5.494   3.898 -2.5737 -0.2578  1.7457
  180MOL   H12647024   6.389   5.309   3.859  1.4950 -1.0884  2.2635
  180MOL   H12747025   6.645   5.540   3.920  0.0305  0.2397 -0.7662
  180MOL   H12847026   6.613   5.367   3.906 -3.0328 -0.4887  1.4914
  180MOL   H12947027   6.595   5.470   3.760 -4.1770  1.7577 -1.2001
  180MOL   H13047028   6.245   5.316   4.127 -1.4152 -1.0960 -0.5913
  180MOL   H13147029   6.261   5.481   4.136  1.4311 -1.6406  0.6340
  180MOL   C13247030   6.056   5.425   4.143 -0.4484  0.3537 -0.4138
  180MOL   N13347031   6.008   5.564   4.134 -0.1354 -0.5752 -0.4622
  180MOL   C13447032   5.905   5.606   4.056  0.4813 -0.8568  0.0812
  180MOL   O13547033   5.846   5.531   3.976  0.4653 -0.4089 -0.2716
  180MOL   C13647034   5.848   5.746   4.061 -0.2984 -0.2317  0.3052
  180MOL   C13747035   6.041   5.371   4.291  0.1766 -0.0819  1.0176
  180MOL   H13847036   5.990   5.361   4.084  0.7024 -1.6875  0.4586
  180MOL   H13947037   6.058   5.635   4.187 -0.4528 -0.4277 -0.3565
  180MOL   H14047038   5.927   5.810   4.101  0.3574 -0.6104 -0.3732
  180MOL   H14147039   5.816   5.781   3.964  0.2573  2.0070  0.9097
  180MOL   H14247040   5.761   5.746   4.128  0.4088  0.9110  1.2453
  180MOL   H14347041   6.098   5.442   4.350 -0.6693  0.1273  1.5944
  180MOL   H14447042   5.936   5.389   4.316 -0.3556 -2.0162  0.3358
  180MOL   C14547043   6.076   5.222   4.313 -0.9319  0.0405  0.2985
  180MOL   N14647044   6.026   5.135   4.206 -0.2958  0.1871 -0.4120
  180MOL   C14747045   6.078   5.019   4.170  0.1403  0.1033 -0.4239
  180MOL   O14847046   6.180   4.974   4.210 -0.3016  0.6841 -0.2039
  180MOL   C14947047   5.988   4.925   4.080 -0.3646 -0.6322 -0.4996
  180MOL   C15047048   6.034   5.172   4.451 -0.4896  0.4946 -0.2412
  180MOL   H15147049   6.185   5.217   4.312 -0.8589  0.8070  2.2358
  180MOL   H15247050   5.944   5.166   4.156 -0.1431  0.1804 -0.6699
  180MOL   H15347051   5.882   4.933   4.103 -0.0147 -1.2577  1.4482
  180MOL   H15447052   6.001   4.967   3.980  0.0488 -1.2167 -0.6914
  180MOL   H15547053   6.016   4.820   4.090 -2.4916 -1.3354 -1.7524
  180MOL   H15647054   5.926   5.174   4.438 -0.9000  2.7658  3.0436
  180MOL   H15747055   6.065   5.068   4.459 -0.1345  0.4759 -1.7804
  180MOL   C15847056   6.087   5.242   4.573  0.0513 -0.2176 -0.3505
  180MOL   N15947057   6.223   5.194   4.600 -0.0988  0.4069  0.1894
  180MOL   C16047058   6.335   5.253   4.564 -0.6796  0.3422  0.4693
  180MOL   O16147059   6.337   5.368   4.508  1.0296  0.3736 -0.4753
  180MOL   C16247060   6.464   5.173   4.577  0.0723  0.1833  0.2936
  180MOL   C16347061   5.988   5.216   4.688  0.2341 -0.1254 -0.0971
  180MOL   H16447062   6.075   5.347   4.547 -0.3699 -0.1803 -0.0156
  180MOL   H16547063   6.231   5.096   4.626 -1.4826  0.7838  2.1468
  180MOL   H16647064   6.554   5.232   4.561  0.8108 -0.7750  0.9013
  180MOL   H16747065   6.489   5.129   4.674 -1.0923  1.8498  1.3718
  180MOL   H16847066   6.483   5.079   4.525  1.9914  0.5423  0.3179
  180MOL   H16947067   5.986   5.110   4.715 -0.1324  0.5170  2.5692
  180MOL   H17047068   6.030   5.260   4.778  0.1605  0.0580 -0.1515
  180MOL   C17147069   5.835   5.249   4.675 -0.7638  0.1475 -0.2538
  180MOL   N17247070   5.812   5.390   4.717  0.5315  0.1410 -0.6919
  180MOL   C17347071   5.793   5.497   4.640  0.3043  0.6719  0.4087
  180MOL   O17447072   5.817   5.494   4.520  0.5045 -0.5800 -0.1437
  180MOL   C17547073   5.735   5.622   4.697 -0.1619  0.1014 -0.7878
  180MOL   C17647074   5.746   5.157   4.766 -0.4040  0.3084 -0.1087
  180MOL   H17747075   5.796   5.241   4.573 -1.0516  1.9053 -0.3026
  180MOL   H17847076   5.794   5.402   4.816 -0.1555  0.7545 -0.8865
  180MOL   H17947077   5.750   5.701   4.624 -0.3084 -1.4187 -2.5072
  180MOL   H18047078   5.630   5.610   4.725  0.1761  0.1610  0.5777
  180MOL   H18147079   5.794   5.655   4.783  0.6711  0.5979 -1.5399
  180MOL   H18247080   5.769   5.168   4.872  1.3072 -0.9998 -0.3258
  180MOL   H18347081   5.645   5.197   4.751 -1.4843 -2.6183 -1.0901
  180MOL   C18447082   5.735   5.007   4.718  0.9382  0.1524  0.5777
  180MOL   N18547083   5.679   4.990   4.584  0.0790 -0.3897 -0.4495
  180MOL   C18647084   5.720   4.908   4.487 -0.4630  0.4187 -0.4623
  180MOL   O18747085   5.802   4.817   4.511  0.5124 -0.3999  0.2040
  180MOL   C18847086   5.673   4.927   4.347 -0.3766 -0.5340 -0.0140
  180MOL   C18947087   5.643   4.939   4.819 -0.5568  1.0488  0.2953
  180MOL   H19047088   5.836   4.969   4.722  1.1986  0.7802  0.0814
  180MOL   H19147089   5.612   5.060   4.557 -0.0493 -0.5684 -0.5971
  180MOL   H19247090   5.749   4.910   4.270  1.9928  3.2855  1.3152
  180MOL   H19347091   5.595   4.852   4.337  0.8132 -2.1159  2.1203
  180MOL   H19447092   5.639   5.030   4.338 -1.8589 -0.9444  0.8056
  180MOL   H19547093   5.660   4.977   4.920  0.0009 -0.3140  0.7177
  180MOL   H19647094   5.542   4.974   4.795 -0.6376  1.5595  1.3366
  180MOL   C19747095   5.645   4.783   4.827 -0.0089  0.3768 -0.5671
  180MOL   N19847096   5.539   4.737   4.905  0.0263  0.2020  0.6337
  180MOL   C19947097   5.415   4.720   4.870  0.5204  0.4784 -0.6926
  180MOL   O20047098   5.381   4.753   4.757 -0.2336  0.1023  0.9732
  180MOL   C20147099   5.313   4.672   4.972  0.2371  0.0278 -0.0787
  180MOL   C20247100   5.782   4.731   4.885  0.1088  0.1436 -0.3082
  180MOL   H20347101   5.645   4.748   4.724 -2.1297 -0.3379 -0.3391
  180MOL   H20447102   5.571   4.708   4.996  2.3181  0.1706 -0.1597
  180MOL   H20547103   5.213   4.677   4.928  0.6838  1.1735 -0.9986
  180MOL   H20647104   5.340   4.572   5.006 -3.0037 -1.5951 -1.9110
  180MOL   H20747105   5.307   4.740   5.056  0.7797 -1.9574  1.6133
  180MOL   H20847106   5.858   4.809   4.878 -0.8978  1.2912  1.1872
  180MOL   H20947107   5.769   4.716   4.992  0.4664  0.1645 -0.2610
  180MOL   C21047108   5.836   4.595   4.825 -0.0347  0.6943  0.0922
  180MOL   N21147109   5.734   4.490   4.841  0.4648 -0.1515 -0.2989
  180MOL   C21247110   5.698   4.417   4.947 -0.2930 -0.5662  0.0324
  180MOL   O21347111   5.773   4.417   5.043 -0.1569 -0.3852  0.5517
  180MOL   C21447112   5.568   4.344   4.942 -0.3046 -0.4093 -0.2096
  180MOL   C21547113   5.970   4.545   4.874  0.8568  0.2369  0.4029
  180MOL   H21647114   5.847   4.611   4.718  0.8442  0.4337  0.1374
  180MOL   H21747115   5.675   4.471   4.761  1.9222 -0.4656 -1.3246
  180MOL   H21847116   5.521   4.324   5.039  0.0857 -0.1227  0.0378
  180MOL   H21947117   5.481   4.387   4.893  0.1121  1.1492  0.4040
  180MOL   H22047118   5.585   4.250   4.890  0.8688 -0.6222  0.5470
  180MOL   H22147119   5.961   4.555   4.982  0.2979  0.7164  0.3110
  180MOL   H22247120   5.991   4.445   4.836 -0.8609 -0.0370  0.1194
  180MOL   C22347121   6.096   4.632   4.838  0.3884 -0.9024 -0.4298
  180MOL   N22447122   6.126   4.623   4.698  0.3406  0.0972 -0.6288
  180MOL   C22547123   6.156   4.726   4.619  0.5230  0.0894 -0.4324
  180MOL   O22647124   6.149   4.844   4.652 -0.6879 -0.1942  0.0331
  180MOL   C22747125   6.204   4.697   4.479  0.2135  0.4302  0.4112
  180MOL   C22847126   6.209   4.575   4.933  0.1295 -0.9433  0.2093
  180MOL   H22947127   6.069   4.736   4.857 -0.4189 -1.1742 -0.0516
  180MOL   H23047128   6.142   4.533   4.655 -0.8704  0.1208 -1.1444
  180MOL   H23147129   6.118   4.681   4.415  0.6257 -0.9926  0.1884
  180MOL   H23247130   6.237   4.793   4.439 -0.0349  0.2507 -0.2308
  180MOL   H23347131   6.280   4.620   4.463 -2.0074 -1.3932 -1.7919
  180MOL   H23447132   6.171   4.571   5.035  2.7089  0.6420  1.2776
  180MOL   H23547133   6.222   4.468   4.913  1.8536 -0.2453 -2.6697
  180MOL   C23647134   6.348   4.639   4.926  0.3168  0.0846  0.8087
  180MOL   N23747135   6.434   4.573   5.028 -0.3251 -0.3921  0.4851
  180MOL   C23847136   6.488   4.451   5.019 -0.7172  0.3910 -0.6084
  180MOL   O23947137   6.469   4.382   4.922 -0.5465  0.4272  0.4712
  180MOL   C24047138   6.588   4.413   5.126  0.8414  0.2469  0.0660
  180MOL   C24147139   6.330   4.791   4.939  0.4259 -0.4866  0.2086
  180MOL   H24247140   6.385   4.608   4.829 -1.5004  1.7168 -0.4428
  180MOL   H24347141   6.476   4.636   5.095  3.0762 -3.6397  1.5510
  180MOL   H24447142   6.677   4.476   5.135 -0.6772  2.5021 -0.4176
  180MOL   H24547143   6.547   4.410   5.227  1.9944  1.0659  0.5723
  180MOL   H24647144   6.634   4.315   5.116  0.6647  0.3980 -2.4679
  180MOL   H24747145   6.261   4.835   4.867  2.4212  1.7213 -0.4045
  180MOL   H24847146   6.284   4.822   5.032  0.2200 -0.1494 -0.0058
  180MOL   C24947147   6.459   4.877   4.914 -0.5624 -0.1814 -0.3377
  180MOL   N25047148   6.416   5.016   4.918  0.4951  0.4762  0.6190
  180MOL   C25147149   6.463   5.113   4.994  0.1136 -0.3550 -0.2154
  180MOL   O25247150   6.563   5.102   5.067 -0.7209  0.5111  0.3411
  180MOL   C25347151   6.374   5.238   4.997 -0.4867 -0.2114 -0.4749
  180MOL   C25447152   6.525   4.836   4.777  0.3132  0.0145  0.1882
  180MOL   H25547153   6.521   4.865   5.003  0.5811 -1.0981 -1.2417
  180MOL   H25647154   6.349   5.045   4.849 -0.5299 -0.2153  1.3126
  180MOL   H25747155   6.269   5.210   4.993 -0.2414 -1.2953  0.5072
  180MOL   H25847156   6.391   5.301   5.084  2.3411  1.7525 -2.3408
  180MOL   H25947157   6.390   5.311   4.918 -2.4121 -2.0108 -2.5931
  180MOL   H26047158   6.448   4.844   4.699 -0.2253 -0.9674  0.6109
  180MOL   H26147159   6.606   4.904   4.752  0.7583 -0.2783  0.8439
  180MOL   H26247160   6.565   4.735   4.777 -1.6309 -0.7753  0.8582
  181MOL     C147161   1.437   7.191   4.968  0.3985 -0.2193  0.2998
  181MOL     N247162   1.566   7.217   5.028  0.2047  0.2154 -0.6267
  181MOL     C347163   1.626   7.343   5.042 -0.2994  0.3255  0.3499
  181MOL     O447164   1.569   7.443   5.005  0.1969 -0.4373  0.0727
  181MOL     C547165   1.775   7.356   5.090  0.3893  1.2154 -0.3325
  181MOL     C647166   1.429   7.174   4.814  0.4660 -0.4242  0.9915
  181MOL     H747167   1.402   7.096   5.006 -1.0058  1.3412  3.0084
  181MOL     H847168   1.615   7.132   5.052 -1.2699 -0.8340 -1.2806
  181MOL     H947169   1.771   7.360   5.199  1.1571  1.4971 -0.3107
  181MOL    H1047170   1.833   7.270   5.057  1.5803  1.4534  1.0892
  181MOL    H1147171   1.829   7.447   5.063  1.8633  0.1729 -1.0119
  181MOL    H1247172   1.477   7.260   4.767  0.8803 -1.2317 -0.0917
  181MOL    H1347173   1.487   7.087   4.784  0.1977  0.1636 -1.2948
  181MOL    H1447174   1.361   7.262   4.999  0.6138  0.2030 -0.1158
  181MOL    C1547175   1.291   7.154   4.750 -0.2803  0.2083  0.3716
  181MOL    N1647176   1.315   7.095   4.620 -0.4767 -0.1537  0.4450
  181MOL    C1747177   1.314   6.966   4.601  0.3820 -0.3770  0.1360
  181MOL    O1847178   1.285   6.882   4.689 -0.8256 -0.2686 -0.5764
  181MOL    C1947179   1.349   6.914   4.463  0.0502 -0.6076  0.1914
  181MOL    C2047180   1.219   7.293   4.725  0.6206 -0.0044  0.2860
  181MOL    H2147181   1.240   7.083   4.816  0.9350 -1.4492 -0.4506
  181MOL    H2247182   1.363   7.143   4.545  0.4094  0.3808  1.3423
  181MOL    H2347183   1.400   6.819   4.449  2.5516  0.4538  1.7347
  181MOL    H2447184   1.249   6.904   4.420  0.3930  1.3537 -1.0991
  181MOL    H2547185   1.411   6.982   4.406 -0.4475 -1.8197 -1.8228
  181MOL    H2647186   1.217   7.347   4.820  3.9562  2.8525 -1.1719
  181MOL    H2747187   1.283   7.355   4.663 -1.2884  2.6960  0.9596
  181MOL    C2847188   1.076   7.284   4.670 -0.8298  0.4096 -0.0699
  181MOL    N2947189   1.024   7.419   4.684 -0.1530  0.7757 -0.0722
  181MOL    C3047190   0.995   7.501   4.581 -0.8237 -0.0510 -0.0017
  181MOL    O3147191   1.022   7.487   4.461  0.8491  0.0885 -0.1893
  181MOL    C3247192   0.923   7.628   4.622  0.2469 -0.7340 -0.5846
  181MOL    C3347193   0.989   7.169   4.743 -0.8639 -0.6220  0.4713
  181MOL    H3447194   1.079   7.258   4.564  1.3959  0.2258  0.0153
  181MOL    H3547195   1.028   7.463   4.774  0.5150  0.8496 -0.1355
  181MOL    H3647196   0.981   7.692   4.689  0.2358 -0.4420 -0.8507
  181MOL    H3747197   0.880   7.690   4.543 -2.6114  0.2877  1.6546
  181MOL    H3847198   0.838   7.591   4.679 -1.1241 -0.6720 -2.5475
  181MOL    H3947199   1.027   7.141   4.841  2.7806 -1.1777 -1.0252
  181MOL    H4047200   0.894   7.220   4.761 -0.0070  1.6923 -1.3146
  181MOL    C4147201   0.937   7.042   4.669 -0.2121  0.0182 -0.1899
  181MOL    N4247202   0.845   7.089   4.560  0.2583 -0.3301  0.7154
  181MOL    C4347203   0.866   7.061   4.430  0.1756 -0.5927  0.4125
  181MOL    O4447204   0.951   6.975   4.393 -0.1874  0.3134  0.2549
  181MOL    C4547205   0.774   7.138   4.340  0.0931 -0.7709  0.4302
  181MOL    C4647206   0.861   6.949   4.767 -0.3522 -0.0269 -0.1897
  181MOL    H4747207   1.021   6.986   4.627  0.5814  0.7326  0.4281
  181MOL    H4847208   0.776   7.158   4.583  2.6670  2.4221 -0.0074
  181MOL    H4947209   0.833   7.208   4.281 -0.9602 -1.6726 -1.7314
  181MOL    H5047210   0.731   7.072   4.266 -1.9204 -1.4075  2.1212
  181MOL    H5147211   0.701   7.195   4.398  0.2986  0.7272 -0.7332
  181MOL    H5247212   0.930   6.926   4.849  0.1136  2.2036  0.0604
  181MOL    H5347213   0.770   6.996   4.804  0.4472  3.4896 -2.5247
  181MOL    C5447214   0.815   6.806   4.717  0.3405  0.0226 -0.5812
  181MOL    N5547215   0.721   6.818   4.607 -0.1660 -1.4218 -0.0352
  181MOL    C5647216   0.659   6.733   4.528  0.1281 -0.1538 -0.1634
  181MOL    O5747217   0.674   6.609   4.532  0.4595  0.0722 -0.0655
  181MOL    C5847218   0.566   6.786   4.426  0.1832 -0.4325  0.3377
  181MOL    C5947219   0.771   6.715   4.832  0.5126 -0.4511 -0.1890
  181MOL    H6047220   0.904   6.758   4.676  0.9107  1.2760 -0.8380
  181MOL    H6147221   0.722   6.911   4.569  1.8879 -1.7130 -0.7616
  181MOL    H6247222   0.465   6.758   4.453  0.0369  1.0978  1.4553
  181MOL    H6347223   0.565   6.893   4.406  0.7437 -0.7163 -1.2475
  181MOL    H6447224   0.609   6.743   4.336  1.8257  0.5805  0.6173
  181MOL    H6547225   0.727   6.768   4.916  1.4714  0.2000 -0.0882
  181MOL    H6647226   0.691   6.658   4.785  0.7151 -0.9900  0.1158
  181MOL    C6747227   0.889   6.625   4.884  0.4571 -0.4583  0.3612
  181MOL    N6847228   0.833   6.518   4.965 -0.0676 -0.2477 -0.3811
  181MOL    C6947229   0.869   6.390   4.979 -0.9737  0.3581  0.0445
  181MOL    O7047230   0.972   6.345   4.928 -0.2025 -0.1383 -0.5757
  181MOL    C7147231   0.784   6.299   5.065 -0.2095 -0.7807  0.1296
  181MOL    C7247232   1.011   6.695   4.958  0.5230  0.8143  0.4059
  181MOL    H7347233   0.937   6.587   4.793  1.1660 -0.1862  0.6186
  181MOL    H7447234   0.748   6.530   5.019  1.1596  0.3920  1.4235
  181MOL    H7547235   0.782   6.351   5.161  1.0005 -0.8318  0.1940
  181MOL    H7647236   0.680   6.300   5.033 -0.9211 -0.1960  2.3324
  181MOL    H7747237   0.816   6.195   5.078  0.3416 -0.4850  1.2383
  181MOL    H7847238   1.092   6.623   4.972 -0.8988 -0.7833  0.5932
  181MOL    H7947239   1.063   6.765   4.893  2.9076 -0.3095  1.0435
  181MOL    C8047240   0.969   6.755   5.092 -0.7086 -0.6918  0.2302
  181MOL    N8147241   1.043   6.883   5.106 -0.2494 -0.4945  0.1891
  181MOL    C8247242   0.992   7.007   5.115 -0.3830 -0.6816  0.1729
  181MOL    O8347243   0.873   7.031   5.118  0.1721 -0.0340  0.3402
  181MOL    C8447244   1.097   7.109   5.127  0.3481  0.2776  0.2503
  181MOL    C8547245   0.991   6.662   5.223  0.5976 -0.0495  0.4895
  181MOL    H8647246   0.864   6.781   5.091 -0.8963 -1.4411  0.2866
  181MOL    H8747247   1.142   6.874   5.122  0.1315  1.0708 -1.1188
  181MOL    H8847248   1.178   7.089   5.197  0.9611 -1.8709 -1.0421
  181MOL    H8947249   1.142   7.138   5.033  1.9567  3.0428  1.8005
  181MOL    H9047250   1.043   7.197   5.162  2.9141  1.9309  0.1857
  181MOL    H9147251   0.943   6.565   5.228  2.0617 -0.8660 -0.7966
  181MOL    H9247252   1.098   6.638   5.226  0.5613 -0.1730  0.8511
  181MOL    C9347253   0.953   6.735   5.360 -0.4743 -0.3478 -0.0798
  181MOL    N9447254   0.997   6.658   5.472 -0.5394  0.2330  0.0363
  181MOL    C9547255   0.968   6.535   5.513  0.0576  0.2347  0.4030
  181MOL    O9647256   0.888   6.465   5.457 -0.3063  0.2660 -0.5646
  181MOL    C9747257   1.040   6.491   5.637 -0.1376  0.9040  0.2591
  181MOL    C9847258   0.808   6.773   5.374 -0.0861 -0.1078  0.4125
  181MOL    H9947259   1.008   6.829   5.367 -0.0507 -0.6874  1.1156
  181MOL   H10047260   1.058   6.707   5.536  1.4347  0.4620 -1.9394
  181MOL   H10147261   1.055   6.383   5.642  0.3377  1.0413  2.3815
  181MOL   H10247262   1.133   6.542   5.663  0.4247  0.1683 -0.3010
  181MOL   H10347263   0.975   6.518   5.721  0.6461  0.5324  0.9894
  181MOL   H10447264   0.778   6.822   5.281  0.0478  0.8080  0.8500
  181MOL   H10547265   0.738   6.689   5.376 -0.8178  0.4578 -1.0419
  181MOL   C10647266   0.774   6.876   5.494 -0.1373  0.3900 -0.2203
  181MOL   N10747267   0.715   6.806   5.610 -0.1928  0.0810  0.0308
  181MOL   C10847268   0.608   6.724   5.612 -0.0253 -0.2825 -0.1917
  181MOL   O10947269   0.533   6.695   5.517 -0.1054  0.1951  0.1755
  181MOL   C11047270   0.571   6.657   5.744 -0.7088 -0.3285 -0.3310
  181MOL   C11147271   0.687   6.997   5.451  0.2347  0.6497  0.2129
  181MOL   H11247272   0.869   6.913   5.533  1.1032 -0.9083 -1.9384
  181MOL   H11347273   0.758   6.812   5.701 -0.4781 -0.2454  0.1919
  181MOL   H11447274   0.497   6.719   5.794 -0.2018  0.2558 -0.2929
  181MOL   H11547275   0.514   6.564   5.741 -1.8104  0.3246  0.0294
  181MOL   H11647276   0.649   6.632   5.816 -1.3074 -1.9373 -0.2118
  181MOL   H11747277   0.722   7.020   5.350 -0.0301 -1.0226 -0.2705
  181MOL   H11847278   0.582   6.970   5.443  0.4082  0.0571 -0.0921
  181MOL   C11947279   0.705   7.131   5.531  0.0794  0.1377 -0.0357
  181MOL   N12047280   0.847   7.176   5.526 -0.1985  0.6763 -0.3113
  181MOL   C12147281   0.900   7.253   5.440 -0.7043  0.6506 -0.1110
  181MOL   O12247282   0.839   7.296   5.341  0.6067  0.7570 -0.5004
  181MOL   C12347283   1.050   7.280   5.451  0.0869 -0.4589 -0.1130
  181MOL   C12447284   0.644   7.131   5.671  0.1626  0.4009  1.0814
  181MOL   H12547285   0.643   7.198   5.472 -0.5943 -0.6435 -0.2334
  181MOL   H12647286   0.902   7.137   5.601 -0.6188 -3.1887 -1.8886
  181MOL   H12747287   1.110   7.205   5.398  0.2952 -1.0709  0.9749
  181MOL   H12847288   1.078   7.379   5.415  1.5651 -0.6929  0.3600
  181MOL   H12947289   1.079   7.289   5.555 -0.2811 -0.5310 -0.0047
  181MOL   H13047290   0.645   7.038   5.728 -1.8583 -0.7993 -0.7707
  181MOL   H13147291   0.692   7.199   5.741  0.1816 -0.0248  1.4882
  181MOL   C13247292   0.490   7.171   5.674 -0.7330  0.1643  0.0096
  181MOL   N13347293   0.453   7.196   5.814  0.2495 -0.6760 -0.0798
  181MOL   C13447294   0.408   7.323   5.852 -0.4248  0.2797  0.4169
  181MOL   O13547295   0.384   7.412   5.777 -0.2943  0.2184  0.4502
  181MOL   C13647296   0.395   7.350   5.999  0.6463 -0.1740  0.5852
  181MOL   C13747297   0.394   7.067   5.610  0.0103  0.2268 -0.8612
  181MOL   H13847298   0.487   7.264   5.618  1.6842 -0.1130 -0.6362
  181MOL   H13947299   0.448   7.122   5.884 -0.2236  1.0114  1.7253
  181MOL   H14047300   0.457   7.283   6.058  1.2765 -0.6209 -0.5705
  181MOL   H14147301   0.436   7.449   6.013 -2.5664  1.0970  1.5122
  181MOL   H14247302   0.289   7.351   6.023  0.5548 -0.7741  0.2257
  181MOL   H14347303   0.400   7.060   5.502 -1.3087  1.4783 -1.0384
  181MOL   H14447304   0.416   6.970   5.655  0.1053 -0.2957 -2.0326
  181MOL   C14547305   0.245   7.095   5.616  0.7539 -0.0394 -1.1056
  181MOL   N14647306   0.225   7.238   5.593  0.7352  0.3660  0.1704
  181MOL   C14747307   0.121   7.291   5.523 -0.0941  0.5579  0.1220
  181MOL   O14847308   0.014   7.220   5.500  0.0276  0.2437 -0.2179
  181MOL   C14947309   0.108   7.442   5.497  0.1552 -0.1573 -0.0080
  181MOL   C15047310   0.181   7.052   5.751 -0.2724 -0.1636 -0.2123
  181MOL   H15147311   0.207   7.031   5.537 -0.2315 -0.0009 -0.6690
  181MOL   H15247312   0.291   7.302   5.635  0.9614 -0.2949  0.8305
  181MOL   H15347313   0.204   7.477   5.460  0.2409 -0.6108 -0.2153
  181MOL   H15447314   0.035   7.453   5.417 -2.0523 -0.9256  1.8691
  181MOL   H15547315   0.071   7.505   5.578 -1.3569 -1.2660  0.1904
  181MOL   H15647316   0.230   7.105   5.833  1.6506  1.2750 -2.2082
  181MOL   H15747317   0.079   7.090   5.761 -0.1138  0.2591 -0.1927
  181MOL   C15847318   0.174   6.902   5.776 -0.0932  0.3300  0.1777
  181MOL   N15947319   0.077   6.834   5.688  0.1574 -0.4249 -0.6209
  181MOL   C16047320   0.094   6.740   5.597 -0.0658 -0.7311 -0.0929
  181MOL   O16147321   0.000   6.694   5.525 -0.3853  0.0951  0.3125
  181MOL   C16247322   0.239   6.687   5.563 -0.0595 -0.7930  0.1859
  181MOL   C16347323   0.117   6.876   5.916  0.0886 -0.0154 -0.0497
  181MOL   H16447324   0.273   6.857   5.766 -0.2719  0.3588 -2.0168
  181MOL   H16547325   7.819   6.850   5.704 -0.3736 -3.9449 -0.0152
  181MOL   H16647326   0.232   6.606   5.491 -2.3367  0.0268 -0.5730
  181MOL   H16747327   0.297   6.762   5.509  1.2639 -0.9743  1.3307
  181MOL   H16847328   0.304   6.670   5.649 -0.0780  1.9490  0.7929
  181MOL   H16947329   0.012   6.907   5.919 -0.2859 -1.4332  2.8172
  181MOL   H17047330   0.107   6.769   5.935 -1.4518 -0.2088 -1.7977
  181MOL   C17147331   0.194   6.927   6.041 -0.5764 -0.1940 -0.1738
  181MOL   N17247332   0.316   6.848   6.049  0.5539  0.4225 -0.3789
  181MOL   C17347333   0.444   6.891   6.041 -0.0202  1.2089 -0.9456
  181MOL   O17447334   0.471   7.004   6.020  0.1113  0.2958 -0.5811
  181MOL   C17547335   0.556   6.792   6.054  0.3354  0.3510  0.0445
  181MOL   C17647336   0.095   6.906   6.160  1.0492  1.4702  0.0625
  181MOL   H17747337   0.222   7.032   6.030  0.6854 -0.6024 -0.8893
  181MOL   H17847338   0.308   6.747   6.049 -1.5550  0.5702  0.5172
  181MOL   H17947339   0.514   6.692   6.044  2.4482 -0.4767 -0.9157
  181MOL   H18047340   0.629   6.811   5.975  1.2638 -0.8768  0.5805
  181MOL   H18147341   0.599   6.816   6.151  0.2864  0.0999  0.1284
  181MOL   H18247342   0.002   6.959   6.140  0.0793 -0.2801 -0.2034
  181MOL   H18347343   0.063   6.803   6.178 -2.7378  2.4671 -0.4195
  181MOL   C18447344   0.147   6.966   6.293  0.3752 -0.1130 -0.0006
  181MOL   N18547345   0.072   6.905   6.404  0.6500 -0.8629 -0.2084
  181MOL   C18647346   7.786   6.865   6.411  0.6545 -0.0473  0.5779
  181MOL   O18747347   7.701   6.853   6.319 -0.8365  0.4016  0.2947
  181MOL   C18847348   7.750   6.842   6.550 -0.0819 -0.7561 -0.6637
  181MOL   C18947349   0.126   7.123   6.287 -0.1285 -0.1560 -0.0008
  181MOL   H19047350   0.254   6.950   6.305 -0.0807 -2.2555  1.5151
  181MOL   H19147351   0.124   6.917   6.490  2.4806  0.0861 -1.4196
  181MOL   H19247352   7.662   6.778   6.563  0.4935 -1.2491  0.9438
  181MOL   H19347353   7.822   6.780   6.603 -0.1272 -2.3481 -2.4199
  181MOL   H19447354   7.728   6.931   6.609  1.2988 -1.4782  0.9835
  181MOL   H19547355   0.142   7.169   6.189 -1.5195 -1.4071 -0.8343
  181MOL   H19647356   0.019   7.143   6.292 -0.1524 -0.8435  2.9334
  181MOL   C19747357   0.190   7.209   6.400 -0.1796  0.4756 -0.2615
  181MOL   N19847358   0.167   7.162   6.536  0.4391  0.0280  0.2294
  181MOL   C19947359   0.251   7.089   6.616 -0.1820  0.5346  0.1490
  181MOL   O20047360   0.357   7.044   6.570  0.2175 -0.0377 -0.0784
  181MOL   C20147361   0.194   7.040   6.753 -0.7516 -0.0876  0.2363
  181MOL   C20247362   0.145   7.354   6.374 -0.5820 -0.5871  0.3150
  181MOL   H20347363   0.298   7.204   6.383 -0.6074 -0.8934 -2.9157
  181MOL   H20447364   0.075   7.173   6.576  0.1299  2.4901 -1.0612
  181MOL   H20547365   0.175   7.131   6.811  0.2164 -0.3734  1.0063
  181MOL   H20647366   0.093   7.004   6.733 -0.8697  0.3094  0.1098
  181MOL   H20747367   0.257   6.961   6.793 -2.1332 -2.0930 -1.4761
  181MOL   H20847368   0.140   7.381   6.268  0.0223  1.2077  0.7112
  181MOL   H20947369   0.047   7.373   6.417 -0.0983 -0.8901  1.5693
  181MOL   C21047370   0.246   7.458   6.415  0.5268 -0.8103  0.4367
  181MOL   N21147371   0.293   7.439   6.549 -0.0345 -0.4764 -0.3644
  181MOL   C21247372   0.416   7.437   6.597  0.1544 -0.5124  0.0256
  181MOL   O21347373   0.521   7.438   6.530  0.3421  0.1714 -0.0303
  181MOL   C21447374   0.435   7.403   6.747  0.7172 -0.1875  0.1402
  181MOL   C21547375   0.187   7.603   6.407 -0.6588  0.1273 -0.7359
  181MOL   H21647376   0.330   7.448   6.347  1.5341 -0.7072  1.6488
  181MOL   H21747377   0.214   7.428   6.611 -0.2100  1.1393 -0.2797
  181MOL   H21847378   0.371   7.319   6.778 -1.1929  1.7268  1.5374
  181MOL   H21947379   0.538   7.370   6.757  0.4712 -1.3122 -0.8209
  181MOL   H22047380   0.419   7.483   6.818  0.1608  0.5167 -0.7718
  181MOL   H22147381   0.091   7.581   6.360 -1.9667  0.3330  1.7160
  181MOL   H22247382   0.160   7.636   6.508  2.5068 -0.8225  0.5006
  181MOL   C22347383   0.263   7.713   6.338  0.3161 -0.1482 -0.0984
  181MOL   N22447384   0.201   0.001   6.342  0.2283 -0.0662 -0.1299
  181MOL   C22547385   0.074   0.029   6.297 -0.0398  0.1603  0.1895
  181MOL   O22647386   7.833   7.787   6.250 -0.8815 -0.1068  0.7733
  181MOL   C22747387   0.020   0.170   6.314  0.5712  0.4854  1.0644
  181MOL   C22847388   0.322   7.685   6.202 -1.0362  0.1313 -0.1363
  181MOL   H22947389   0.347   7.732   6.405  0.7248  0.9555 -0.8922
  181MOL   H23047390   0.266   0.066   6.384 -0.9206 -0.3964  2.2726
  181MOL   H23147391   0.095   0.232   6.364  0.6792 -0.4715  2.1224
  181MOL   H23247392   7.814   0.213   6.225 -0.2028 -1.8255  0.3174
  181MOL   H23347393   7.763   0.159   6.364 -0.0493  0.9909 -0.0251
  181MOL   H23447394   0.307   7.581   6.174  0.1525  0.0048 -0.3119
  181MOL   H23547395   0.265   7.739   6.126 -1.9584 -2.3064 -1.2306
  181MOL   C23647396   0.472   7.720   6.188  0.3173  0.4625  0.5238
  181MOL   N23747397   0.497   7.728   6.044  0.6280  0.5267 -0.1938
  181MOL   C23847398   0.474   7.837   5.967 -0.0066 -0.3608 -0.0592
  181MOL   O23947399   0.424   0.093   6.022  0.9745 -0.3619 -0.0487
  181MOL   C24047400   0.513   7.835   5.813 -0.4469 -0.3779 -0.2091
  181MOL   C24147401   0.566   7.615   6.255  0.1774 -0.4022 -0.3974
  181MOL   H24247402   0.489   7.819   6.231  1.0241  0.1942  0.8674
  181MOL   H24347403   0.541   7.646   6.004  1.1891 -0.1391  1.7392
  181MOL   H24447404   0.520   7.733   5.775 -0.1897 -0.6202  0.4747
  181MOL   H24547405   0.429   0.034   5.756  0.1624  1.1663 -0.0829
  181MOL   H24647406   0.593   0.066   5.792 -1.2916  0.3348 -1.0829
  181MOL   H24747407   0.550   7.628   6.363 -0.4690  0.5995 -0.6095
  181MOL   H24847408   0.538   7.510   6.241  1.6778 -0.6863 -1.3719
  181MOL   C24947409   0.718   7.634   6.233 -0.3749  0.6577  0.5511
  181MOL   N25047410   0.776   7.557   6.122  0.8992  0.2095  0.2165
  181MOL   C25147411   0.818   7.602   6.006  0.2332 -0.3693  0.5021
  181MOL   O25247412   0.819   7.723   5.971  0.0570  0.2962  0.2097
  181MOL   C25347413   0.853   7.498   5.902  0.3356  1.1030  0.3823
  181MOL   C25447414   0.804   7.602   6.364  0.3510  0.0455  0.0670
  181MOL   H25547415   0.737   7.738   6.205  1.6380  0.2897  0.4766
  181MOL   H25647416   0.774   7.457   6.123 -0.7019  0.1673 -2.5035
  181MOL   H25747417   0.915   7.419   5.943  0.3731  1.0408  0.2031
  181MOL   H25847418   0.761   7.462   5.856  1.1128 -0.5499  0.1025
  181MOL   H25947419   0.904   7.534   5.813 -1.8938 -1.2848 -1.9489
  181MOL   H26047420   0.910   7.630   6.357  0.9691 -2.2819 -0.2712
  181MOL   H26147421   0.766   7.656   6.450  1.9465  0.3228  0.6254
  181MOL   H26247422   0.788   7.497   6.388 -0.0953 -0.3260 -1.8013
  182MOL     C147423   1.109   4.136   3.851 -0.2999  0.7453  0.6741
  182MOL     N247424   1.248   4.149   3.881 -0.9352  0.1609  0.4660
  182MOL     C347425   1.318   4.260   3.846  0.3871 -0.1819 -0.4611
  182MOL     O447426   1.269   4.367   3.812  0.0917 -0.2739 -0.0197
  182MOL     C547427   1.466   4.244   3.853 -0.5757 -0.5579  0.2157
  182MOL     C647428   1.079   3.987   3.850 -0.1327  0.6503 -0.3729
  182MOL     H747429   1.041   4.177   3.926 -2.0419 -1.7016  0.4849
  182MOL     H847430   1.310   4.078   3.915 -0.2785  1.4172  1.9303
  182MOL     H947431   1.517   4.327   3.903 -1.0383 -1.2386  1.8236
  182MOL    H1047432   1.495   4.149   3.897  2.0063  0.1012  0.0725
  182MOL    H1147433   1.498   4.244   3.749 -1.1936  0.7093  0.0206
  182MOL    H1247434   1.133   3.937   3.769  0.9470  2.6156 -0.9272
  182MOL    H1347435   1.115   3.945   3.944  1.2753  1.9194 -0.3167
  182MOL    H1447436   1.098   4.189   3.757 -0.8335 -0.7733 -0.1451
  182MOL    C1547437   0.929   3.964   3.820  0.8610  0.0317 -0.6387
  182MOL    N1647438   0.860   3.992   3.949  0.3422 -0.5905 -0.1474
  182MOL    C1747439   0.755   4.075   3.967  0.3939  0.6626  0.1992
  182MOL    O1847440   0.717   4.150   3.872  0.2083 -0.3406 -0.1052
  182MOL    C1947441   0.690   4.079   4.103  0.6533 -0.6347 -0.4354
  182MOL    C2047442   0.902   3.814   3.765  0.4352  0.0067 -0.5416
  182MOL    H2147443   0.905   4.035   3.742  1.3192  2.2711  1.2023
  182MOL    H2247444   0.884   3.931   4.026 -1.0658 -0.7795  0.1663
  182MOL    H2347445   0.641   3.983   4.117  1.8179 -1.3307 -1.0301
  182MOL    H2447446   0.756   4.098   4.187 -1.0482  1.7037  0.4112
  182MOL    H2547447   0.606   4.147   4.105 -1.0323 -2.7032  1.5440
  182MOL    H2647448   0.968   3.784   3.684  0.8577 -2.8329  0.8029
  182MOL    H2747449   0.949   3.759   3.846 -1.9615  1.4110  1.8777
  182MOL    C2847450   0.758   3.769   3.752 -0.5765  0.9907  0.0364
  182MOL    N2947451   0.751   3.630   3.790 -0.1628 -0.1386 -0.7402
  182MOL    C3047452   0.700   3.585   3.905  0.7830 -0.3910 -0.2042
  182MOL    O3147453   0.666   3.654   4.003 -0.5607 -0.3534  0.0176
  182MOL    C3247454   0.689   3.432   3.921 -0.1329 -0.0581 -0.2378
  182MOL    C3347455   0.700   3.786   3.607  0.2758  0.3232 -0.2299
  182MOL    H3447456   0.700   3.823   3.826 -0.8012 -2.2823  2.3455
  182MOL    H3547457   0.805   3.562   3.738 -1.6705 -0.5304 -1.8378
  182MOL    H3647458   0.605   3.399   3.982  0.3305 -1.1150 -0.1605
  182MOL    H3747459   0.671   3.378   3.828  0.8180 -1.8300  0.5730
  182MOL    H3847460   0.781   3.389   3.959  1.7526  1.5308 -2.8330
  182MOL    H3947461   0.689   3.893   3.594 -3.1493  0.2408  1.3902
  182MOL    H4047462   0.773   3.758   3.531  0.5630 -2.2297  0.9203
  182MOL    C4147463   0.553   3.727   3.581  0.2074 -0.1007 -0.1496
  182MOL    N4247464   0.514   3.711   3.441  0.0886 -0.0646 -0.2086
  182MOL    C4347465   0.532   3.799   3.341  0.0044 -0.7819 -0.7631
  182MOL    O4447466   0.591   3.906   3.351 -0.2907  0.3164 -0.2750
  182MOL    C4547467   0.474   3.764   3.205  0.8233  0.2920 -0.2216
  182MOL    C4647468   0.450   3.818   3.654 -0.3982  0.3093 -0.2007
  182MOL    H4747469   0.548   3.628   3.627  2.8282  0.2423  1.0292
  182MOL    H4847470   0.472   3.623   3.415 -1.0382  0.4106 -0.0730
  182MOL    H4947471   0.369   3.765   3.232  0.3832  1.7450 -1.8712
  182MOL    H5047472   0.492   3.842   3.131 -0.4042  0.5532 -0.2417
  182MOL    H5147473   0.510   3.666   3.174  0.6941  0.2094 -0.1057
  182MOL    H5247474   0.487   3.838   3.755  1.6246 -1.2063 -0.5896
  182MOL    H5347475   0.447   3.912   3.600  0.9598  0.8311  0.5931
  182MOL    C5447476   0.315   3.750   3.661  0.7949  0.9591 -0.2377
  182MOL    N5547477   0.246   3.739   3.539 -0.0002  0.1993  0.4453
  182MOL    C5647478   0.174   3.633   3.497  0.4102 -0.4161  0.1868
  182MOL    O5747479   0.174   3.529   3.562 -0.1375 -0.2876  0.4960
  182MOL    C5847480   0.096   3.636   3.366 -0.2547 -0.0854  0.1331
  182MOL    C5947481   0.222   3.818   3.771 -0.3460  0.5554  1.2700
  182MOL    H6047482   0.337   3.648   3.695  2.6222  0.8052 -1.7609
  182MOL    H6147483   0.247   3.815   3.471 -1.0496 -0.7049 -0.6190
  182MOL    H6247484   0.092   3.541   3.313 -2.8596 -1.1872  2.2256
  182MOL    H6347485   7.836   3.679   3.375 -0.5232  0.0440 -2.8266
  182MOL    H6447486   0.137   3.709   3.296  0.9245 -1.2808 -0.4515
  182MOL    H6547487   0.202   3.918   3.734  0.3386 -0.6342 -2.5039
  182MOL    H6647488   0.123   3.774   3.756  0.4656 -0.3793 -1.6605
  182MOL    C6747489   0.254   3.816   3.920 -0.2873  0.4542 -0.0107
  182MOL    N6847490   0.272   3.682   3.958 -0.5613  0.3713  0.4372
  182MOL    C6947491   0.181   3.584   3.962  0.3386 -0.5270  0.3429
  182MOL    O7047492   0.065   3.602   3.972  0.1498  0.0850  0.3121
  182MOL    C7147493   0.233   3.439   3.951 -0.1822 -0.3517 -0.9651
  182MOL    C7247494   0.149   3.892   4.008 -1.1642  0.2240  0.2955
  182MOL    H7347495   0.349   3.868   3.928 -0.4374  0.6267  0.6173
  182MOL    H7447496   0.371   3.660   3.956 -0.7564 -0.7650  2.4402
  182MOL    H7547497   0.269   3.398   4.046  1.7086  1.1921 -1.0003
  182MOL    H7647498   0.158   3.365   3.922 -1.4055  0.1962  0.7097
  182MOL    H7747499   0.312   3.432   3.876 -0.5886 -1.3560 -1.3078
  182MOL    H7847500   0.157   4.000   3.993 -2.1933  0.3767  0.7759
  182MOL    H7947501   0.044   3.867   3.990 -1.5333  2.0219 -0.1941
  182MOL    C8047502   0.161   3.868   4.158  0.3629  0.1110  0.5324
  182MOL    N8147503   0.033   3.912   4.217 -0.4320 -0.6189  0.2042
  182MOL    C8247504   7.817   3.872   4.333  0.4373  0.0448  0.6375
  182MOL    O8347505   0.040   3.804   4.413  0.4971 -0.1464 -0.1337
  182MOL    C8447506   7.677   3.917   4.367  0.5430 -0.3742  0.7722
  182MOL    C8547507   0.283   3.944   4.208 -0.4862  0.0660 -0.2306
  182MOL    H8647508   0.169   3.764   4.188  1.4799 -0.0188 -0.1708
  182MOL    H8747509   7.808   3.954   4.152 -0.7698  1.3117  1.7118
  182MOL    H8847510   7.614   3.829   4.354  0.5526 -0.3261  0.4006
  182MOL    H8947511   7.659   3.958   4.467 -0.4643  1.0065  0.0267
  182MOL    H9047512   7.642   3.997   4.302  0.6007  1.9800  3.5110
  182MOL    H9147513   0.362   3.958   4.135 -0.8819  1.7870 -0.3525
  182MOL    H9247514   0.247   4.044   4.235  0.8492  0.2173  1.0951
  182MOL    C9347515   0.357   3.884   4.328  0.0227  0.1149  0.1492
  182MOL    N9447516   0.469   3.977   4.371  0.3909  0.6610  0.6044
  182MOL    C9547517   0.450   4.079   4.452 -0.4806 -0.6950  0.7146
  182MOL    O9647518   0.340   4.132   4.479  0.3921 -0.1459 -0.4123
  182MOL    C9747519   0.572   4.152   4.506 -0.5396 -0.1340  0.4246
  182MOL    C9847520   0.425   3.747   4.303 -0.2119 -0.7102  0.3052
  182MOL    H9947521   0.287   3.876   4.412 -1.0420  1.0814 -0.6342
  182MOL   H10047522   0.564   3.947   4.351  0.0510  1.3242 -2.3091
  182MOL   H10147523   0.585   4.241   4.444  0.2446  0.0646  0.8625
  182MOL   H10247524   0.555   4.192   4.606  0.4655 -0.1304  0.5965
  182MOL   H10347525   0.664   4.094   4.498  0.2778  1.2270 -0.1763
  182MOL   H10447526   0.354   3.670   4.274 -0.8745 -0.4861  1.3322
  182MOL   H10547527   0.487   3.759   4.214  0.1632 -1.2825  0.4878
  182MOL   C10647528   0.504   3.689   4.422 -0.0342 -0.2354 -0.5405
  182MOL   N10747529   0.632   3.632   4.379  0.1249  0.4439 -0.0116
  182MOL   C10847530   0.741   3.704   4.346  0.2406 -0.9862  0.0873
  182MOL   O10947531   0.751   3.825   4.350  0.2854 -0.2155  0.1391
  182MOL   C11047532   0.874   3.624   4.316  0.2680  0.6226 -0.2783
  182MOL   C11147533   0.429   3.571   4.481  0.0358 -0.6823 -0.0130
  182MOL   H11247534   0.527   3.762   4.499  1.3823 -1.9203  0.6817
  182MOL   H11347535   0.646   3.534   4.363  4.7742  1.2433 -1.7498
  182MOL   H11447536   0.876   3.551   4.397  1.4576  2.1068  1.0587
  182MOL   H11547537   0.876   3.583   4.215 -0.7907 -0.1862  0.0232
  182MOL   H11647538   0.962   3.688   4.322 -0.7733  1.9223  1.2068
  182MOL   H11747539   0.419   3.489   4.410 -0.9368 -0.1710 -0.4719
  182MOL   H11847540   0.489   3.525   4.560  0.7911 -0.1132 -0.2498
  182MOL   C11947541   0.293   3.601   4.540  0.4948 -1.2344  0.1103
  182MOL   N12047542   0.276   3.731   4.616 -0.3753  0.2881 -0.1712
  182MOL   C12147543   0.343   3.781   4.722  0.1541 -0.6771 -0.0585
  182MOL   O12247544   0.443   3.721   4.765 -0.4221  0.3622  0.7620
  182MOL   C12347545   0.299   3.912   4.782 -0.2416 -0.1735 -0.6272
  182MOL   C12447546   0.246   3.488   4.628 -0.2471 -0.0163  0.0008
  182MOL   H12547547   0.217   3.623   4.465  0.1927  0.0619  0.7642
  182MOL   H12647548   0.198   3.789   4.586 -0.5097  0.4301  0.4420
  182MOL   H12747549   0.346   3.941   4.876 -2.0238 -0.9453  0.5364
  182MOL   H12847550   0.333   3.977   4.702  1.6655 -0.4751 -0.0783
  182MOL   H12947551   0.193   3.939   4.787 -0.3403 -0.2869 -1.9181
  182MOL   H13047552   0.308   3.493   4.718 -1.7791  0.4873  1.0564
  182MOL   H13147553   0.140   3.498   4.653 -0.1968  1.7437 -0.4287
  182MOL   C13247554   0.265   3.347   4.566  0.3037  0.0003  0.1796
  182MOL   N13347555   0.176   3.339   4.454  0.3760 -0.2739 -0.2789
  182MOL   C13447556   0.198   3.292   4.335 -0.3420 -0.0922  0.1846
  182MOL   O13547557   0.312   3.258   4.301  0.2855 -0.4661  0.0232
  182MOL   C13647558   0.089   3.303   4.226 -0.1201 -0.6549  0.5031
  182MOL   C13747559   0.244   3.240   4.675 -0.0162 -0.2392  0.0410
  182MOL   H13847560   0.369   3.338   4.536  0.8514  0.4161  1.9039
  182MOL   H13947561   0.091   3.393   4.466 -0.2527 -1.5279  1.1400
  182MOL   H14047562   0.075   3.410   4.210  3.1461 -0.0854  0.9887
  182MOL   H14147563   0.114   3.251   4.133 -1.2152  0.3855 -0.3859
  182MOL   H14247564   7.837   3.257   4.264 -0.3972 -0.1862  0.4046
  182MOL   H14347565   0.293   3.274   4.766 -2.1501  2.2517  0.3210
  182MOL   H14447566   0.138   3.242   4.700  0.0286  2.0246  0.1552
  182MOL   C14547567   0.299   3.092   4.638 -0.4812 -0.8661  0.0241
  182MOL   N14647568   0.193   2.998   4.684  0.0675  0.0160 -0.3160
  182MOL   C14747569   0.167   2.966   4.811  0.2784 -0.0340  0.3253
  182MOL   O14847570   0.212   3.020   4.908 -0.1154 -0.3115 -0.0803
  182MOL   C14947571   0.076   2.842   4.836  0.2247 -0.5600  0.2362
  182MOL   C15047572   0.443   3.056   4.683 -0.5171 -0.2190 -0.1133
  182MOL   H15147573   0.280   3.082   4.531  0.2117  0.4920 -0.2499
  182MOL   H15247574   0.163   2.934   4.612 -0.0314 -1.6893  1.2002
  182MOL   H15347575   0.104   2.785   4.925 -0.6321  0.7034  1.3356
  182MOL   H15447576   7.810   2.865   4.846  0.4939  1.8782 -2.1381
  182MOL   H15547577   0.083   2.775   4.751 -2.1711  2.0123 -2.0854
  182MOL   H15647578   0.444   3.051   4.792  0.1147  0.1293 -0.0941
  182MOL   H15747579   0.465   2.954   4.652 -1.9542 -0.0057 -1.9153
  182MOL   C15847580   0.559   3.142   4.624  0.1836 -0.0511 -0.1419
  182MOL   N15947581   0.549   3.143   4.479  0.0445 -0.4900  0.2364
  182MOL   C16047582   0.602   3.240   4.406  0.2099 -0.8967  0.5306
  182MOL   O16147583   0.646   3.344   4.462 -0.1372 -0.1620  0.4088
  182MOL   C16247584   0.607   3.233   4.256 -0.9050  0.1340  0.1206
  182MOL   C16347585   0.703   3.107   4.672 -0.2319  0.4454 -0.2122
  182MOL   H16447586   0.526   3.239   4.661  1.4484  0.8586 -1.3673
  182MOL   H16547587   0.511   3.063   4.429 -0.5182 -0.4825  0.6528
  182MOL   H16647588   0.710   3.247   4.222 -1.4169  2.4020 -0.5799
  182MOL   H16747589   0.587   3.134   4.215  2.4249 -0.2009 -0.8694
  182MOL   H16847590   0.538   3.302   4.208  3.4199  3.3072 -1.8111
  182MOL   H16947591   0.706   3.000   4.693  3.2141  0.5332  0.0306
  182MOL   H17047592   0.769   3.120   4.587  1.2614  0.4349  0.9266
  182MOL   C17147593   0.758   3.193   4.785 -0.1298 -0.5615  0.1054
  182MOL   N17247594   0.765   3.332   4.743 -0.1111 -0.4442 -0.1852
  182MOL   C17347595   0.771   3.443   4.821  0.4336 -0.2722 -0.4490
  182MOL   O17447596   0.777   3.432   4.945  0.0466  0.0125  0.4811
  182MOL   C17547597   0.760   3.575   4.750  0.9703  0.3493  0.4102
  182MOL   C17647598   0.902   3.159   4.837  0.0350 -0.1619 -0.2845
  182MOL   H17747599   0.690   3.189   4.869  1.1962 -0.9138  1.1872
  182MOL   H17847600   0.752   3.344   4.644  0.6253  0.2991 -0.1928
  182MOL   H17947601   0.700   3.644   4.810  1.9784  2.0269 -0.4546
  182MOL   H18047602   0.856   3.622   4.726  0.0751  2.1007  0.1753
  182MOL   H18147603   0.708   3.558   4.656  1.6441 -1.8671  0.4273
  182MOL   H18247604   0.975   3.180   4.758  1.7164  0.2516  1.3474
  182MOL   H18347605   0.922   3.225   4.921  1.3656 -1.9781  0.8812
  182MOL   C18447606   0.923   3.010   4.880 -0.4721  1.0369 -0.1307
  182MOL   N18547607   0.862   2.976   5.006 -0.4190 -0.2755  0.0125
  182MOL   C18647608   0.740   2.939   5.040  0.3404 -0.0794 -0.3749
  182MOL   O18747609   0.653   2.925   4.955  0.3252 -0.1169 -0.3860
  182MOL   C18847610   0.718   2.905   5.188  0.5754 -0.0411 -0.3377
  182MOL   C18947611   1.071   2.962   4.880 -0.3014 -0.5768  0.4672
  182MOL   H19047612   0.874   2.954   4.800 -0.3714  1.2672 -0.3523
  182MOL   H19147613   0.927   2.962   5.083 -0.2984 -1.1293 -0.2449
  182MOL   H19247614   0.804   2.928   5.251 -0.8323  0.5945  1.4044
  182MOL   H19347615   0.643   2.972   5.230 -0.8289 -1.4071 -0.6349
  182MOL   H19447616   0.699   2.799   5.206  0.1575  0.3270  1.4927
  182MOL   H19547617   1.119   3.043   4.935 -2.4595  1.5409 -0.6584
  182MOL   H19647618   1.082   2.866   4.929  1.5629 -0.2286  0.7936
  182MOL   C19747619   1.139   2.953   4.743  0.4313  0.1755  0.0907
  182MOL   N19847620   1.059   2.883   4.642 -0.0541  0.6080 -0.7150
  182MOL   C19947621   1.002   2.934   4.536 -0.1466 -0.0062  0.2679
  182MOL   O20047622   1.028   3.046   4.488  0.5842 -0.0637 -0.2901
  182MOL   C20147623   0.882   2.855   4.490  0.3226 -0.0506 -0.4018
  182MOL   C20247624   1.273   2.877   4.757  0.2095  0.1531  0.2801
  182MOL   H20347625   1.163   3.053   4.705  0.3143 -0.2758 -1.1903
  182MOL   H20447626   1.021   2.791   4.659  0.8846  0.2664 -0.3845
  182MOL   H20547627   0.814   2.823   4.570 -0.5629  0.6631 -0.8589
  182MOL   H20647628   0.821   2.926   4.435 -1.2359 -1.3708 -0.4118
  182MOL   H20747629   0.898   2.773   4.419 -1.4540 -2.4923  1.8903
  182MOL   H20847630   1.256   2.780   4.803 -2.8388  0.8066  0.5782
  182MOL   H20947631   1.323   2.864   4.660 -0.7312 -2.8075  0.1431
  182MOL   C21047632   1.375   2.945   4.846  0.0391  0.4921 -0.0823
  182MOL   N21147633   1.392   3.086   4.815  0.2260  0.3698  0.2757
  182MOL   C21247634   1.360   3.179   4.903  0.0942 -0.0484  0.1195
  182MOL   O21347635   1.347   3.155   5.024  0.0459  0.5743 -0.1562
  182MOL   C21447636   1.315   3.314   4.852  0.4732  0.0880 -0.2594
  182MOL   C21547637   1.518   2.877   4.854 -0.3550  0.5213 -0.5544
  182MOL   H21647638   1.339   2.933   4.948  2.6994  3.2049  1.2537
  182MOL   H21747639   1.391   3.115   4.718  1.3912  0.9472  0.4254
  182MOL   H21847640   1.210   3.329   4.826  0.5479  3.6628  1.1184
  182MOL   H21947641   1.327   3.379   4.939 -0.7537 -2.5830  1.9649
  182MOL   H22047642   1.388   3.348   4.778  0.0450  2.4019  0.3438
  182MOL   H22147643   1.583   2.898   4.770  0.8623  1.5752  0.6158
  182MOL   H22247644   1.558   2.931   4.941 -1.9497  0.3225  0.3227
  182MOL   C22347645   1.524   2.727   4.889  0.2136 -0.1456 -0.5602
  182MOL   N22447646   1.652   2.704   4.956 -0.2745  0.5608 -0.5985
  182MOL   C22547647   1.692   2.613   5.042  0.7443 -0.2317 -0.3916
  182MOL   O22647648   1.615   2.524   5.087 -0.0615  0.1733  0.9003
  182MOL   C22747649   1.838   2.609   5.085 -0.2063  0.3207 -0.1978
  182MOL   C22847650   1.502   2.622   4.779  0.3461 -0.1972  0.1477
  182MOL   H22947651   1.453   2.718   4.972  2.2081 -0.2835  1.1657
  182MOL   H23047652   1.720   2.776   4.935  0.7493  0.3922  1.9602
  182MOL   H23147653   1.855   2.605   5.192  0.3650 -1.8358 -0.3565
  182MOL   H23247654   1.889   2.521   5.045  0.6958  0.3568  0.8496
  182MOL   H23347655   1.890   2.699   5.053  0.0082  0.3426  0.2084
  182MOL   H23447656   1.531   2.524   4.817  2.8569 -0.3991 -2.0853
  182MOL   H23547657   1.396   2.612   4.761  0.4432 -1.1535  0.1254
  182MOL   C23647658   1.583   2.631   4.644 -0.6239 -0.1620  1.0624
  182MOL   N23747659   1.488   2.634   4.531 -0.0989  0.6268 -0.2794
  182MOL   C23847660   1.383   2.551   4.515  0.6621 -0.6610  0.0540
  182MOL   O23947661   1.360   2.448   4.578 -0.1749 -0.1108 -0.7243
  182MOL   C24047662   1.286   2.580   4.399 -0.3972  0.6033  0.2813
  182MOL   C24147663   1.692   2.525   4.605 -0.5334 -0.5615  0.2697
  182MOL   H24247664   1.630   2.729   4.632 -1.2334 -0.0127 -0.2606
  182MOL   H24347665   1.519   2.701   4.462  0.6681  1.3355  0.7280
  182MOL   H24447666   1.186   2.595   4.441 -0.3303  2.2500 -0.1247
  182MOL   H24547667   1.325   2.670   4.352 -0.8646  0.9579  0.5678
  182MOL   H24647668   1.297   2.499   4.328  1.7632  0.6783  0.5046
  182MOL   H24747669   1.653   2.426   4.630  0.5289 -1.3973 -1.2321
  182MOL   H24847670   1.710   2.515   4.498 -1.6367 -1.6298  0.1816
  182MOL   C24947671   1.837   2.534   4.669  1.1360  0.6019  0.1304
  182MOL   N25047672   1.898   2.644   4.597  0.0698 -0.3111 -0.7453
  182MOL   C25147673   1.925   2.763   4.656 -0.1251  0.0872  0.0073
  182MOL   O25247674   1.897   2.786   4.774 -0.2174 -0.3736 -0.3902
  182MOL   C25347675   2.007   2.860   4.572 -0.1995  0.4573 -0.1103
  182MOL   C25447676   1.928   2.412   4.645  0.2911 -0.4402  0.5582
  182MOL   H25547677   1.834   2.559   4.775  0.1047  2.1439 -0.2372
  182MOL   H25647678   1.929   2.634   4.501 -1.9588 -3.0212 -1.1993
  182MOL   H25747679   2.045   2.934   4.642  1.1367 -1.5972  1.4017
  182MOL   H25847680   2.096   2.812   4.531  0.1933 -0.2644  1.5323
  182MOL   H25947681   1.931   2.896   4.503 -0.1278  0.0575 -0.4000
  182MOL   H26047682   1.905   2.366   4.548  0.6914 -1.0993  0.7719
  182MOL   H26147683   2.033   2.438   4.645  0.5858 -1.5972 -0.1685
  182MOL   H26247684   1.916   2.328   4.714 -2.3095 -0.9083 -0.3864
  183MOL     C147685   3.465   2.524   6.586  0.1697 -0.1408 -0.3120
  183MOL     N247686   3.607   2.517   6.562  0.2707 -0.0503  0.1298
  183MOL     C347687   3.677   2.502   6.446  0.1785  0.2659 -0.2176
  183MOL     O447688   3.622   2.474   6.347 -0.0508 -1.0427  0.3881
  183MOL     C547689   3.829   2.501   6.448 -0.0213 -0.1138  0.0862
  183MOL     C647690   3.426   2.445   6.705  0.3564  0.5223  0.4055
  183MOL     H747691   3.452   2.632   6.597 -1.3746 -0.0816 -2.4284
  183MOL     H847692   3.655   2.539   6.648 -0.8506  1.8182  0.3047
  183MOL     H947693   3.860   2.416   6.387 -2.0840  1.7734 -3.7467
  183MOL    H1047694   3.874   2.584   6.395 -0.1922  0.4045  0.7443
  183MOL    H1147695   3.869   2.496   6.550 -0.5534 -1.6505  0.2445
  183MOL    H1247696   3.413   2.341   6.678  1.6611  0.1954  1.0109
  183MOL    H1347697   3.501   2.449   6.784  0.4406  0.7681  0.3132
  183MOL    H1447698   3.410   2.478   6.504 -0.8920  0.5121  0.0189
  183MOL    C1547699   3.282   2.482   6.758 -0.3789  0.5295  0.3984
  183MOL    N1647700   3.280   2.444   6.888  0.2124  0.3051  0.4290
  183MOL    C1747701   3.204   2.504   6.985  0.3226 -0.5573 -0.2666
  183MOL    O1847702   3.117   2.592   6.970 -0.5191 -0.1156  0.6437
  183MOL    C1947703   3.234   2.459   7.126  0.0401  0.2609  0.7483
  183MOL    C2047704   3.165   2.426   6.667  0.6023 -0.0846 -1.0026
  183MOL    H2147705   3.276   2.591   6.748  0.0068  0.6405  1.2845
  183MOL    H2247706   3.350   2.379   6.920 -0.0987 -0.9519 -1.3665
  183MOL    H2347707   3.171   2.370   7.135 -0.7533  0.7637  0.2717
  183MOL    H2447708   3.340   2.433   7.132  0.0998  0.5226  0.8082
  183MOL    H2547709   3.201   2.541   7.189  0.0313  0.5074  0.4220
  183MOL    H2647710   3.179   2.322   6.637  2.8064 -0.6434  1.7199
  183MOL    H2747711   3.076   2.425   6.730  1.1424 -1.9101 -0.2355
  183MOL    C2847712   3.129   2.507   6.549 -0.4741  0.2496  0.1948
  183MOL    N2947713   3.086   2.638   6.589  0.1245 -0.2998  0.6705
  183MOL    C3047714   3.138   2.755   6.554  0.0589 -0.3762  0.1423
  183MOL    O3147715   3.237   2.774   6.484 -0.1480  0.2377 -0.4145
  183MOL    C3247716   3.068   2.876   6.610 -0.2188 -0.2769 -0.7057
  183MOL    C3347717   3.030   2.451   6.448 -0.6149  0.6070  0.7238
  183MOL    H3447718   3.214   2.519   6.482 -0.6537  1.7994  0.2147
  183MOL    H3547719   3.001   2.639   6.644  0.0206  2.5980  0.5176
  183MOL    H3647720   3.060   2.967   6.551  0.3698  0.3425  0.1453
  183MOL    H3747721   2.970   2.854   6.652 -1.2962 -0.2288 -3.1310
  183MOL    H3847722   3.129   2.906   6.695  0.6909  0.3282 -1.5590
  183MOL    H3947723   2.934   2.446   6.498  0.1138 -2.7112  1.8984
  183MOL    H4047724   3.023   2.517   6.361 -1.9920 -0.9644 -0.3746
  183MOL    C4147725   3.056   2.305   6.404  0.1574 -0.2253  0.8261
  183MOL    N4247726   2.998   2.271   6.274 -0.6755  0.3047 -0.2840
  183MOL    C4347727   2.876   2.272   6.227 -0.2959 -0.5593 -0.1123
  183MOL    O4447728   2.782   2.329   6.279  1.0330  0.3062 -0.0326
  183MOL    C4547729   2.859   2.205   6.091 -0.1876  0.4486  0.1754
  183MOL    C4647730   3.010   2.198   6.512  0.3519  0.1083  0.3764
  183MOL    H4747731   3.155   2.274   6.370 -1.5090 -2.3100 -2.3806
  183MOL    H4847732   3.065   2.227   6.212  0.2770 -1.1017  1.6861
  183MOL    H4947733   2.900   2.104   6.093 -0.8921  0.1670  0.8606
  183MOL    H5047734   2.750   2.197   6.084 -0.1637  0.2455  0.0250
  183MOL    H5147735   2.906   2.250   6.004  0.9125  1.2346  1.1607
  183MOL    H5247736   2.980   2.247   6.604  0.9924 -1.8163  1.6399
  183MOL    H5347737   2.913   2.157   6.486  1.2294 -1.8479  0.0679
  183MOL    C5447738   3.108   2.081   6.538 -0.1432  0.2481  0.1575
  183MOL    N5547739   3.098   1.962   6.447  0.3625  0.1171  0.0038
  183MOL    C5647740   3.151   1.945   6.324  0.1543  0.2285  0.2187
  183MOL    O5747741   3.226   2.030   6.274  0.3150  0.1944  0.9168
  183MOL    C5847742   3.114   1.818   6.257 -0.1352 -0.4619  0.0615
  183MOL    C5947743   3.118   2.033   6.684  0.2739  0.0941  0.1748
  183MOL    H6047744   3.207   2.124   6.526 -0.0903  0.1070  0.0884
  183MOL    H6147745   3.031   1.893   6.475 -0.3625  0.9721  0.4141
  183MOL    H6247746   3.039   1.756   6.308 -0.6732  0.7983  0.8114
  183MOL    H6347747   3.085   1.846   6.155  2.7072 -0.7794 -0.8693
  183MOL    H6447748   3.205   1.758   6.254  0.4182  0.4360 -1.6766
  183MOL    H6547749   3.142   2.115   6.751  0.3377  0.2979 -0.1002
  183MOL    H6647750   3.022   1.983   6.700 -0.0589  0.1828 -1.4459
  183MOL    C6747751   3.222   1.922   6.721  0.6494 -0.0621 -0.6971
  183MOL    N6847752   3.228   1.888   6.859  0.0470 -0.0144  0.8430
  183MOL    C6947753   3.127   1.855   6.944 -0.0516  0.4853 -0.1271
  183MOL    O7047754   3.010   1.843   6.901 -0.3023 -0.0463 -0.9782
  183MOL    C7147755   3.163   1.816   7.082 -0.0463 -0.4650 -1.1009
  183MOL    C7247756   3.361   1.939   6.670 -0.1344  0.7865 -0.3850
  183MOL    H7347757   3.193   1.831   6.667  1.4801 -2.8927  3.3351
  183MOL    H7447758   3.317   1.853   6.893 -0.1374 -2.1269 -0.7299
  183MOL    H7547759   3.091   1.852   7.155  0.3209 -1.5369 -0.1942
  183MOL    H7647760   3.185   1.709   7.076  1.2548 -0.1901 -1.4777
  183MOL    H7747761   3.253   1.872   7.108 -0.0754 -1.1534  0.5765
  183MOL    H7847762   3.356   1.970   6.565  2.7363  0.3285 -0.7201
  183MOL    H7947763   3.408   2.025   6.719 -2.4149  3.8244 -3.2320
  183MOL    C8047764   3.445   1.813   6.671  0.6185 -0.0682 -0.0858
  183MOL    N8147765   3.549   1.816   6.772 -0.1181 -0.5726 -0.5060
  183MOL    C8247766   3.550   1.783   6.902  0.2171 -0.0945 -0.6921
  183MOL    O8347767   3.452   1.763   6.976  0.2748  0.1113  0.4037
  183MOL    C8447768   3.685   1.771   6.962 -0.1681 -0.4459  0.4982
  183MOL    C8547769   3.516   1.783   6.529  0.2734 -0.3345  0.2151
  183MOL    H8647770   3.383   1.731   6.706  1.3433  0.0514  1.5145
  183MOL    H8747771   3.645   1.812   6.740 -0.1769 -1.9163 -0.5173
  183MOL    H8847772   3.715   1.676   7.007  0.6819 -0.4548 -0.0852
  183MOL    H8947773   3.757   1.797   6.885 -0.8843 -0.1705 -0.0888
  183MOL    H9047774   3.686   1.845   7.042  1.1423 -2.1536  2.1025
  183MOL    H9147775   3.439   1.788   6.453  0.1958  2.5275  0.4192
  183MOL    H9247776   3.582   1.867   6.505 -0.1902 -0.1396 -0.3792
  183MOL    C9347777   3.589   1.649   6.525 -0.1159  0.3892  0.1344
  183MOL    N9447778   3.723   1.678   6.480  0.5050 -0.2004 -0.6572
  183MOL    C9547779   3.830   1.710   6.557  0.4321  0.3155 -0.3997
  183MOL    O9647780   3.822   1.736   6.677 -0.1241 -0.5809 -0.7481
  183MOL    C9747781   3.968   1.706   6.485 -0.3009 -0.1693 -0.3815
  183MOL    C9847782   3.529   1.537   6.436 -0.5675  0.6907  0.7714
  183MOL    H9947783   3.589   1.616   6.629  1.7005 -2.3951 -0.6891
  183MOL   H10047784   3.731   1.644   6.385  0.2805 -0.2898 -0.6422
  183MOL   H10147785   4.050   1.719   6.556 -0.4268  1.3815 -0.5253
  183MOL   H10247786   3.975   1.608   6.437 -0.1939  0.5229 -1.7952
  183MOL   H10347787   3.964   1.785   6.411  3.2814  0.3113 -0.1284
  183MOL   H10447788   3.546   1.570   6.334  0.5869 -2.4248 -0.1100
  183MOL   H10547789   3.583   1.445   6.461 -0.4157  0.5301 -0.1410
  183MOL   C10647790   3.379   1.490   6.441 -0.4825  0.1602  0.4845
  183MOL   N10747791   3.323   1.455   6.572  0.6102  0.3810  0.1510
  183MOL   C10847792   3.376   1.374   6.664  0.5653 -0.2207 -0.2349
  183MOL   O10947793   3.485   1.324   6.649  0.1951  0.1612  0.1794
  183MOL   C11047794   3.301   1.358   6.802 -0.2019  0.0370  0.0307
  183MOL   C11147795   3.364   1.372   6.342 -0.1528  0.0334  0.5890
  183MOL   H11247796   3.319   1.570   6.398  1.3557  1.4144  0.2043
  183MOL   H11347797   3.232   1.495   6.590  0.9668  0.1870  2.4603
  183MOL   H11447798   3.271   1.446   6.858  0.4742  1.3184 -1.5929
  183MOL   H11547799   3.223   1.290   6.768 -0.5209  0.6359 -0.4319
  183MOL   H11647800   3.366   1.295   6.863  0.6884 -0.1206 -1.0655
  183MOL   H11747801   3.411   1.400   6.248 -2.2167  2.7336  0.2731
  183MOL   H11847802   3.400   1.277   6.379  0.2611 -0.5449 -1.2358
  183MOL   C11947803   3.221   1.341   6.295 -0.1002  0.4680  0.0826
  183MOL   N12047804   3.210   1.213   6.220 -0.5118 -0.0126  0.4335
  183MOL   C12147805   3.293   1.178   6.115 -0.3469  0.7640 -0.1956
  183MOL   O12247806   3.380   1.250   6.064  0.6386 -0.3924  0.0459
  183MOL   C12347807   3.263   1.046   6.050  0.6150  0.2706  0.3501
  183MOL   C12447808   3.170   1.457   6.201 -0.0535  0.1320 -0.5872
  183MOL   H12547809   3.159   1.329   6.384 -1.4438  3.8095 -0.3442
  183MOL   H12647810   3.155   1.136   6.255 -1.2454  0.8049  1.1060
  183MOL   H12747811   3.309   0.960   6.100  1.1908  0.7927  0.7128
  183MOL   H12847812   3.157   1.021   6.056  0.9517 -0.9511  1.8867
  183MOL   H12947813   3.297   1.051   5.947  0.8122 -1.8316  0.2812
  183MOL   H13047814   3.168   1.544   6.267 -0.7885 -1.7641  1.9419
  183MOL   H13147815   3.252   1.470   6.130  0.4229 -1.4609 -0.3565
  183MOL   C13247816   3.040   1.442   6.112  0.5964  0.2087 -0.6097
  183MOL   N13347817   3.057   1.532   5.999 -0.0743 -0.8823  0.5449
  183MOL   C13447818   3.111   1.515   5.877  0.3990  0.1035 -0.2665
  183MOL   O13547819   3.143   1.402   5.837 -0.7152 -0.3998  0.0914
  183MOL   C13647820   3.138   1.644   5.790  0.5850  0.1070 -0.2775
  183MOL   C13747821   2.907   1.476   6.179  0.5396 -0.1270  0.6042
  183MOL   H13847822   3.029   1.344   6.066 -0.7089  1.3513 -2.7984
  183MOL   H13947823   3.014   1.621   6.024 -1.2929 -0.4911 -2.7039
  183MOL   H14047824   3.145   1.737   5.847 -2.2076  1.1986 -1.6240
  183MOL   H14147825   3.236   1.630   5.744 -0.1765 -3.9473 -0.8731
  183MOL   H14247826   3.064   1.660   5.712 -1.7873 -0.2453  1.8643
  183MOL   H14347827   2.922   1.576   6.220 -1.3063 -0.2123  1.5591
  183MOL   H14447828   2.829   1.498   6.106  0.2002  0.5362  1.1592
  183MOL   C14547829   2.850   1.390   6.290  0.1046  0.2115 -0.8017
  183MOL   N14647830   2.810   1.273   6.220 -0.1833  0.2342 -0.6304
  183MOL   C14747831   2.834   1.146   6.263  0.1381 -0.3836 -0.4996
  183MOL   O14847832   2.888   1.121   6.369  0.2565 -0.6316  0.2146
  183MOL   C14947833   2.802   1.028   6.171  0.2218  0.1514 -0.3027
  183MOL   C15047834   2.725   1.453   6.357 -1.0403  0.1431 -0.2396
  183MOL   H15147835   2.927   1.366   6.363  0.6697 -0.3396 -1.5643
  183MOL   H15247836   2.767   1.291   6.130 -3.9814 -0.5616  0.9621
  183MOL   H15347837   2.735   1.065   6.093 -0.0172  1.8384  0.6864
  183MOL   H15447838   2.898   1.006   6.124  0.3438  0.9048 -0.4089
  183MOL   H15547839   2.753   0.942   6.217 -0.4437  1.2200  1.0105
  183MOL   H15647840   2.665   1.473   6.268 -0.9829  1.6609  0.0393
  183MOL   H15747841   2.664   1.385   6.415 -1.7251  1.0981  0.1747
  183MOL   C15847842   2.741   1.582   6.436  0.9555  0.0360  0.6569
  183MOL   N15947843   2.810   1.580   6.560  0.4193 -0.2776 -0.2384
  183MOL   C16047844   2.939   1.571   6.577 -0.4499  0.4426 -0.1420
  183MOL   O16147845   3.015   1.567   6.481 -1.1025 -0.1474  0.0496
  183MOL   C16247846   2.998   1.567   6.721 -0.6644  0.0390  0.6780
  183MOL   C16347847   2.602   1.652   6.453 -0.4523 -0.2689 -0.4633
  183MOL   H16447848   2.793   1.655   6.373  0.3124 -1.3534 -1.5615
  183MOL   H16547849   2.759   1.588   6.646  0.1074 -0.2973 -0.4214
  183MOL   H16647850   2.954   1.644   6.785  0.8050  0.6610  0.9625
  183MOL   H16747851   2.981   1.471   6.770 -1.8771  0.5695  1.3235
  183MOL   H16847852   3.106   1.585   6.726 -0.5355 -0.5088 -0.1267
  183MOL   H16947853   2.555   1.653   6.355 -0.4851  0.5961 -0.4423
  183MOL   H17047854   2.543   1.589   6.521 -1.1431 -0.3146 -1.1013
  183MOL   C17147855   2.583   1.802   6.498  0.4673 -0.1086 -0.6073
  183MOL   N17247856   2.605   1.811   6.641  0.5939  0.2304 -0.1929
  183MOL   C17347857   2.694   1.882   6.703  0.0898  0.0559 -0.0136
  183MOL   O17447858   2.762   1.969   6.650  0.2569 -0.2194 -0.3155
  183MOL   C17547859   2.704   1.861   6.861 -0.2030 -0.5045  0.3029
  183MOL   C17647860   2.432   1.831   6.475 -0.0537 -0.8855  0.3436
  183MOL   H17747861   2.652   1.862   6.438  0.1078  1.1810  0.2499
  183MOL   H17847862   2.563   1.742   6.701  0.4906  0.9429  0.5605
  183MOL   H17947863   2.735   1.761   6.891  1.9325 -0.3965 -1.3974
  183MOL   H18047864   2.789   1.928   6.881 -0.6079  0.6888 -1.7379
  183MOL   H18147865   2.618   1.896   6.917  0.4905 -2.0104  2.3590
  183MOL   H18247866   2.415   1.800   6.372  2.9111 -0.8824 -0.1856
  183MOL   H18347867   2.375   1.765   6.541  0.1458  1.3108  2.8211
  183MOL   C18447868   2.397   1.981   6.507 -0.6743  0.0137  0.1391
  183MOL   N18547869   2.252   2.004   6.507  0.2126  0.2079 -0.0412
  183MOL   C18647870   2.186   2.093   6.580  0.4345 -0.7986 -0.9350
  183MOL   O18747871   2.243   2.166   6.663  0.0061  0.2532  0.2098
  183MOL   C18847872   2.037   2.096   6.555 -0.4258 -0.0279  0.3075
  183MOL   C18947873   2.473   2.073   6.407 -0.3077 -0.4155  0.2202
  183MOL   H19047874   2.433   2.006   6.607 -3.3384 -1.7290  1.6069
  183MOL   H19147875   2.194   1.945   6.450  0.3015  1.1955 -1.1572
  183MOL   H19247876   2.000   2.169   6.483 -1.6922 -0.4616  0.5045
  183MOL   H19347877   2.003   1.999   6.521 -1.6602 -0.6591  3.1764
  183MOL   H19447878   1.982   2.119   6.646 -1.8795  1.7285 -0.9856
  183MOL   H19547879   2.578   2.046   6.394  0.0204  0.2476  1.3258
  183MOL   H19647880   2.432   2.043   6.311 -0.1120 -2.4654  0.7559
  183MOL   C19747881   2.455   2.228   6.413 -0.6714 -0.0859 -0.2203
  183MOL   N19847882   2.496   2.288   6.286 -0.0253 -0.6762  0.2204
  183MOL   C19947883   2.413   2.338   6.192 -0.2259 -0.6905 -0.3679
  183MOL   O20047884   2.291   2.356   6.202 -0.0100 -0.4304 -0.1168
  183MOL   C20147885   2.474   2.388   6.071 -0.2240 -0.4048  0.6419
  183MOL   C20247886   2.546   2.280   6.533  0.2888  0.4801 -0.4750
  183MOL   H20347887   2.357   2.267   6.441  0.4864  1.6380  1.5288
  183MOL   H20447888   2.595   2.289   6.267  0.2624  1.0444  1.6397
  183MOL   H20547889   2.408   2.394   5.985  0.7857  0.0681 -0.1127
  183MOL   H20647890   2.514   2.489   6.089  1.3672 -1.0849  1.0207
  183MOL   H20747891   2.558   2.326   6.040 -0.5706 -1.2814  1.4490
  183MOL   H20847892   2.520   2.227   6.624 -0.9453 -1.5970 -1.9725
  183MOL   H20947893   2.648   2.249   6.513  1.0907  3.3114 -1.0411
  183MOL   C21047894   2.552   2.425   6.566  0.1695 -0.9845  0.3868
  183MOL   N21147895   2.672   2.440   6.653 -0.6149 -0.0107 -0.2075
  183MOL   C21247896   2.747   2.556   6.662  0.1095  0.1872  0.9202
  183MOL   O21347897   2.739   2.639   6.575  0.2155  0.6992 -0.0685
  183MOL   C21447898   2.822   2.574   6.792  0.0698 -0.1524  0.7280
  183MOL   C21547899   2.423   2.488   6.624  0.1255  0.0459 -0.2266
  183MOL   H21647900   2.578   2.477   6.473 -2.4269 -2.2973 -1.1191
  183MOL   H21747901   2.686   2.377   6.731  0.7008 -0.9662 -1.1829
  183MOL   H21847902   2.928   2.594   6.771 -0.3701  0.3738 -1.1031
  183MOL   H21947903   2.779   2.651   6.855 -0.7880  0.7871 -0.9693
  183MOL   H22047904   2.817   2.481   6.848  0.1305  0.4374  1.7270
  183MOL   H22147905   2.416   2.591   6.587  2.1577  0.6072  0.8574
  183MOL   H22247906   2.335   2.448   6.575 -0.6633  1.1402  0.2700
  183MOL   C22347907   2.402   2.501   6.777  0.3052  0.6138  0.3340
  183MOL   N22447908   2.389   2.365   6.832 -0.5631 -0.2000 -0.9425
  183MOL   C22547909   2.484   2.304   6.903  0.0167  0.1919 -0.0612
  183MOL   O22647910   2.597   2.345   6.914 -0.3567  0.2592  0.2919
  183MOL   C22747911   2.452   2.168   6.959 -0.2104  0.1884 -0.1365
  183MOL   C22847912   2.281   2.582   6.805 -0.1515 -0.5401  0.8669
  183MOL   H22947913   2.488   2.546   6.826 -0.3886  0.1754  1.9935
  183MOL   H23047914   2.308   2.312   6.804 -0.2445 -0.4800 -1.3360
  183MOL   H23147915   2.510   2.145   7.048  0.9007 -1.0490 -1.1656
  183MOL   H23247916   2.350   2.181   6.997 -0.7145  1.2702 -1.8038
  183MOL   H23347917   2.453   2.090   6.883  0.9196  1.6927 -1.6833
  183MOL   H23447918   2.216   2.575   6.718 -2.2510  0.2149  2.3291
  183MOL   H23547919   2.220   2.538   6.884  1.9218  0.2244  2.9410
  183MOL   C23647920   2.304   2.728   6.834 -0.5867 -0.1446  0.3506
  183MOL   N23747921   2.170   2.784   6.848  0.3178  0.3216  0.5082
  183MOL   C23847922   2.092   2.774   6.952  0.0666 -0.2422  0.2404
  183MOL   O23947923   2.086   2.683   7.036  0.1934  0.1969  0.5115
  183MOL   C24047924   1.991   2.892   6.964  0.2629  0.7563 -0.1602
  183MOL   C24147925   2.385   2.816   6.736 -0.5011  0.5588  0.1861
  183MOL   H24247926   2.349   2.716   6.933  0.5414 -2.0868 -0.3653
  183MOL   H24347927   2.147   2.857   6.782  0.0003 -1.1994 -1.0867
  183MOL   H24447928   1.932   2.864   7.051  2.1832  0.5398  1.1134
  183MOL   H24547929   2.049   2.984   6.967  0.5956  0.6156 -1.9390
  183MOL   H24647930   1.924   2.905   6.879 -0.6948  0.2095  0.5034
  183MOL   H24747931   2.475   2.755   6.730 -0.9037 -0.0676  0.3711
  183MOL   H24847932   2.335   2.819   6.639  1.3826  0.3110 -0.8033
  183MOL   C24947933   2.422   2.960   6.778  0.5702  0.1424  0.3113
  183MOL   N25047934   2.393   3.063   6.673 -0.2955 -0.4941 -0.5954
  183MOL   C25147935   2.283   3.140   6.668 -0.0681  0.2618  0.4914
  183MOL   O25247936   2.196   3.128   6.754 -0.3297 -0.5647 -0.5642
  183MOL   C25347937   2.273   3.232   6.550 -0.7412 -0.0008 -0.4640
  183MOL   C25447938   2.564   2.983   6.831 -0.4244 -0.7185  0.0154
  183MOL   H25547939   2.368   2.986   6.869 -1.0848 -0.0344 -0.5988
  183MOL   H25647940   2.455   3.084   6.597 -1.5424 -0.0654 -1.5047
  183MOL   H25747941   2.283   3.335   6.582 -0.5368 -0.6395  1.5661
  183MOL   H25847942   2.351   3.210   6.476  0.3273  0.3048  0.5608
  183MOL   H25947943   2.184   3.207   6.492  0.4192 -2.0326 -1.4567
  183MOL   H26047944   2.608   2.892   6.873 -1.9385 -1.9600 -1.0210
  183MOL   H26147945   2.633   3.008   6.751 -0.0697 -0.8758  0.2668
  183MOL   H26247946   2.562   3.065   6.903  1.3895  0.6441 -1.4649
  184MOL     C147947   2.406   5.186   0.259 -0.3329  0.1479  0.2486
  184MOL     N247948   2.371   5.121   0.388  0.2412  0.1233  0.1277
  184MOL     C347949   2.399   4.995   0.418  0.1383  0.3787 -0.5997
  184MOL     O447950   2.444   4.916   0.340  0.1740 -0.2585 -0.3683
  184MOL     C547951   2.363   4.944   0.561 -0.7050 -0.2095  0.3357
  184MOL     C647952   2.557   5.230   0.269  0.1345  0.3586 -0.3147
  184MOL     H747953   2.391   5.123   0.172 -2.6255  1.0411 -0.0267
  184MOL     H847954   2.313   5.167   0.457  1.7829  2.6885 -0.1907
  184MOL     H947955   2.453   4.948   0.621  0.0757 -0.2444 -0.8141
  184MOL    H1047956   2.297   5.016   0.608 -3.1311 -0.4337 -2.5388
  184MOL    H1147957   2.321   4.843   0.562  0.4133 -0.6803  0.6486
  184MOL    H1247958   2.576   5.284   0.362  0.8976 -0.0951 -0.2038
  184MOL    H1347959   2.616   5.139   0.277  0.6739  0.5979 -1.5129
  184MOL    H1447960   2.323   5.254   0.240 -1.1750 -1.0494 -0.4691
  184MOL    C1547961   2.599   5.322   0.160  0.9494  0.1452 -0.7018
  184MOL    N1647962   2.493   5.419   0.131 -0.1352 -0.1739  0.2535
  184MOL    C1747963   2.510   5.555   0.121  0.1833 -0.4223  0.3189
  184MOL    O1847964   2.611   5.617   0.141 -0.1282 -0.0981 -0.3627
  184MOL    C1947965   2.382   5.639   0.114  0.3329  0.0463  0.6856
  184MOL    C2047966   2.637   5.225   0.035  0.5347 -1.2389 -0.0162
  184MOL    H2147967   2.692   5.366   0.197  1.5279  0.0317 -1.9689
  184MOL    H2247968   2.398   5.396   0.105 -0.3087 -0.3584  1.0284
  184MOL    H2347969   2.304   5.566   0.136  0.8414 -0.4302  0.9061
  184MOL    H2447970   2.382   5.718   0.190  2.3592  1.6060 -0.8797
  184MOL    H2547971   2.380   5.695   0.021 -1.4548 -0.8103  0.1948
  184MOL    H2647972   2.563   5.145   0.032 -0.7786 -0.1010  1.0156
  184MOL    H2747973   2.603   5.280   7.787  1.4765  1.7508  1.4262
  184MOL    C2847974   2.778   5.157   0.032 -0.5674  0.1636 -0.1323
  184MOL    N2947975   2.881   5.255   0.023 -0.7375 -0.2216 -0.2336
  184MOL    C3047976   2.950   5.302   0.127  0.5716  0.4667 -0.2215
  184MOL    O3147977   2.912   5.279   0.244 -0.5385 -0.0033  0.5152
  184MOL    C3247978   3.064   5.399   0.099 -0.3249 -0.5628  0.6292
  184MOL    C3347979   2.791   5.048   7.759  0.5788 -0.1290  0.5695
  184MOL    H3447980   2.768   5.097   0.122 -3.0305 -1.4667 -1.4429
  184MOL    H3547981   2.910   5.281   7.770 -0.5719  4.5661  1.0687
  184MOL    H3647982   3.019   5.493   0.066  0.4215  0.1298  1.5596
  184MOL    H3747983   3.130   5.426   0.181 -0.5336  3.0537 -0.2893
  184MOL    H3847984   3.127   5.358   0.020 -0.9940  2.3009 -1.4600
  184MOL    H3947985   2.695   4.999   7.749 -0.2695  1.4988  0.5088
  184MOL    H4047986   2.796   5.103   7.665  2.7327  1.2443  1.4463
  184MOL    C4147987   2.903   4.945   7.786 -0.1552  0.5744  0.9235
  184MOL    N4247988   2.923   4.877   7.648 -0.0015 -0.4087  0.3228
  184MOL    C4347989   3.038   4.876   7.579 -0.6572 -0.1610  0.3753
  184MOL    O4447990   3.139   4.925   7.617 -0.4223  0.2348 -0.0121
  184MOL    C4547991   3.047   4.797   7.448  0.0997  0.2780  0.2216
  184MOL    C4647992   2.869   4.840   0.060  0.3688 -0.3245 -0.0429
  184MOL    H4747993   2.995   5.000   7.805  0.2943  0.1167  0.1384
  184MOL    H4847994   2.846   4.818   7.620 -1.4146  0.8225  1.4783
  184MOL    H4947995   2.986   4.852   7.377  1.0048 -1.2693 -1.7784
  184MOL    H5047996   3.148   4.773   7.413 -0.4911  0.8017 -1.9061
  184MOL    H5147997   3.002   4.699   7.460  1.2156 -0.3410 -0.5808
  184MOL    H5247998   2.907   4.886   0.151 -0.5612  2.2261 -0.8791
  184MOL    H5347999   2.761   4.824   0.071  0.7569 -2.7156  0.5301
  184MOL    C5448000   2.927   4.695   0.044 -0.2365 -0.3488 -0.9415
  184MOL    N5548001   2.825   4.590   0.054  0.7717  0.7716 -0.1076
  184MOL    C5648002   2.775   4.535   0.168  0.4847 -0.4067  0.1905
  184MOL    O5748003   2.799   4.581   0.282  0.3260 -0.3827  0.1068
  184MOL    C5848004   2.672   4.427   0.137 -0.0452 -0.0512 -0.0539
  184MOL    C5948005   3.050   4.659   0.136 -0.5769  0.1750  0.6217
  184MOL    H6048006   2.969   4.678   7.785  3.1611  1.0546  0.1767
  184MOL    H6148007   2.797   4.549   7.806 -0.4506  1.7884 -0.2164
  184MOL    H6248008   2.578   4.469   0.101  0.9138  2.4360  0.2229
  184MOL    H6348009   2.696   4.357   0.057 -2.4026 -1.1212  0.1553
  184MOL    H6448010   2.626   4.370   0.217 -0.6409 -0.6491 -0.8224
  184MOL    H6548011   3.027   4.667   0.242  0.1379  0.0673  0.7846
  184MOL    H6648012   3.066   4.552   0.129  1.1219  0.2068  3.2375
  184MOL    C6748013   3.183   4.732   0.114 -0.0290  1.3451 -0.0204
  184MOL    N6848014   3.230   4.710   7.815 -0.0936  0.2589  0.1235
  184MOL    C6948015   3.284   4.600   7.769 -0.2791 -0.1521  0.1578
  184MOL    O7048016   3.315   4.508   0.000  0.0266  0.1050  0.1775
  184MOL    C7148017   3.323   4.597   7.623  0.2481 -0.4466  0.0328
  184MOL    C7248018   3.289   4.717   0.221 -0.1052  0.3379  0.6704
  184MOL    H7348019   3.142   4.833   0.117 -0.1529  1.3399 -1.1379
  184MOL    H7448020   3.205   4.783   7.750 -1.1575  0.6296  0.9564
  184MOL    H7548021   3.368   4.503   7.591  0.2305  0.1581 -1.7696
  184MOL    H7648022   3.233   4.610   7.562 -0.9949  1.2964  2.1468
  184MOL    H7748023   3.387   4.683   7.607  0.5960 -1.1025 -2.1759
  184MOL    H7848024   3.238   4.723   0.318  0.3440  0.6429  0.8872
  184MOL    H7948025   3.333   4.617   0.227 -2.3579 -0.9465 -2.6200
  184MOL    C8048026   3.391   4.830   0.211  0.0996  0.1038 -0.5404
  184MOL    N8148027   3.521   4.777   0.246 -0.3633  0.2446  0.1343
  184MOL    C8248028   3.616   4.735   0.163 -0.1468 -0.0489  0.1149
  184MOL    O8348029   3.606   4.781   0.043 -0.2389  0.0493 -0.1306
  184MOL    C8448030   3.739   4.670   0.225  0.1984 -0.4658  0.2893
  184MOL    C8548031   3.355   4.951   0.304 -0.5772 -0.0722  0.1391
  184MOL    H8648032   3.399   4.860   0.107 -2.1876 -0.0937 -0.8024
  184MOL    H8748033   3.530   4.735   0.337  1.9073 -0.1951 -0.2445
  184MOL    H8848034   3.709   4.589   0.292 -1.2018 -1.8821 -1.9914
  184MOL    H8948035   3.809   4.631   0.151  1.0510  1.1236  0.2422
  184MOL    H9048036   3.797   4.736   0.290  1.4006 -1.6582  0.4710
  184MOL    H9148037   3.329   4.918   0.405  1.3487  0.7991  0.9500
  184MOL    H9248038   3.450   5.000   0.326 -0.7885  1.4457 -2.2210
  184MOL    C9348039   3.242   5.054   0.264 -0.4228  0.1799  0.6775
  184MOL    N9448040   3.293   5.117   0.139  0.2219 -0.5368 -0.7428
  184MOL    C9548041   3.382   5.216   0.136 -0.3204  0.0234 -0.0449
  184MOL    O9648042   3.452   5.261   0.230  0.4199 -0.1149 -0.0494
  184MOL    C9748043   3.415   5.269   7.838 -0.5678  0.4407  0.2110
  184MOL    C9848044   3.221   5.159   0.376 -0.3936 -0.2629 -0.1420
  184MOL    H9948045   3.145   5.009   0.245 -0.0712 -0.1181 -0.4493
  184MOL   H10048046   3.252   5.087   0.052  0.0670 -0.4533 -0.6995
  184MOL   H10148047   3.521   5.289   7.824 -0.1637 -0.8228  1.3009
  184MOL   H10248048   3.393   5.200   7.756 -0.1992 -0.1171  0.5745
  184MOL   H10348049   3.364   5.364   7.819 -1.3419  0.1409  0.7432
  184MOL   H10448050   3.317   5.187   0.419  0.0411  0.9068 -1.8293
  184MOL   H10548051   3.179   5.248   0.329 -0.8771  0.3245  1.3802
  184MOL   C10648052   3.130   5.130   0.496 -0.0051 -0.1490  0.3762
  184MOL   N10748053   3.000   5.091   0.452  0.2581 -0.7046  0.0162
  184MOL   C10848054   2.945   4.968   0.469 -0.0846  0.4060 -1.4010
  184MOL   O10948055   3.003   4.871   0.517  0.1486 -0.4972  0.1114
  184MOL   C11048056   2.795   4.938   0.435 -0.1022 -0.4684 -0.2260
  184MOL   C11148057   3.125   5.254   0.587  0.2480 -0.1804 -0.3660
  184MOL   H11248058   3.176   5.059   0.565 -0.0955 -0.3071  0.2725
  184MOL   H11348059   2.946   5.159   0.400 -1.4399 -0.9539  1.3934
  184MOL   H11448060   2.773   4.831   0.429  0.4848 -0.6796  1.0793
  184MOL   H11548061   2.724   4.977   0.508 -1.2743 -1.4096 -0.8326
  184MOL   H11648062   2.772   4.990   0.342  3.5857 -0.9235 -1.4770
  184MOL   H11748063   3.112   5.339   0.519  1.6788  0.0931 -0.3151
  184MOL   H11848064   3.033   5.255   0.645  0.6263  0.0528  0.2294
  184MOL   C11948065   3.234   5.282   0.697  0.2270 -0.6859  0.2838
  184MOL   N12048066   3.229   5.416   0.757 -0.2156  0.3307 -0.1125
  184MOL   C12148067   3.163   5.448   0.865  0.3682  0.2246 -0.0434
  184MOL   O12248068   3.089   5.373   0.933  0.2141  0.6165 -0.1363
  184MOL   C12348069   3.195   5.590   0.916  0.2487  0.0489 -0.4352
  184MOL   C12448070   3.380   5.253   0.664 -0.3546  0.2980  0.0028
  184MOL   H12548071   3.204   5.217   0.779  1.0742 -0.8636  0.4588
  184MOL   H12648072   3.284   5.489   0.713 -0.7584  0.5342 -0.4576
  184MOL   H12748073   3.302   5.607   0.923  0.3371 -0.9415  0.8030
  184MOL   H12848074   3.149   5.656   0.843  1.6718  0.0018 -1.4008
  184MOL   H12948075   3.147   5.607   1.012 -0.0565 -2.0012 -0.1976
  184MOL   H13048076   3.431   5.247   0.761 -2.5269 -1.1986  1.1124
  184MOL   H13148077   3.384   5.156   0.614 -0.1186  0.5156 -0.4011
  184MOL   C13248078   3.468   5.357   0.591  0.8671  0.2395  0.9098
  184MOL   N13348079   3.410   5.425   0.472 -0.3891 -0.1847  0.2443
  184MOL   C13448080   3.358   5.546   0.459 -0.4695 -0.3128 -0.3421
  184MOL   O13548081   3.329   5.613   0.560 -0.2036 -0.3879 -1.0739
  184MOL   C13648082   3.361   5.609   0.326  0.8563 -0.3520 -0.3796
  184MOL   C13748083   3.604   5.298   0.552  0.3132  0.3927  0.1969
  184MOL   H13848084   3.487   5.435   0.664  1.4117  0.4222  0.5787
  184MOL   H13948085   3.437   5.379   0.386  3.1627  1.6202  0.2959
  184MOL   H14048086   3.323   5.535   0.256  0.9732 -0.4215 -0.3704
  184MOL   H14148087   3.304   5.700   0.314  0.0558 -1.0394 -1.9423
  184MOL   H14248088   3.466   5.625   0.301  0.7060 -0.0587 -0.8239
  184MOL   H14348089   3.612   5.189   0.555 -0.0676  0.2986 -1.4397
  184MOL   H14448090   3.621   5.330   0.449 -1.4076  0.9688  0.0771
  184MOL   C14548091   3.722   5.365   0.623  0.2979 -0.1376  0.1537
  184MOL   N14648092   3.839   5.326   0.548  0.3095 -0.8281 -0.6415
  184MOL   C14748093   3.942   5.403   0.514  0.7238 -0.1844  0.0345
  184MOL   O14848094   3.939   5.520   0.546  0.2639  0.5722  0.1364
  184MOL   C14948095   4.053   5.345   0.423 -0.5903 -0.0435  0.7052
  184MOL   C15048096   3.730   5.316   0.762  0.0153  0.0544  0.1701
  184MOL   H15148097   3.708   5.473   0.626 -1.9082 -0.3791 -0.5304
  184MOL   H15248098   3.844   5.233   0.508 -0.8607 -0.6862 -1.1250
  184MOL   H15348099   4.097   5.433   0.375 -0.4335 -0.5216 -0.0308
  184MOL   H15448100   4.122   5.293   0.490  0.6345  0.3090 -0.2763
  184MOL   H15548101   4.006   5.275   0.355  1.3109 -1.6443  0.9762
  184MOL   H15648102   3.691   5.215   0.771 -1.4656  0.7986  2.2634
  184MOL   H15748103   3.837   5.320   0.783  0.1678  0.5362 -0.6657
  184MOL   C15848104   3.665   5.407   0.873 -0.7853  0.3498 -0.4686
  184MOL   N15948105   3.726   5.534   0.861  0.3897  0.1780 -0.1203
  184MOL   C16048106   3.836   5.587   0.913  0.0747  0.3335  0.5907
  184MOL   O16148107   3.917   5.524   0.979  0.4250  0.5330  0.1469
  184MOL   C16248108   3.860   5.730   0.891 -0.3068 -0.4640  0.0772
  184MOL   C16348109   3.697   5.346   1.018  0.0633  0.0944 -0.4585
  184MOL   H16448110   3.557   5.416   0.864 -1.0250 -1.0168  0.8946
  184MOL   H16548111   3.664   5.598   0.814 -1.6136 -0.9159  0.9394
  184MOL   H16648112   3.922   5.770   0.970  0.4418 -1.0513 -0.2085
  184MOL   H16748113   3.900   5.734   0.789  0.2922  1.8912  0.3915
  184MOL   H16848114   3.775   5.798   0.888 -0.1625 -0.3182 -1.8242
  184MOL   H16948115   3.796   5.300   1.012  0.4842  0.8558  0.5961
  184MOL   H17048116   3.710   5.427   1.090  2.2407 -2.0185  1.6459
  184MOL   C17148117   3.593   5.248   1.077 -0.5151  0.1929 -0.4653
  184MOL   N17248118   3.472   5.324   1.122 -0.3469  0.6002 -0.3830
  184MOL   C17348119   3.343   5.286   1.122 -0.7676  0.0289 -0.3272
  184MOL   O17448120   3.255   5.348   1.177 -0.2458 -0.2126  0.2599
  184MOL   C17548121   3.310   5.151   1.059 -0.1396 -0.7904  0.1715
  184MOL   C17648122   3.640   5.163   1.191  0.4140  0.9311  1.1834
  184MOL   H17748123   3.559   5.186   0.995  0.4836  0.3440 -0.9947
  184MOL   H17848124   3.488   5.417   1.159  0.8960  0.7572 -1.2610
  184MOL   H17948125   3.351   5.069   1.118 -0.5513 -1.0808  0.0578
  184MOL   H18048126   3.204   5.126   1.069 -0.5039  0.2076 -1.1042
  184MOL   H18148127   3.348   5.142   0.957 -0.0424  0.4794  0.0910
  184MOL   H18248128   3.664   5.228   1.275  0.7741  1.7790  0.4368
  184MOL   H18348129   3.560   5.100   1.229 -2.1751  2.6226 -1.2761
  184MOL   C18448130   3.761   5.071   1.165  0.3081 -0.2382 -0.2412
  184MOL   N18548131   3.716   4.935   1.116 -0.2328  0.4187 -0.3195
  184MOL   C18648132   3.699   4.901   0.989  0.4079  0.0241 -0.2621
  184MOL   O18748133   3.720   4.979   0.894 -0.0939 -0.1170 -0.0036
  184MOL   C18848134   3.656   4.759   0.958  0.0721 -0.1258 -0.0541
  184MOL   C18948135   3.859   5.038   1.281 -0.0470  0.2370 -0.1043
  184MOL   H19048136   3.815   5.120   1.083 -0.5899  2.4430  0.7105
  184MOL   H19148137   3.696   4.869   1.190 -0.3737 -0.9841 -1.5840
  184MOL   H19248138   3.657   4.744   0.850  0.8255 -0.8179  0.0491
  184MOL   H19348139   3.728   4.691   1.004 -0.7241 -1.2904 -0.5027
  184MOL   H19448140   3.552   4.742   0.987  0.9882 -2.6154  2.0402
  184MOL   H19548141   3.871   5.120   1.352  1.1272 -1.1892  1.4031
  184MOL   H19648142   3.806   4.972   1.350  1.3963  0.4918  1.2947
  184MOL   C19748143   4.000   4.982   1.238 -0.4751  0.6059 -0.4995
  184MOL   N19848144   4.063   4.884   1.324  0.7417  0.3742  0.1556
  184MOL   C19948145   4.008   4.763   1.338 -0.4337 -0.1879 -0.1232
  184MOL   O20048146   3.897   4.726   1.286  0.1379 -0.2055 -0.5335
  184MOL   C20148147   4.083   4.665   1.425  0.5319 -0.3782  0.3224
  184MOL   C20248148   4.098   5.107   1.219 -0.6801  0.1434 -0.2329
  184MOL   H20348149   3.986   4.935   1.141  0.0307 -0.7290  0.0491
  184MOL   H20448150   4.152   4.904   1.367  0.2273  0.5153  1.1711
  184MOL   H20548151   4.186   4.663   1.388 -0.3404  1.9286 -2.3776
  184MOL   H20648152   4.082   4.702   1.528 -0.0426 -0.7382  0.4462
  184MOL   H20748153   4.041   4.565   1.410  1.5038 -1.1216  2.3524
  184MOL   H20848154   4.103   5.154   1.317  2.4025  0.1832 -0.3740
  184MOL   H20948155   4.198   5.073   1.192 -0.6165  0.6547 -0.6391
  184MOL   C21048156   4.067   5.214   1.112  0.1852 -0.3956 -0.0266
  184MOL   N21148157   4.050   5.169   0.977 -0.2323 -0.2173 -0.3783
  184MOL   C21248158   4.147   5.122   0.902  0.0038 -0.2661 -0.1779
  184MOL   O21348159   4.259   5.097   0.940  0.3845  0.1395 -0.4572
  184MOL   C21448160   4.126   5.099   0.749  0.2100  0.2922 -0.3471
  184MOL   C21548161   4.183   5.319   1.122  0.2184 -0.9875 -0.4938
  184MOL   H21648162   3.971   5.252   1.147 -0.0408 -0.9919  0.0090
  184MOL   H21748163   3.958   5.174   0.935 -0.6220  0.7778  0.5776
  184MOL   H21848164   4.112   4.991   0.740 -0.5839  0.3580  0.0526
  184MOL   H21948165   4.042   5.156   0.710 -0.6067 -0.2140  0.6441
  184MOL   H22048166   4.219   5.124   0.698 -0.3920  0.8445 -1.1884
  184MOL   H22148167   4.279   5.270   1.106  0.9019  0.9162 -2.5811
  184MOL   H22248168   4.166   5.379   1.032 -2.6919  2.8407  2.4277
  184MOL   C22348169   4.177   5.413   1.245  0.3939  0.0841  0.0994
  184MOL   N22448170   4.046   5.474   1.250  0.0902  1.3153  0.2663
  184MOL   C22548171   3.977   5.493   1.364  0.4927  0.2742 -0.7659
  184MOL   O22648172   4.025   5.472   1.473  0.1438  0.1722  0.6055
  184MOL   C22748173   3.822   5.519   1.352  0.0447  0.1000  0.1049
  184MOL   C22848174   4.284   5.525   1.240 -0.2894  0.1964  0.3437
  184MOL   H22948175   4.206   5.361   1.337 -0.5279  1.1061  0.9649
  184MOL   H23048176   4.000   5.484   1.160  1.1671 -2.5901 -0.8090
  184MOL   H23148177   3.766   5.427   1.334  1.7237 -0.6447 -1.4353
  184MOL   H23248178   3.797   5.559   1.450  0.7180  1.4367 -0.2670
  184MOL   H23348179   3.808   5.599   1.280 -0.9880 -1.2987 -1.2834
  184MOL   H23448180   4.334   5.512   1.144  1.2629 -1.6430  1.3650
  184MOL   H23548181   4.232   5.619   1.221  2.8418  1.4095 -2.5592
  184MOL   C23648182   4.385   5.529   1.351 -0.1064  0.2538  0.6865
  184MOL   N23748183   4.320   5.540   1.478  0.0022 -0.7862 -0.4183
  184MOL   C23848184   4.355   5.480   1.591  0.0210  0.3397 -0.0270
  184MOL   O23948185   4.456   5.407   1.600 -0.0075  0.2001  0.0438
  184MOL   C24048186   4.273   5.503   1.717 -0.0608  0.8166  0.3496
  184MOL   C24148187   4.478   5.648   1.314  0.8858 -0.2429 -1.2829
  184MOL   H24248188   4.445   5.438   1.356  1.9784  1.6502  1.3932
  184MOL   H24348189   4.234   5.593   1.482  1.1939  1.3358 -2.0273
  184MOL   H24448190   4.290   5.608   1.739  1.5245  0.8465 -0.9797
  184MOL   H24548191   4.167   5.490   1.691  0.0329  0.8302 -0.0473
  184MOL   H24648192   4.306   5.449   1.806  1.5724 -2.1460 -1.9633
  184MOL   H24748193   4.487   5.672   1.209 -0.8303 -1.0046 -1.6255
  184MOL   H24848194   4.430   5.739   1.349  1.2248 -0.8437  0.8408
  184MOL   C24948195   4.613   5.652   1.394  0.6239 -0.0249 -0.0451
  184MOL   N25048196   4.692   5.773   1.375 -0.2107 -0.9609  0.5283
  184MOL   C25148197   4.793   5.812   1.455  0.4340  0.1711  0.5027
  184MOL   O25248198   4.823   5.761   1.562  0.3517 -0.2024 -0.4691
  184MOL   C25348199   4.876   5.927   1.409  0.4808 -0.1381  0.3826
  184MOL   C25448200   4.698   5.535   1.363 -0.6566  0.9033  0.6114
  184MOL   H25548201   4.591   5.656   1.500  0.1957  0.7848 -0.1625
  184MOL   H25648202   4.676   5.813   1.284  0.3093  1.1423  1.3347
  184MOL   H25748203   4.976   5.887   1.388  0.3704  1.2169 -3.0105
  184MOL   H25848204   4.837   5.981   1.323  1.3887 -0.5095 -0.2649
  184MOL   H25948205   4.884   6.000   1.489 -1.8746 -1.9739  2.3897
  184MOL   H26048206   4.805   5.541   1.384 -0.5846 -0.2596  0.6364
  184MOL   H26148207   4.650   5.457   1.422  2.5786 -1.0738  0.7279
  184MOL   H26248208   4.684   5.508   1.258  1.8402 -1.7802  0.8898
  185MOL     C148209   0.112   6.006   7.035 -0.1862 -0.0121 -0.4468
  185MOL     N248210   0.201   6.118   6.994  0.4376 -0.3041  0.2490
  185MOL     C348211   0.206   6.238   7.041 -0.0184 -1.0379 -0.3594
  185MOL     O448212   0.301   6.308   7.024  0.0551 -0.2624 -0.0203
  185MOL     C548213   0.082   6.298   7.101  0.1115  0.4200 -1.0740
  185MOL     C648214   0.165   5.944   7.165  1.2008 -0.2191 -0.4327
  185MOL     H748215   0.007   6.033   7.046 -0.2252 -1.4027  2.9451
  185MOL     H848216   0.278   6.100   6.932  0.5100 -0.5594  0.4091
  185MOL     H948217   0.007   6.283   7.024 -0.9318  1.4078 -0.2469
  185MOL    H1048218   0.040   6.244   7.186 -0.5868 -1.0105 -2.2951
  185MOL    H1148219   0.097   6.405   7.117  2.6309 -0.0129 -0.2126
  185MOL    H1248220   0.170   6.022   7.241 -0.0440 -1.3040  0.7939
  185MOL    H1348221   0.084   5.874   7.187  0.5602  0.0679 -1.8150
  185MOL    H1448222   0.125   5.926   6.963 -1.9561 -1.0109  0.3311
  185MOL    C1548223   0.298   5.858   7.137  0.2239  0.3393  0.2547
  185MOL    N1648224   0.300   5.791   6.998 -0.5226 -0.3312  0.3236
  185MOL    C1748225   0.367   5.830   6.888  0.9074  0.5657  0.3637
  185MOL    O1848226   0.431   5.929   6.887 -0.1587  0.8362  0.5076
  185MOL    C1948227   0.340   5.744   6.766 -0.1662  0.0436  0.0455
  185MOL    C2048228   0.326   5.770   7.260  0.0969  0.1380 -0.1855
  185MOL    H2148229   0.382   5.928   7.140  1.2110 -0.8167  0.2432
  185MOL    H2248230   0.243   5.709   6.984 -0.5253 -0.2780  0.0139
  185MOL    H2348231   0.252   5.683   6.783  0.5995 -0.7624  1.1585
  185MOL    H2448232   0.332   5.805   6.676 -0.5325  1.3006  0.9149
  185MOL    H2548233   0.417   5.667   6.759 -2.3944 -2.0104 -3.9098
  185MOL    H2648234   0.313   5.830   7.350 -1.5061 -0.6647  0.1286
  185MOL    H2748235   0.253   5.690   7.260  2.6119 -2.2033 -0.6835
  185MOL    C2848236   0.471   5.713   7.255  0.0747  0.5483 -1.2526
  185MOL    N2948237   0.494   5.628   7.373  0.2362 -0.2765 -0.4098
  185MOL    C3048238   0.471   5.491   7.377  0.0205 -0.1856 -0.5854
  185MOL    O3148239   0.418   5.428   7.284 -0.3100 -0.6235  0.0341
  185MOL    C3248240   0.509   5.410   7.499 -0.0906  0.3558  0.0716
  185MOL    C3348241   0.597   5.808   7.236 -0.5883  0.2524  0.3038
  185MOL    H3448242   0.464   5.655   7.164  1.6324 -1.7694  0.0507
  185MOL    H3548243   0.520   5.677   7.457 -0.6970  0.4863 -0.5458
  185MOL    H3648244   0.564   5.463   7.576 -0.0323 -1.7401  1.5300
  185MOL    H3748245   0.422   5.364   7.547  1.2859  1.0935  3.4289
  185MOL    H3848246   0.568   5.322   7.472  0.3189  0.3421  0.9981
  185MOL    H3948247   0.583   5.843   7.134 -1.4100 -1.2364 -0.1245
  185MOL    H4048248   0.589   5.897   7.298 -2.0993  0.2312  0.1699
  185MOL    C4148249   0.733   5.733   7.232  0.0628  0.7784  0.2379
  185MOL    N4248250   0.836   5.832   7.223  0.2198  0.3862 -0.6572
  185MOL    C4348251   0.871   5.921   7.323 -0.1557 -0.2041 -0.1574
  185MOL    O4448252   0.804   5.933   7.429 -0.3108  1.0446  0.4374
  185MOL    C4548253   1.001   5.995   7.300 -0.1497  0.0647  0.3331
  185MOL    C4648254   0.746   5.638   7.111 -0.2504  0.6008 -0.0320
  185MOL    H4748255   0.743   5.680   7.327  1.1161  0.5131 -0.0152
  185MOL    H4848256   0.891   5.839   7.139  2.0252 -0.0342  0.4476
  185MOL    H4948257   1.007   6.076   7.373 -1.1785 -0.4935  1.0524
  185MOL    H5048258   1.071   5.917   7.329 -0.0519  0.4770  1.2260
  185MOL    H5148259   1.004   6.032   7.198  0.8594  2.0659  1.0510
  185MOL    H5248260   0.668   5.562   7.110  1.1035 -0.8403  1.4677
  185MOL    H5348261   0.722   5.704   7.028  2.4044  0.3267 -1.0365
  185MOL    C5448262   0.881   5.569   7.086  0.4064  0.4400  0.0983
  185MOL    N5548263   0.872   5.526   6.943 -0.3658 -0.2860 -0.0106
  185MOL    C5648264   0.977   5.480   6.868  0.1057 -0.0488  0.5214
  185MOL    O5748265   1.094   5.475   6.899  0.5312  0.2451  0.3181
  185MOL    C5848266   0.931   5.415   6.738  0.7149  0.2817 -0.5959
  185MOL    C5948267   0.901   5.444   7.173 -0.0380  0.1881  0.1860
  185MOL    H6048268   0.959   5.645   7.097 -1.1559  1.8942  1.3921
  185MOL    H6148269   0.782   5.512   6.901 -1.9027  0.9653  2.6917
  185MOL    H6248270   0.827   5.383   6.735  0.2240  1.8192 -0.6024
  185MOL    H6348271   0.944   5.485   6.655 -0.9726  0.6289 -0.5754
  185MOL    H6448272   0.997   5.329   6.735 -2.0555 -2.0381  2.2229
  185MOL    H6548273   0.810   5.409   7.222 -0.0185 -0.9609 -0.5961
  185MOL    H6648274   0.939   5.359   7.116 -1.2260  0.2556 -0.7335
  185MOL    C6748275   0.991   5.464   7.294  0.0783 -0.3574  0.4623
  185MOL    N6848276   1.126   5.469   7.239  0.3939  0.3591  0.1966
  185MOL    C6948277   1.233   5.518   7.301 -0.3408 -0.7239  0.0928
  185MOL    O7048278   1.230   5.558   7.419  0.1101  0.0217  0.1285
  185MOL    C7148279   1.368   5.512   7.231 -0.0058 -0.3907 -0.3629
  185MOL    C7248280   0.967   5.347   7.399 -0.0020 -0.2562  0.0241
  185MOL    H7348281   0.962   5.561   7.333 -2.1657 -0.6650 -0.3192
  185MOL    H7448282   1.136   5.432   7.146  0.5374 -0.2401  0.4527
  185MOL    H7548283   1.373   5.448   7.143 -0.6484 -0.2261 -0.5263
  185MOL    H7648284   1.386   5.615   7.199 -1.3449 -0.7295 -2.3126
  185MOL    H7748285   1.443   5.484   7.304  1.3611  0.8298 -1.2674
  185MOL    H7848286   1.020   5.374   7.490 -1.3697  1.7356  0.2511
  185MOL    H7948287   0.862   5.356   7.425  0.1018 -2.6528  1.4165
  185MOL    C8048288   0.986   5.199   7.364  0.0444  0.7992  0.3069
  185MOL    N8148289   0.913   5.121   7.453 -0.2188  0.3577 -0.0240
  185MOL    C8248290   0.810   5.040   7.416  0.4852  0.5846  0.1444
  185MOL    O8348291   0.778   5.025   7.299  0.6638 -0.0588 -0.1561
  185MOL    C8448292   0.728   4.970   7.525 -0.1333  0.6167 -0.1735
  185MOL    C8548293   1.138   5.159   7.372  0.6916 -0.0926 -0.1596
  185MOL    H8648294   0.945   5.186   7.264 -1.6510  1.2147  0.9325
  185MOL    H8748295   0.927   5.128   7.553  0.4357  0.5403 -0.1271
  185MOL    H8848296   0.727   4.868   7.485 -1.4689  0.6543 -0.2355
  185MOL    H8948297   0.766   4.987   7.626 -0.8749  0.4899  0.1314
  185MOL    H9048298   0.623   5.000   7.526 -0.1567  0.6769 -2.2008
  185MOL    H9148299   1.192   5.243   7.329  0.9488 -1.2402 -2.1458
  185MOL    H9248300   1.159   5.158   7.479 -1.0569 -2.3321  0.2175
  185MOL    C9348301   1.169   5.022   7.299 -0.4123 -0.3384  0.0371
  185MOL    N9448302   1.109   4.907   7.354  0.3138 -0.1173 -0.0553
  185MOL    C9548303   1.134   4.863   7.476 -0.6849  0.3119  0.0470
  185MOL    O9648304   1.225   4.907   7.553  0.2116 -0.0334  0.4175
  185MOL    C9748305   1.044   4.754   7.528 -0.0862 -0.4009  0.1656
  185MOL    C9848306   1.327   4.996   7.281  0.5109  0.2344 -0.3266
  185MOL    H9948307   1.122   5.031   7.201 -1.3062 -2.6225  0.2340
  185MOL   H10048308   1.036   4.868   7.295  1.3496  0.1890 -1.5779
  185MOL   H10148309   1.022   4.770   7.634 -0.4643 -0.7584  0.1452
  185MOL   H10248310   0.948   4.740   7.478  0.1886  0.2382 -0.5445
  185MOL   H10348311   1.100   4.660   7.523  0.1375 -0.3286  1.1634
  185MOL   H10448312   1.374   5.018   7.377 -0.1313  0.6222 -0.1029
  185MOL   H10548313   1.355   4.893   7.258 -0.3587 -0.3618  1.1989
  185MOL   C10648314   1.404   5.099   7.195 -0.4792 -0.0029  0.0438
  185MOL   N10748315   1.357   5.090   7.058 -0.1192  0.3348 -0.2424
  185MOL   C10848316   1.264   5.167   6.998  0.0999  0.7160 -0.4220
  185MOL   O10948317   1.192   5.246   7.058 -0.6191 -1.1384 -0.3223
  185MOL   C11048318   1.253   5.159   6.846 -0.4721 -0.2994 -0.3981
  185MOL   C11148319   1.558   5.091   7.203 -0.3835 -0.6339 -0.1385
  185MOL   H11248320   1.378   5.197   7.237  0.7066 -0.2257  1.3130
  185MOL   H11348321   1.413   5.032   6.997  0.3364  1.7718 -1.2287
  185MOL   H11448322   1.236   5.059   6.806 -1.7813  0.6504 -2.2729
  185MOL   H11548323   1.185   5.236   6.810 -0.6532 -1.0281 -1.6362
  185MOL   H11648324   1.352   5.177   6.805 -0.1281  1.2851  1.0443
  185MOL   H11748325   1.583   5.165   7.279 -0.7529  0.7196 -1.2969
  185MOL   H11848326   1.590   5.002   7.257 -1.6119 -0.6454  0.5794
  185MOL   C11948327   1.648   5.105   7.084 -0.1576  0.3050  0.4887
  185MOL   N12048328   1.625   4.980   7.000  0.1357 -0.1885 -0.0839
  185MOL   C12148329   1.619   4.979   6.867 -0.4144  0.3420 -0.2313
  185MOL   O12248330   1.648   5.071   6.794  0.5296 -0.0048 -0.0011
  185MOL   C12348331   1.585   4.848   6.811  0.3525  0.0411  0.2208
  185MOL   C12448332   1.800   5.125   7.117 -0.4346  0.2612  0.1933
  185MOL   H12548333   1.616   5.193   7.028 -0.2549  0.1250  0.2565
  185MOL   H12648334   1.609   4.896   7.053 -0.0648 -0.6624 -0.8930
  185MOL   H12748335   1.618   4.756   6.860 -0.4782 -1.1764 -1.4525
  185MOL   H12848336   1.477   4.838   6.817 -0.1193  3.2740 -1.8713
  185MOL   H12948337   1.603   4.855   6.704 -0.1865 -3.1105 -0.1336
  185MOL   H13048338   1.828   5.061   7.200 -3.4383  0.0343  1.0940
  185MOL   H13148339   1.854   5.093   7.028 -0.1712 -3.2013  1.5357
  185MOL   C13248340   1.837   5.273   7.161 -0.2427  0.0914  0.1176
  185MOL   N13348341   1.841   5.370   7.053 -0.6910  0.2483 -0.4545
  185MOL   C13448342   1.756   5.470   7.035  0.2840  0.1323  0.5401
  185MOL   O13548343   1.659   5.497   7.110 -0.1444 -0.2055 -0.1118
  185MOL   C13648344   1.779   5.563   6.922  0.3802  0.4396 -0.7524
  185MOL   C13748345   1.957   5.276   7.260  0.3687 -0.0361 -0.4268
  185MOL   H13848346   1.765   5.314   7.231  1.4612 -0.0459  1.9971
  185MOL   H13948347   1.921   5.359   6.992 -0.9973 -1.8601 -0.5061
  185MOL   H14048348   1.829   5.649   6.967  0.4790 -0.1637  0.2862
  185MOL   H14148349   1.851   5.515   6.856 -1.2322  1.5576 -3.4180
  185MOL   H14248350   1.682   5.590   6.880  0.4074 -0.4020 -1.3643
  185MOL   H14348351   2.048   5.232   7.219  0.1184 -2.8536  1.9132
  185MOL   H14448352   1.970   5.381   7.287  0.6704 -0.2843  0.4025
  185MOL   C14548353   1.951   5.188   7.391  0.3531 -0.4809  0.5880
  185MOL   N14648354   1.815   5.206   7.452 -0.7910 -0.0860 -0.6974
  185MOL   C14748355   1.747   5.102   7.501 -0.1310 -0.1104 -0.1292
  185MOL   O14848356   1.770   4.984   7.469 -0.0479  0.0992  0.1999
  185MOL   C14948357   1.630   5.132   7.593 -0.0727 -0.1984 -0.6640
  185MOL   C15048358   2.048   5.229   7.506 -0.2528  0.0098  0.9000
  185MOL   H15148359   1.970   5.086   7.358 -0.9850 -0.6971  0.4599
  185MOL   H15248360   1.785   5.300   7.472 -2.4597 -0.9977  1.2261
  185MOL   H15348361   1.646   5.171   7.693  1.1906 -1.3477 -0.4092
  185MOL   H15448362   1.580   5.215   7.544 -1.3028 -0.2330  0.5015
  185MOL   H15548363   1.550   5.057   7.588  0.3701 -0.6550 -0.9656
  185MOL   H15648364   2.021   5.328   7.541 -0.2223  0.3477 -0.0000
  185MOL   H15748365   2.023   5.165   7.591 -0.9328 -1.1752 -0.1582
  185MOL   C15848366   2.202   5.229   7.487 -0.3379  0.3603 -0.5538
  185MOL   N15948367   2.255   5.099   7.530 -0.0044 -0.3598  0.2684
  185MOL   C16048368   2.310   5.006   7.449  0.4448 -0.1320 -1.1826
  185MOL   O16148369   2.287   5.016   7.325  0.5212  0.6708  0.0655
  185MOL   C16248370   2.378   4.885   7.513  0.6554  0.1576  1.0287
  185MOL   C16348371   2.271   5.342   7.566  0.4919  0.2876  1.0165
  185MOL   H16448372   2.229   5.236   7.382 -0.6091  1.5949 -0.5463
  185MOL   H16548373   2.272   5.096   7.629 -0.6374 -0.0988  0.3863
  185MOL   H16648374   2.391   4.805   7.440  0.5035  0.8333  0.2538
  185MOL   H16748375   2.476   4.919   7.543  0.0273 -0.3627  3.8186
  185MOL   H16848376   2.331   4.859   7.608 -0.2223  0.3105  0.6433
  185MOL   H16948377   2.234   5.330   7.668  1.2523  0.4563  1.3191
  185MOL   H17048378   2.374   5.318   7.593  1.4171  2.8345 -0.0918
  185MOL   C17148379   2.259   5.482   7.502 -0.1061 -0.1471 -0.0655
  185MOL   N17248380   2.378   5.538   7.436  0.1621 -0.0660 -0.0912
  185MOL   C17348381   2.385   5.565   7.308  0.7108  0.8593 -0.5704
  185MOL   O17448382   2.288   5.584   7.236 -0.0524  0.2307 -0.7983
  185MOL   C17548383   2.522   5.584   7.244 -0.1853  0.0808  0.4736
  185MOL   C17648384   2.230   5.584   7.614 -0.0731 -0.6348 -0.4038
  185MOL   H17748385   2.178   5.482   7.429  0.1898  0.4645 -0.4011
  185MOL   H17848386   2.464   5.532   7.488  0.8656  0.4720 -1.1836
  185MOL   H17948387   2.569   5.682   7.253 -0.9298  0.4521  0.3909
  185MOL   H18048388   2.594   5.517   7.291  0.3103  0.0355 -0.3550
  185MOL   H18148389   2.518   5.560   7.138  1.3347  1.8839 -0.0143
  185MOL   H18248390   2.290   5.563   7.703 -0.6628  0.9768  0.3835
  185MOL   H18348391   2.252   5.685   7.580 -2.7209 -0.2257 -1.0130
  185MOL   C18448392   2.080   5.585   7.665 -0.2588  0.1849  0.4449
  185MOL   N18548393   2.007   5.636   7.554 -0.4126 -0.3231 -0.3632
  185MOL   C18648394   1.901   5.586   7.496  0.0372 -0.5833  0.5470
  185MOL   O18748395   1.835   5.495   7.541  0.2554 -0.3351 -0.1541
  185MOL   C18848396   1.855   5.648   7.366  0.1417  0.1360  0.7388
  185MOL   C18948397   2.063   5.668   7.799 -0.2502 -0.1974 -0.4074
  185MOL   H19048398   2.049   5.481   7.675  0.3084  0.0765  1.0350
  185MOL   H19148399   2.032   5.729   7.524  1.4589 -0.3439  1.0295
  185MOL   H19248400   1.931   5.624   7.292  1.8733  1.2069  2.1298
  185MOL   H19348401   1.759   5.603   7.343 -0.3737  1.3327  0.4951
  185MOL   H19448402   1.845   5.757   7.363 -1.2039  0.0687  2.0541
  185MOL   H19548403   2.128   5.627   0.036 -0.6698 -0.6386 -0.2789
  185MOL   H19648404   2.115   5.761   7.778 -0.0945 -0.4961 -1.3698
  185MOL   C19748405   1.914   5.679   0.010  0.1772 -0.5224  0.5802
  185MOL   N19848406   1.834   5.560   7.833  0.0691  0.2900 -0.3863
  185MOL   C19948407   1.757   5.503   0.088  0.4496  0.0202 -0.4553
  185MOL   O20048408   1.759   5.540   0.208  0.2957  0.5746  0.1730
  185MOL   C20148409   1.677   5.378   0.051 -0.5354 -0.0314  0.9108
  185MOL   C20248410   1.842   5.809   7.822  0.3824 -0.5502 -0.1022
  185MOL   H20348411   1.936   5.698   0.115  0.5027 -0.1234  0.4427
  185MOL   H20448412   1.840   5.520   7.741  0.1149  1.4361 -0.8906
  185MOL   H20548413   1.744   5.300   0.015 -0.1616  0.2814  0.9256
  185MOL   H20648414   1.599   5.349   0.121 -1.0473  1.6864  1.0683
  185MOL   H20748415   1.623   5.396   7.798  0.1663 -0.2773  0.4482
  185MOL   H20848416   1.831   5.814   7.714 -1.1469 -2.0209 -0.0218
  185MOL   H20948417   1.736   5.802   0.007 -0.0016  3.0577 -0.4381
  185MOL   C21048418   1.914   5.941   0.020 -0.0639 -0.0386 -0.3114
  185MOL   N21148419   1.917   5.959   0.163 -0.4315 -0.3044  0.2733
  185MOL   C21248420   2.017   5.924   0.247 -0.4874  0.7880  0.2323
  185MOL   O21348421   2.124   5.871   0.217 -0.3733 -0.3767 -0.0070
  185MOL   C21448422   2.004   5.965   0.394 -0.4569 -0.1694 -0.5208
  185MOL   C21548423   1.842   6.067   7.805 -0.4379 -0.0813 -0.0198
  185MOL   H21648424   2.019   5.941   7.829 -0.1297  0.8722 -0.5420
  185MOL   H21748425   1.838   5.998   0.212  0.4645 -0.7399  2.1161
  185MOL   H21848426   2.063   6.057   0.406 -1.6277  0.5610 -0.2843
  185MOL   H21948427   1.907   6.006   0.421 -0.9267 -0.2369 -2.0225
  185MOL   H22048428   2.038   5.881   0.454 -1.5048 -0.5167 -0.4096
  185MOL   H22148429   1.741   6.069   0.007 -0.6559  1.6448 -0.5970
  185MOL   H22248430   1.884   6.154   0.016  0.3004  0.4416 -1.5026
  185MOL   C22348431   1.826   6.100   7.658 -0.3553  0.4004 -0.0868
  185MOL   N22448432   1.962   6.129   7.604 -0.5896  0.2361 -0.5048
  185MOL   C22548433   2.050   6.043   7.553  0.3203 -0.1837  0.2951
  185MOL   O22648434   2.030   5.922   7.556 -0.2930  0.0353  0.0084
  185MOL   C22748435   2.179   6.105   7.497 -0.9242 -0.0824 -0.1391
  185MOL   C22848436   1.737   6.228   7.640  0.2515 -0.7020 -0.2754
  185MOL   H22948437   1.786   6.015   7.602 -0.7570  1.3104 -1.1938
  185MOL   H23048438   1.992   6.225   7.606 -2.0183  0.7129 -1.6199
  185MOL   H23148439   2.265   6.040   7.514 -0.3396  1.4618  3.0724
  185MOL   H23248440   2.173   6.111   7.388 -2.4586 -1.0429 -0.1255
  185MOL   H23348441   2.208   6.200   7.541  1.1020 -0.6906 -0.1097
  185MOL   H23448442   1.767   6.298   7.719  0.4669 -0.8067 -0.2661
  185MOL   H23548443   1.772   6.281   7.552  0.4987  1.9948  1.3892
  185MOL   C23648444   1.583   6.214   7.629 -0.1444 -0.8687 -0.2686
  185MOL   N23748445   1.514   6.336   7.649  0.1959 -0.5970 -0.0636
  185MOL   C23848446   1.421   6.389   7.567 -0.4439  0.3479 -0.4492
  185MOL   O23948447   1.387   6.324   7.469 -0.1303 -0.2745  0.1777
  185MOL   C24048448   1.362   6.516   7.611 -0.0446  0.4141  0.2003
  185MOL   C24148449   1.516   6.104   7.714  0.1041  0.5894 -0.5115
  185MOL   H24248450   1.577   6.179   7.527 -0.1837 -3.4957  0.6112
  185MOL   H24348451   1.535   6.385   7.735 -0.2898  0.5024 -0.5573
  185MOL   H24448452   1.283   6.534   7.539  0.0895  2.0210  0.4433
  185MOL   H24548453   1.328   6.499   7.713  0.0004 -1.7919 -0.1345
  185MOL   H24648454   1.444   6.588   7.604  0.9935 -0.6925  0.6524
  185MOL   H24748455   1.574   6.016   7.688  0.5278  0.6731  0.1356
  185MOL   H24848456   1.539   6.131   7.817  1.6151 -2.9383  0.1409
  185MOL   C24948457   1.365   6.071   7.686 -0.1444  0.5920 -0.8888
  185MOL   N25048458   1.328   5.971   7.786  0.0141  0.0184  0.0989
  185MOL   C25148459   1.229   5.971   0.034 -0.1513 -0.3726 -0.3119
  185MOL   O25248460   1.151   6.069   0.031 -0.2698 -0.3563 -0.3989
  185MOL   C25348461   1.224   5.873   0.154  0.3777 -0.5093 -0.0974
  185MOL   C25448462   1.349   6.006   7.549 -0.7490  0.4262  0.0243
  185MOL   H25548463   1.299   6.157   7.699 -1.5663 -0.4997 -0.8049
  185MOL   H25648464   1.398   5.903   7.810  1.4664  1.2030 -0.6699
  185MOL   H25748465   1.127   5.825   0.168 -1.6626  2.4909 -3.1277
  185MOL   H25848466   1.293   5.789   0.146  0.2678 -0.4872 -1.4091
  185MOL   H25948467   1.256   5.927   0.244  2.0755  1.9825 -2.1259
  185MOL   H26048468   1.388   6.058   7.463  2.2129  0.0847  1.1086
  185MOL   H26148469   1.412   5.917   7.555 -2.0529 -0.7197 -2.4276
  185MOL   H26248470   1.247   5.971   7.529 -0.1190 -1.4422 -0.0680
  186MOL     C148471   4.876   1.870   0.469 -0.0958  0.9941 -0.2759
  186MOL     N248472   5.006   1.924   0.440 -0.2997 -0.4022 -0.3203
  186MOL     C348473   5.039   2.040   0.375  0.7103  0.4422 -0.0364
  186MOL     O448474   4.951   2.097   0.309 -0.6844 -0.3623 -0.8010
  186MOL     C548475   5.179   2.098   0.363 -0.4228  0.3378 -0.8087
  186MOL     C648476   4.871   1.805   0.608 -0.0171  1.3425  0.6089
  186MOL     H748477   4.800   1.948   0.462 -0.7876  0.2229 -1.6307
  186MOL     H848478   5.088   1.883   0.483  1.8703  1.4157 -2.5609
  186MOL     H948479   5.201   2.172   0.440  1.7279 -1.3796  0.3079
  186MOL    H1048480   5.259   2.024   0.372 -0.0500  0.8408  0.2126
  186MOL    H1148481   5.189   2.152   0.269  0.6869  1.9310  0.1923
  186MOL    H1248482   4.965   1.755   0.627 -0.2378  0.0460 -1.5132
  186MOL    H1348483   4.846   1.879   0.684 -0.6240  0.5989  1.1350
  186MOL    H1448484   4.859   1.794   0.392  2.5333  1.7763 -1.7043
  186MOL    C1548485   4.764   1.691   0.617 -0.0577 -0.4601 -0.2400
  186MOL    N1648486   4.647   1.729   0.541 -0.4983 -0.6571 -0.5310
  186MOL    C1748487   4.597   1.674   0.421 -0.5908  0.9233  0.1789
  186MOL    O1848488   4.661   1.591   0.355  0.3980  0.2730 -0.2145
  186MOL    C1948489   4.463   1.723   0.357 -0.4445  0.1008  0.1187
  186MOL    C2048490   4.721   1.631   0.747 -1.0924  0.2601 -0.3981
  186MOL    H2148491   4.787   1.606   0.552 -1.5150  1.0618 -2.8246
  186MOL    H2248492   4.605   1.814   0.576  0.8716 -0.4660  0.7019
  186MOL    H2348493   4.389   1.681   0.425 -0.1893 -0.2688  0.1696
  186MOL    H2448494   4.444   1.830   0.364 -2.1579 -0.2425  0.8777
  186MOL    H2548495   4.440   1.688   0.256  3.7231 -0.2814 -0.8081
  186MOL    H2648496   4.672   1.707   0.809  0.7825 -0.5944  2.2362
  186MOL    H2748497   4.644   1.557   0.726 -0.3266 -0.4031 -0.8867
  186MOL    C2848498   4.835   1.554   0.828  0.5174 -0.0896 -0.4697
  186MOL    N2948499   4.880   1.429   0.764 -0.0824 -0.9743  0.8800
  186MOL    C3048500   4.991   1.402   0.694  0.0771  0.1192  0.6058
  186MOL    O3148501   5.078   1.489   0.678  0.5019 -0.3125  0.9353
  186MOL    C3248502   5.027   1.259   0.652  0.3608  0.1930  0.4021
  186MOL    C3348503   4.792   1.521   0.971  0.0391  0.3079  0.0425
  186MOL    H3448504   4.923   1.619   0.828 -0.4185  1.2218 -2.8078
  186MOL    H3548505   4.826   1.350   0.796 -1.0142 -0.4331  0.6615
  186MOL    H3648506   5.123   1.241   0.604  0.0931 -1.4088  0.4363
  186MOL    H3748507   5.016   1.185   0.731  1.5607 -0.3860  0.0430
  186MOL    H3848508   4.954   1.241   0.573  1.2164  2.0174 -0.8529
  186MOL    H3948509   4.779   1.620   1.015  0.5858  1.1690 -1.6581
  186MOL    H4048510   4.702   1.459   0.980  0.4802 -0.2399  0.6646
  186MOL    C4148511   4.899   1.447   1.057 -0.2885  0.2014  0.3145
  186MOL    N4248512   4.838   1.385   1.175  0.7331  0.2039  0.0213
  186MOL    C4348513   4.777   1.269   1.181  0.0136 -0.3667 -0.3203
  186MOL    O4448514   4.761   1.196   1.085  0.8126 -0.7487 -0.2743
  186MOL    C4548515   4.698   1.236   1.308 -0.3386 -0.1707 -0.3542
  186MOL    C4648516   5.013   1.540   1.116  0.9513 -0.4224  1.0313
  186MOL    H4748517   4.947   1.367   1.000 -1.8565 -0.9588  0.6126
  186MOL    H4848518   4.831   1.438   1.260 -1.5158 -0.3810  0.2168
  186MOL    H4948519   4.639   1.145   1.296 -0.2778 -0.4209  1.1406
  186MOL    H5048520   4.757   1.235   1.400 -2.4316  0.5174  1.0322
  186MOL    H5148521   4.609   1.294   1.332 -0.1696 -0.0815  0.0612
  186MOL    H5248522   5.043   1.611   1.039 -1.8014  1.4811  1.6547
  186MOL    H5348523   4.969   1.598   1.197 -1.3504 -1.8697  0.8547
  186MOL    C5448524   5.133   1.463   1.149 -0.1843  0.4357 -0.2949
  186MOL    N5548525   5.195   1.510   1.275 -0.7539  1.0201 -0.5026
  186MOL    C5648526   5.274   1.616   1.288 -0.3771 -0.0950 -0.5231
  186MOL    O5748527   5.291   1.698   1.202  0.2464 -0.3929 -0.0870
  186MOL    C5848528   5.339   1.631   1.427  0.5737  0.1766  0.7285
  186MOL    C5948529   5.231   1.436   1.029 -0.0156 -0.1981  0.6902
  186MOL    H6048530   5.103   1.364   1.182  0.2889  0.8550  1.4368
  186MOL    H6148531   5.166   1.452   1.352 -0.5639 -3.3589 -3.5024
  186MOL    H6248532   5.434   1.579   1.419  0.8256  0.9435 -1.5921
  186MOL    H6348533   5.365   1.736   1.439 -0.7412  0.7999 -1.6068
  186MOL    H6448534   5.282   1.606   1.517  0.0679  0.0030  0.3626
  186MOL    H6548535   5.179   1.391   0.944  2.2029  0.5587 -1.1024
  186MOL    H6648536   5.253   1.530   0.979 -0.3757 -0.9045 -0.8204
  186MOL    C6748537   5.356   1.345   1.067  0.1855  0.7282  0.1545
  186MOL    N6848538   5.440   1.339   0.946  0.4704  0.2212  0.3338
  186MOL    C6948539   5.558   1.402   0.930  0.0337 -0.0219 -0.1586
  186MOL    O7048540   5.625   1.457   1.023 -0.2829 -0.0713  0.1504
  186MOL    C7148541   5.604   1.420   0.784  0.5245 -0.5948  0.5380
  186MOL    C7248542   5.318   1.200   1.108 -0.1121 -0.2205 -0.1360
  186MOL    H7348543   5.411   1.392   1.149  1.0034 -0.7484  0.4674
  186MOL    H7448544   5.402   1.301   0.861 -1.5749  1.8206  0.4882
  186MOL    H7548545   5.668   1.345   0.739 -1.0553 -0.9524 -1.1892
  186MOL    H7648546   5.515   1.423   0.721  1.4224  0.0501 -0.7362
  186MOL    H7748547   5.650   1.519   0.787 -0.8319  0.1556 -1.7561
  186MOL    H7848548   5.224   1.186   1.161  1.1307  1.5846  2.6998
  186MOL    H7948549   5.308   1.152   1.011 -1.7401 -1.0533  0.4294
  186MOL    C8048550   5.422   1.119   1.199  0.5885 -0.8804 -0.0188
  186MOL    N8148551   5.418   0.976   1.169  0.1796  0.5769 -0.0131
  186MOL    C8248552   5.520   0.892   1.152 -0.0112 -0.3667  0.5090
  186MOL    O8348553   5.636   0.933   1.140  0.5131 -0.2599 -0.0514
  186MOL    C8448554   5.485   0.745   1.134  0.7210  0.2821  0.1806
  186MOL    C8548555   5.394   1.154   1.349 -0.2857  0.2987 -0.5822
  186MOL    H8648556   5.520   1.154   1.168 -0.3403  1.3374 -0.5207
  186MOL    H8748557   5.326   0.937   1.153  0.0754  0.2583  1.3692
  186MOL    H8848558   5.376   0.734   1.133  0.7955 -0.4387 -1.2986
  186MOL    H8948559   5.533   0.723   1.039 -1.2963  1.8515 -1.2648
  186MOL    H9048560   5.526   0.680   1.211  0.4612 -0.9649 -0.7158
  186MOL    H9148561   5.477   1.130   1.415  0.8001  2.6016 -1.0872
  186MOL    H9248562   5.389   1.262   1.360 -0.2374  0.3618 -1.1878
  186MOL    C9348563   5.260   1.104   1.419  0.3173 -0.0966 -0.2321
  186MOL    N9448564   5.246   1.168   1.551  0.2967 -0.7319  0.4922
  186MOL    C9548565   5.157   1.265   1.573  0.0543 -0.2947 -0.1920
  186MOL    O9648566   5.102   1.320   1.477  0.1006  0.2640 -0.0439
  186MOL    C9748567   5.117   1.300   1.718  0.4121  0.1259 -0.0082
  186MOL    C9848568   5.219   0.956   1.428 -0.6741  0.4976 -0.9898
  186MOL    H9948569   5.181   1.141   1.353 -1.4706 -0.2384  1.7859
  186MOL   H10048570   5.309   1.142   1.625 -0.3841  0.2562  1.4321
  186MOL   H10148571   5.151   1.402   1.731 -2.3733  1.2663 -1.2573
  186MOL   H10248572   5.009   1.310   1.735  0.6188  0.2630  1.2714
  186MOL   H10348573   5.155   1.226   1.788  2.5755  0.4793 -0.7851
  186MOL   H10448574   5.255   0.906   1.338  2.8963  0.3280  0.4210
  186MOL   H10548575   5.282   0.898   1.496 -1.7960 -0.3357 -0.6374
  186MOL   C10648576   5.075   0.918   1.450 -0.4043  0.7737  0.0698
  186MOL   N10748577   5.026   0.939   1.585  0.5877 -0.2957  0.8337
  186MOL   C10848578   5.069   0.889   1.702  0.2456 -0.2796 -0.0635
  186MOL   O10948579   5.176   0.836   1.723  0.4115 -0.1205  0.0209
  186MOL   C11048580   4.983   0.921   1.820 -0.0808  0.1498  0.0993
  186MOL   C11148581   5.033   0.771   1.415 -0.2783  0.0023  0.6016
  186MOL   H11248582   5.010   0.980   1.389 -0.2529  1.6087  0.7343
  186MOL   H11348583   4.934   0.978   1.595  0.2350 -0.8486 -0.2412
  186MOL   H11448584   4.895   0.859   1.804  0.7170 -0.3246 -2.6881
  186MOL   H11548585   5.028   0.895   1.916 -0.9892 -0.4368  0.3769
  186MOL   H11648586   4.954   1.026   1.824 -1.5174 -0.2491  0.4234
  186MOL   H11748587   5.076   0.703   1.489 -0.5797 -4.1492 -2.8468
  186MOL   H11848588   4.929   0.758   1.445 -1.4383  1.8938 -2.4185
  186MOL   C11948589   5.066   0.721   1.273  0.1646 -0.3872 -0.5773
  186MOL   N12048590   4.994   0.792   1.167 -0.0894 -0.2896 -0.2360
  186MOL   C12148591   5.036   0.884   1.082  0.1280 -0.5761 -0.6588
  186MOL   O12248592   5.147   0.927   1.087  0.5878  0.0245 -0.3924
  186MOL   C12348593   4.944   0.938   0.978  0.7369 -0.1346 -0.1938
  186MOL   C12448594   5.029   0.571   1.259 -0.1323 -0.1719 -0.2371
  186MOL   H12548595   5.171   0.719   1.244  0.9649  0.2001  2.1596
  186MOL   H12648596   4.894   0.782   1.162 -0.1037  0.6581 -2.4316
  186MOL   H12748597   4.945   1.047   0.974 -2.8568 -0.0885 -2.1763
  186MOL   H12848598   4.973   0.899   0.880  0.2970  0.8485 -0.7278
  186MOL   H12948599   4.841   0.907   0.996 -0.1430  1.5679 -2.0064
  186MOL   H13048600   4.930   0.554   1.301 -0.3885  1.3406 -0.2248
  186MOL   H13148601   5.019   0.549   1.152  2.9791 -3.2287  0.0100
  186MOL   C13248602   5.138   0.467   1.314 -0.1594  0.0438  0.4115
  186MOL   N13348603   5.140   0.343   1.231 -0.7392 -0.3990  0.0915
  186MOL   C13448604   5.042   0.281   1.165 -0.1855  0.7727 -0.0950
  186MOL   O13548605   4.924   0.316   1.180 -0.4373 -0.2244 -0.2277
  186MOL   C13648606   5.080   0.164   1.079 -1.1148  0.4583  0.6839
  186MOL   C13748607   5.139   0.431   1.466  0.4712 -0.3499  0.1551
  186MOL   H13848608   5.233   0.517   1.296  0.1070 -0.3418  0.7352
  186MOL   H13948609   5.231   0.311   1.201 -0.1934  2.3614 -1.4283
  186MOL   H14048610   5.178   0.193   1.043 -1.5353  1.5954  0.4446
  186MOL   H14148611   5.081   0.068   1.132 -0.0206  0.1399  0.0898
  186MOL   H14248612   5.011   0.160   0.995 -1.8386  2.7638  1.1289
  186MOL   H14348613   5.225   0.366   1.483  1.0833  0.7985  1.5552
  186MOL   H14448614   5.163   0.520   1.524  0.2739 -1.8271  2.5750
  186MOL   C14548615   5.012   0.361   1.528  0.3092 -0.4722  0.4756
  186MOL   N14648616   5.008   0.392   1.666  0.2198 -0.3791  0.6733
  186MOL   C14748617   4.906   0.443   1.739 -0.7058 -0.5813  0.0489
  186MOL   O14848618   4.791   0.444   1.694  0.0100  0.3649 -0.1280
  186MOL   C14948619   4.934   0.517   1.872 -0.7002 -0.2377  0.4260
  186MOL   C15048620   5.014   0.207   1.514  0.0457  0.1758  0.8233
  186MOL   H15148621   4.924   0.403   1.479  1.7599  1.6341 -0.3867
  186MOL   H15248622   5.093   0.361   1.710  1.8056  0.3655 -1.7630
  186MOL   H15348623   4.947   0.452   1.958  1.8582  0.8415  0.8935
  186MOL   H15448624   5.020   0.583   1.862 -0.1718 -1.2126 -1.5210
  186MOL   H15548625   4.852   0.588   1.886  0.6201  1.9892 -2.4796
  186MOL   H15648626   5.054   0.177   1.417 -0.1852 -1.8670  1.3464
  186MOL   H15748627   5.095   0.172   1.578  1.5476  2.2214  0.0860
  186MOL   C15848628   4.880   0.129   1.543 -0.0062  0.1520  0.4023
  186MOL   N15948629   4.913   7.827   1.552 -0.4784 -0.0692 -0.1136
  186MOL   C16048630   4.913   7.750   1.659 -0.5934  0.6377  0.1707
  186MOL   O16148631   4.870   7.784   1.767  0.3008  0.6127 -0.1114
  186MOL   C16248632   4.980   7.620   1.667  0.0951 -0.0051 -0.0592
  186MOL   C16348633   4.771   0.157   1.440  0.8102 -0.6252  0.1087
  186MOL   H16448634   4.846   0.168   1.639 -1.1740 -0.0951  0.0928
  186MOL   H16548635   4.953   7.780   1.472  0.0854  0.3977 -0.1127
  186MOL   H16648636   4.899   7.553   1.696 -0.5183  1.1222  0.9159
  186MOL   H16748637   4.991   7.579   1.567  1.2059  0.5447 -0.1686
  186MOL   H16848638   5.066   7.615   1.734 -2.1598 -1.8278  2.8394
  186MOL   H16948639   4.767   0.263   1.415 -0.6101 -0.1209  2.2590
  186MOL   H17048640   4.803   0.118   1.344 -2.6858  0.5059 -1.6000
  186MOL   C17148641   4.630   0.101   1.467  0.0009 -0.0752 -0.4310
  186MOL   N17248642   4.539   0.135   1.354  0.1481 -0.1709  0.8800
  186MOL   C17348643   4.437   0.065   1.304  0.2036 -0.2395 -0.3271
  186MOL   O17448644   4.418   7.788   1.340  0.2319  0.9228 -0.2790
  186MOL   C17548645   4.353   0.128   1.192  0.7615 -0.6737 -0.6777
  186MOL   C17648646   4.571   0.149   1.601  0.5992 -0.1938  0.0152
  186MOL   H17748647   4.647   7.833   1.465 -1.3512 -0.3099 -0.0752
  186MOL   H17848648   4.543   0.231   1.324 -3.0894 -0.0857  0.5649
  186MOL   H17948649   4.422   0.174   1.122 -0.2765  0.1459 -1.1750
  186MOL   H18048650   4.295   0.057   1.134 -1.4043 -0.2843  0.9275
  186MOL   H18148651   4.290   0.206   1.236 -2.7791 -3.0627 -1.2935
  186MOL   H18248652   4.495   0.074   1.622 -0.5212  0.7712 -0.4820
  186MOL   H18348653   4.635   0.134   1.687  0.7076 -1.0331 -0.2093
  186MOL   C18448654   4.502   0.287   1.611  0.1668 -0.0416  0.0458
  186MOL   N18548655   4.578   0.395   1.551  0.1063  0.7440 -0.4981
  186MOL   C18648656   4.548   0.455   1.436  0.3661  0.0562 -0.1956
  186MOL   O18748657   4.446   0.423   1.371  0.3656 -0.3703  0.5171
  186MOL   C18848658   4.642   0.562   1.377  0.3398 -0.0246  0.3862
  186MOL   C18948659   4.484   0.317   1.763 -0.0280 -0.2464  0.5191
  186MOL   H19048660   4.407   0.285   1.558 -0.6732  2.6395  1.3812
  186MOL   H19148661   4.669   0.417   1.590 -0.8779  1.4526  1.4549
  186MOL   H19248662   4.593   0.629   1.306  1.8492 -2.0888 -2.7395
  186MOL   H19348663   4.669   0.623   1.462  0.3398 -0.3935  0.6523
  186MOL   H19448664   4.727   0.507   1.336  0.3353  1.6491 -2.0223
  186MOL   H19548665   4.437   0.239   1.824 -0.5137  1.2295  2.0778
  186MOL   H19648666   4.585   0.326   1.804  0.2914  3.3355 -0.8594
  186MOL   C19748667   4.420   0.465   1.782 -0.6763 -0.1229 -0.9291
  186MOL   N19848668   4.443   0.503   1.925 -0.2983 -0.2154 -0.3158
  186MOL   C19948669   4.518   0.609   1.956  0.6351 -0.1934  0.0335
  186MOL   O20048670   4.561   0.699   1.877 -0.2010  0.0028 -0.1058
  186MOL   C20148671   4.562   0.628   2.102  0.2169 -0.0954 -0.4125
  186MOL   C20248672   4.271   0.483   1.743 -0.2760  0.0488  0.4035
  186MOL   H20348673   4.485   0.536   1.731  0.6658  1.5197  2.9395
  186MOL   H20448674   4.419   0.439   2.000 -1.0697  0.2767 -0.1300
  186MOL   H20548675   4.614   0.541   2.140 -0.9546  0.0026  1.4575
  186MOL   H20648676   4.617   0.719   2.126 -2.1047  1.4186 -0.6267
  186MOL   H20748677   4.472   0.637   2.163  0.1680  2.0906 -0.7558
  186MOL   H20848678   4.263   0.430   1.648  1.6756  0.0158  0.2398
  186MOL   H20948679   4.210   0.438   1.821  0.3994 -1.7803 -0.0909
  186MOL   C21048680   4.240   0.636   1.723  0.2471  0.5870 -0.1565
  186MOL   N21148681   4.098   0.650   1.729 -0.2451 -0.4056 -0.2035
  186MOL   C21248682   4.029   0.769   1.744  0.0814 -0.4622  0.6426
  186MOL   O21348683   4.078   0.873   1.782  0.6009 -0.4593 -0.0525
  186MOL   C21448684   3.876   0.770   1.724 -0.9331 -0.3387 -0.3560
  186MOL   C21548685   4.297   0.705   1.590  0.0740 -0.1472  0.6767
  186MOL   H21648686   4.292   0.687   1.804  1.9273 -2.1789  0.5852
  186MOL   H21748687   4.040   0.577   1.691 -0.1631 -0.7350  0.3007
  186MOL   H21848688   3.830   0.868   1.733  0.8403  0.4462  0.5406
  186MOL   H21948689   3.857   0.736   1.622 -1.6512  2.7827 -1.3042
  186MOL   H22048690   3.839   0.684   1.781  1.9580 -0.7485  1.0046
  186MOL   H22148691   4.308   0.812   1.608  1.1723  0.2185 -1.9409
  186MOL   H22248692   4.403   0.687   1.576  0.5660  2.6815  0.4963
  186MOL   C22348693   4.207   0.687   1.461  0.0080 -0.0288 -0.1212
  186MOL   N22448694   4.188   0.542   1.443  0.6160  0.4862 -0.0983
  186MOL   C22548695   4.073   0.478   1.442 -0.2724  0.6456 -0.2379
  186MOL   O22648696   3.970   0.534   1.475  0.0699 -0.1021  0.3801
  186MOL   C22748697   4.069   0.334   1.401  0.0258  0.6547 -0.3675
  186MOL   C22848698   4.262   0.765   1.337 -0.0507  0.0828 -0.6300
  186MOL   H22948699   4.110   0.727   1.494 -0.1198 -2.0489  2.1045
  186MOL   H23048700   4.269   0.492   1.408  1.2802  1.5334 -0.0948
  186MOL   H23148701   4.170   0.301   1.379  0.6784  1.5979  1.1094
  186MOL   H23248702   4.032   0.268   1.480 -0.5762  0.7478 -0.5638
  186MOL   H23348703   4.005   0.332   1.312 -1.6773 -0.0963  0.8385
  186MOL   H23448704   4.293   0.861   1.379 -1.3025 -0.2563  1.1483
  186MOL   H23548705   4.346   0.722   1.282  0.3499  0.9930 -0.7438
  186MOL   C23648706   4.151   0.791   1.230  0.2788  0.4845  0.0896
  186MOL   N23748707   4.114   0.663   1.167 -0.4604  0.1065 -0.3806
  186MOL   C23848708   4.185   0.593   1.079 -0.6794 -0.1285  0.4892
  186MOL   O23948709   4.309   0.605   1.061 -0.0652 -0.0917  0.1931
  186MOL   C24048710   4.108   0.483   1.003  0.0912 -0.6291  0.2114
  186MOL   C24148711   4.176   0.895   1.114  0.2977 -0.1498 -0.7252
  186MOL   H24248712   4.067   0.824   1.290 -1.0194 -1.5722 -0.5477
  186MOL   H24348713   4.018   0.634   1.182  0.0711 -2.3506 -1.4144
  186MOL   H24448714   4.161   0.466   0.910 -1.6414 -0.3879 -0.8444
  186MOL   H24548715   4.120   0.388   1.055  0.3117 -0.2218  0.9109
  186MOL   H24648716   4.005   0.513   0.984  0.3788 -1.1693 -2.3774
  186MOL   H24748717   4.254   0.861   1.047 -1.0362  1.8289 -3.3863
  186MOL   H24848718   4.085   0.896   1.055  0.7104 -0.7351 -1.3825
  186MOL   C24948719   4.218   1.032   1.175  0.5142 -0.5933  0.4529
  186MOL   N25048720   4.147   1.073   1.298  0.1415  0.2946 -0.6600
  186MOL   C25148721   4.202   1.103   1.422 -0.3465  0.8673  0.0489
  186MOL   O25248722   4.322   1.092   1.448  0.3495  0.2190 -0.0704
  186MOL   C25348723   4.108   1.167   1.520  0.3465  0.2203  0.4874
  186MOL   C25448724   4.214   1.141   1.057 -0.8562 -0.7987 -0.2314
  186MOL   H25548725   4.326   1.028   1.190  1.0849 -0.0235 -3.0031
  186MOL   H25648726   4.046   1.078   1.292  0.0897  0.8886  0.6191
  186MOL   H25748727   4.122   1.275   1.522 -0.0454  0.2920 -0.3464
  186MOL   H25848728   4.006   1.153   1.485  0.8460 -2.1040 -0.1060
  186MOL   H25948729   4.117   1.124   1.620  1.1791 -0.2059  0.2301
  186MOL   H26048730   4.275   1.092   0.981  1.3055 -1.7855  2.0810
  186MOL   H26148731   4.111   1.158   1.024 -0.3664 -0.9865 -1.9028
  186MOL   H26248732   4.253   1.234   1.099  0.2340 -1.6046  0.5813
  187MOL     C148733   6.655   1.682   2.737 -0.5694 -0.2247  0.4788
  187MOL     N248734   6.639   1.767   2.851 -0.3300  0.7735 -0.2150
  187MOL     C348735   6.680   1.740   2.976  0.0175 -0.1271  0.1934
  187MOL     O448736   6.734   1.637   3.009  0.0646  0.5115 -0.0433
  187MOL     C548737   6.649   1.846   3.080 -0.1239  0.4738  0.7382
  187MOL     C648738   6.577   1.555   2.749 -0.0958 -0.5445 -0.0613
  187MOL     H748739   6.607   1.728   2.651 -2.1748 -0.5282  1.1888
  187MOL     H848740   6.587   1.851   2.830  1.2945  1.7022 -0.5963
  187MOL     H948741   6.551   1.886   3.056  0.2531  1.8045  1.3656
  187MOL    H1048742   6.662   1.800   3.178  0.1316  0.0667  0.5146
  187MOL    H1148743   6.723   1.926   3.076  1.0488 -0.6551 -0.7687
  187MOL    H1248744   6.615   1.489   2.826  2.1257  0.2233 -0.4710
  187MOL    H1348745   6.480   1.591   2.785  0.9518  1.3453  0.9196
  187MOL    H1448746   6.761   1.672   2.714 -0.4118 -1.7620  1.7668
  187MOL    C1548747   6.554   1.478   2.619 -0.0121 -1.0717  0.0368
  187MOL    N1648748   6.459   1.375   2.646  0.3823 -0.0069  0.4097
  187MOL    C1748749   6.321   1.386   2.627 -0.3467  0.2651 -0.2497
  187MOL    O1848750   6.266   1.489   2.596 -0.8238 -0.4211  0.3100
  187MOL    C1948751   6.251   1.261   2.657  0.2994 -0.2101  0.3825
  187MOL    C2048752   6.683   1.424   2.558 -0.0317 -0.4653  0.3288
  187MOL    H2148753   6.512   1.546   2.544 -1.7940 -0.5941  1.4290
  187MOL    H2248754   6.500   1.285   2.668 -0.2693 -0.1395  1.1154
  187MOL    H2348755   6.142   1.269   2.654  0.4522  1.9262 -0.0653
  187MOL    H2448756   6.284   1.185   2.587  0.2413 -0.8009  0.9850
  187MOL    H2548757   6.266   1.228   2.760  1.3274  0.5486  0.4767
  187MOL    H2648758   6.760   1.450   2.631 -0.3842 -0.7928  0.8176
  187MOL    H2748759   6.695   1.317   2.567  0.8361 -0.2837  1.3796
  187MOL    C2848760   6.720   1.479   2.420 -0.5272 -0.1285  0.3653
  187MOL    N2948761   6.718   1.625   2.409  0.5850 -0.4541 -0.2124
  187MOL    C3048762   6.784   1.704   2.325 -0.1295 -0.1184  0.3921
  187MOL    O3148763   6.856   1.660   2.236 -0.0638  0.3971 -0.3522
  187MOL    C3248764   6.771   1.847   2.353 -0.5822 -0.5476 -0.0823
  187MOL    C3348765   6.641   1.409   2.308  0.1400 -0.3547  0.2827
  187MOL    H3448766   6.822   1.442   2.409 -1.1418 -1.4379 -1.2394
  187MOL    H3548767   6.680   1.670   2.491 -1.3723 -1.1971 -0.7002
  187MOL    H3648768   6.838   1.889   2.278  1.0536  1.4740  2.4250
  187MOL    H3748769   6.674   1.888   2.326  0.5947  1.7603 -0.9206
  187MOL    H3848770   6.807   1.878   2.451 -1.3544  1.5522 -0.4432
  187MOL    H3948771   6.537   1.436   2.327 -0.9304 -2.4853 -2.3052
  187MOL    H4048772   6.676   1.456   2.216  0.0079 -0.1610  0.3317
  187MOL    C4148773   6.650   1.258   2.300  0.3060 -0.7864 -0.6574
  187MOL    N4248774   6.786   1.220   2.289  0.8512  0.3596 -0.9367
  187MOL    C4348775   6.853   1.123   2.351  0.1393  0.7278  0.0492
  187MOL    O4448776   6.975   1.107   2.324  0.1343  0.5787  0.0094
  187MOL    C4548777   6.794   1.038   2.460 -0.6744  0.0660  0.0517
  187MOL    C4648778   6.585   1.202   2.171  0.8675 -0.6816  0.0191
  187MOL    H4748779   6.607   1.206   2.386  1.2014 -0.5113 -0.0410
  187MOL    H4848780   6.844   1.272   2.225  3.1320  0.3693  1.0689
  187MOL    H4948781   6.856   0.949   2.474 -0.1020  0.5717  0.7258
  187MOL    H5048782   6.798   1.093   2.553 -0.8844  2.3265 -1.2477
  187MOL    H5148783   6.693   1.000   2.445 -0.3992 -0.0964 -1.5117
  187MOL    H5248784   6.604   1.267   2.086  2.1351 -0.2633  0.5994
  187MOL    H5348785   6.623   1.104   2.141  3.4530 -0.1587  1.4251
  187MOL    C5448786   6.429   1.201   2.158  0.6157 -0.4078 -0.3290
  187MOL    N5548787   6.376   1.060   2.174 -0.4521 -0.7679 -0.9751
  187MOL    C5648788   6.371   0.994   2.292 -0.3333 -0.0386  0.2180
  187MOL    O5748789   6.387   1.048   2.402  0.1921 -0.3099 -0.5749
  187MOL    C5848790   6.349   0.841   2.287 -0.1288  0.2096  0.0245
  187MOL    C5948791   6.384   1.278   2.031  0.4037  0.0320 -0.4126
  187MOL    H6048792   6.385   1.254   2.242 -2.1174 -2.5325 -0.3209
  187MOL    H6148793   6.358   1.000   2.095 -0.5564 -0.4643 -1.1849
  187MOL    H6248794   6.382   0.794   2.195  0.5498 -0.8160  0.7761
  187MOL    H6348795   6.402   0.794   2.371  0.5549  2.1733  0.7254
  187MOL    H6448796   6.244   0.813   2.292 -0.3002  0.9332  0.5156
  187MOL    H6548797   6.417   1.380   2.052 -0.5004  0.3160 -0.3765
  187MOL    H6648798   6.443   1.242   1.947  1.2582  3.4280 -1.3436
  187MOL    C6748799   6.230   1.292   2.014  0.7384 -0.5613 -0.6709
  187MOL    N6848800   6.199   1.369   1.892  0.0515 -0.0246 -0.1638
  187MOL    C6948801   6.166   1.321   1.776  0.6117  0.4873 -0.3926
  187MOL    O7048802   6.150   1.202   1.763 -0.3643  0.6406 -0.1911
  187MOL    C7148803   6.160   1.416   1.657 -0.4451 -0.4029 -0.9803
  187MOL    C7248804   6.171   1.366   2.145 -0.3867  0.6227 -0.1191
  187MOL    H7348805   6.190   1.192   2.003  1.4915 -1.1104  1.4250
  187MOL    H7448806   6.216   1.469   1.896 -0.8894  0.1400 -0.2820
  187MOL    H7548807   6.055   1.445   1.649 -0.5991 -0.1094  1.7314
  187MOL    H7648808   6.206   1.511   1.682 -0.6532  0.1903 -2.7738
  187MOL    H7748809   6.189   1.375   1.560 -0.0798 -1.9498 -0.2306
  187MOL    H7848810   6.182   1.288   2.220 -1.4229  3.0426  2.6525
  187MOL    H7948811   6.231   1.452   2.175  1.2589 -1.1428  1.7578
  187MOL    C8048812   6.024   1.409   2.126 -0.2570  0.0723  0.0076
  187MOL    N8148813   5.979   1.468   2.254 -0.3216 -0.5021  0.0965
  187MOL    C8248814   5.907   1.582   2.263  0.5283  0.1549  0.3161
  187MOL    O8348815   5.887   1.648   2.164  0.0476 -0.0421  0.1761
  187MOL    C8448816   5.851   1.611   2.400 -0.3551 -0.1855 -0.1423
  187MOL    C8548817   5.940   1.285   2.086  0.0948  0.7018 -0.2039
  187MOL    H8648818   6.018   1.488   2.051 -1.1961  0.3839  0.3977
  187MOL    H8748819   5.968   1.407   2.333 -0.9919  0.1232  0.4986
  187MOL    H8848820   5.934   1.605   2.471  0.3953 -3.7325 -1.2026
  187MOL    H8948821   5.804   1.709   2.402 -2.5153 -1.2136  1.9333
  187MOL    H9048822   5.793   1.530   2.445 -1.2614 -0.6707 -2.1289
  187MOL    H9148823   5.980   1.240   1.995 -0.2414 -1.7142  0.7871
  187MOL    H9248824   5.941   1.205   2.160 -0.7502 -0.3823 -1.3318
  187MOL    C9348825   5.787   1.308   2.053 -0.2478  0.5756  0.6437
  187MOL    N9448826   5.725   1.337   2.180  0.1458 -0.2836 -0.0486
  187MOL    C9548827   5.613   1.403   2.197  0.4866 -0.8982 -0.3522
  187MOL    O9648828   5.579   1.431   2.310  0.1239  0.1914  0.2736
  187MOL    C9748829   5.505   1.438   2.084  0.3151 -0.3966 -1.0534
  187MOL    C9848830   5.722   1.171   2.006  0.6689  0.4335 -0.0644
  187MOL    H9948831   5.774   1.382   1.974 -0.5157  0.3878  0.5142
  187MOL   H10048832   5.779   1.309   2.261  0.6827 -2.7740 -1.2194
  187MOL   H10148833   5.505   1.372   1.998  0.9887 -0.5816 -0.9128
  187MOL   H10248834   5.409   1.448   2.135  0.4104 -0.5026 -0.8516
  187MOL   H10348835   5.521   1.538   2.043  2.2432 -0.6255 -0.8811
  187MOL   H10448836   5.761   1.095   2.073 -1.2004 -0.5725 -0.0835
  187MOL   H10548837   5.619   1.177   2.038  0.7241 -0.8112  0.3567
  187MOL   C10648838   5.737   1.117   1.857 -0.8653  1.1175 -0.1863
  187MOL   N10748839   5.679   1.213   1.764  0.1246 -0.1576 -0.5274
  187MOL   C10848840   5.547   1.247   1.752 -0.6561 -0.6354 -0.2561
  187MOL   O10948841   5.453   1.188   1.808 -0.1731 -0.4774 -0.2927
  187MOL   C11048842   5.524   1.369   1.665  0.0622 -0.3697  0.7648
  187MOL   C11148843   5.689   0.973   1.845 -0.3593  0.4081  0.0986
  187MOL   H11248844   5.845   1.124   1.840 -0.2485 -1.0351  2.3671
  187MOL   H11348845   5.750   1.255   1.707  1.6703  1.2969  2.3507
  187MOL   H11448846   5.475   1.449   1.720 -0.3563 -0.4706  0.5423
  187MOL   H11548847   5.620   1.416   1.641 -1.1800  1.1502 -1.4659
  187MOL   H11648848   5.466   1.337   1.578 -0.5213 -0.0745  1.0442
  187MOL   H11748849   5.591   0.965   1.892 -0.5594 -0.6963 -0.4814
  187MOL   H11848850   5.672   0.962   1.737  0.6469  2.9707 -0.3436
  187MOL   C11948851   5.781   0.863   1.917  0.1092 -0.0474 -0.0338
  187MOL   N12048852   5.920   0.872   1.876  0.1967 -0.7663 -0.3218
  187MOL   C12148853   6.024   0.905   1.954  0.2809  0.0555  0.1949
  187MOL   O12248854   6.011   0.941   2.068  0.1962 -0.2706 -0.0164
  187MOL   C12348855   6.167   0.892   1.906 -0.0891  0.0878 -0.3253
  187MOL   C12448856   5.729   0.718   1.890  0.3733  0.1283  0.2573
  187MOL   H12548857   5.778   0.885   2.024  1.9030 -1.2096  0.2775
  187MOL   H12648858   5.953   0.844   1.785 -1.5999  1.3213 -1.6695
  187MOL   H12748859   6.235   0.894   1.991  1.0015 -1.0648 -1.1418
  187MOL   H12848860   6.182   0.798   1.852 -0.0118 -0.1546  0.1174
  187MOL   H12948861   6.195   0.963   1.828  0.4511 -0.6781 -0.8363
  187MOL   H13048862   5.622   0.724   1.908  0.3209 -0.5647  0.1812
  187MOL   H13148863   5.734   0.692   1.784 -0.3170 -0.1864  0.2984
  187MOL   C13248864   5.778   0.596   1.974 -0.0208 -0.3762 -0.5581
  187MOL   N13348865   5.882   0.535   1.898 -0.0277  0.2024 -0.8732
  187MOL   C13448866   6.012   0.533   1.923  0.5868 -0.4045  0.0698
  187MOL   O13548867   6.073   0.588   2.015 -0.0604  0.1681  0.3083
  187MOL   C13648868   6.094   0.458   1.826 -0.1982 -0.4151  0.2196
  187MOL   C13748869   5.663   0.485   1.991  0.0904 -0.2484  0.2858
  187MOL   H13848870   5.811   0.642   2.067 -0.9280 -1.4149  0.3059
  187MOL   H13948871   5.843   0.481   1.823 -4.5284  0.1900  1.3310
  187MOL   H14048872   6.054   0.364   1.787 -0.0613  0.3043 -1.7471
  187MOL   H14148873   6.102   0.533   1.747 -2.4139 -1.3976 -0.9974
  187MOL   H14248874   6.190   0.432   1.870 -0.6131 -1.4610  0.5108
  187MOL   H14348875   5.615   0.472   1.894  0.1766 -2.4702  0.5177
  187MOL   H14448876   5.699   0.384   2.008 -0.3653 -0.6023 -0.8552
  187MOL   C14548877   5.557   0.522   2.092  0.3998  0.4319 -0.6542
  187MOL   N14648878   5.582   0.479   2.228 -0.0897  0.0084 -0.5292
  187MOL   C14748879   5.587   0.355   2.288 -0.3603 -0.1035 -0.2361
  187MOL   O14848880   5.550   0.251   2.224 -0.1851 -0.4717 -0.2731
  187MOL   C14948881   5.628   0.355   2.433 -0.0397 -0.5109  0.2292
  187MOL   C15048882   5.419   0.475   2.044 -0.0262 -0.3449 -0.6249
  187MOL   H15148883   5.548   0.631   2.103 -0.3500  0.5108 -1.9231
  187MOL   H15248884   5.606   0.559   2.284  0.8159 -0.5702 -0.0686
  187MOL   H15348885   5.703   0.426   2.469  1.6415 -1.9298 -0.4104
  187MOL   H15448886   5.542   0.379   2.495 -0.2282  1.3008 -0.7025
  187MOL   H15548887   5.677   0.259   2.452 -2.2884 -1.6256  0.5251
  187MOL   H15648888   5.394   0.508   1.943 -2.0301 -1.2871 -0.4713
  187MOL   H15748889   5.444   0.370   2.030  4.3754  0.4309  0.6449
  187MOL   C15848890   5.290   0.489   2.128 -0.1709 -0.0576  0.4382
  187MOL   N15948891   5.204   0.368   2.113  0.1818  0.0826 -0.3143
  187MOL   C16048892   5.165   0.312   2.000  0.5397 -0.2272 -0.3827
  187MOL   O16148893   5.185   0.357   1.888  0.1779 -0.2311  0.0691
  187MOL   C16248894   5.086   0.185   2.003  0.1425  0.3308 -0.5569
  187MOL   C16348895   5.205   0.615   2.109 -0.3912  0.4218 -0.3835
  187MOL   H16448896   5.316   0.471   2.232  0.7098 -1.1223  0.0379
  187MOL   H16548897   5.201   0.294   2.182  1.4146 -0.8558 -1.2296
  187MOL   H16648898   5.056   0.145   2.100 -3.2598 -1.5042 -2.2668
  187MOL   H16748899   4.997   0.202   1.943  0.9900  0.1009 -1.8968
  187MOL   H16848900   5.134   0.107   1.943 -0.1545 -0.3516  0.0904
  187MOL   H16948901   5.204   0.638   2.002 -0.1770  0.3399 -0.4040
  187MOL   H17048902   5.102   0.596   2.138 -0.0065 -0.6761  0.2877
  187MOL   C17148903   5.267   0.732   2.187 -0.2864  0.1671  1.0394
  187MOL   N17248904   5.264   0.725   2.339 -0.1202 -0.1648  0.2239
  187MOL   C17348905   5.375   0.705   2.418  0.1936 -0.9898  0.0534
  187MOL   O17448906   5.489   0.686   2.370 -0.1699  0.3120 -0.4934
  187MOL   C17548907   5.354   0.681   2.561 -0.0108 -0.4228  0.0766
  187MOL   C17648908   5.209   0.869   2.141 -0.2993 -0.3512  0.4071
  187MOL   H17748909   5.371   0.737   2.155 -0.2782  0.6471  1.1380
  187MOL   H17848910   5.180   0.756   2.386  0.8863  1.1749  1.1787
  187MOL   H17948911   5.437   0.714   2.623  1.8023 -1.7232 -1.5690
  187MOL   H18048912   5.271   0.739   2.598 -0.1177  0.7975 -1.9793
  187MOL   H18148913   5.347   0.574   2.580 -2.1491  0.0230  1.8878
  187MOL   H18248914   5.237   0.880   2.036 -1.2512 -2.1202 -0.0594
  187MOL   H18348915   5.100   0.865   2.141 -0.3406  0.5668 -0.3361
  187MOL   C18448916   5.257   1.004   2.206  0.5540  0.1350 -0.1858
  187MOL   N18548917   5.214   1.116   2.129  0.0155 -0.4569  0.4145
  187MOL   C18648918   5.146   1.221   2.174 -0.1935 -1.0488  0.3330
  187MOL   O18748919   5.091   1.231   2.282 -0.0987 -0.4409 -0.3141
  187MOL   C18848920   5.135   1.332   2.067 -0.1846  1.3603 -0.4175
  187MOL   C18948921   5.415   1.012   2.227  0.6255  0.1947  0.0047
  187MOL   H19048922   5.210   0.999   2.304 -2.7686  2.2264 -1.5952
  187MOL   H19148923   5.241   1.119   2.031 -0.7623  2.7371  0.2584
  187MOL   H19248924   5.095   1.421   2.115 -2.0909 -0.6891  1.9623
  187MOL   H19348925   5.228   1.356   2.016  0.7307  0.3061  0.7002
  187MOL   H19448926   5.058   1.293   2.001  1.4638 -1.2970 -0.8637
  187MOL   H19548927   5.466   0.918   2.203 -0.2853 -0.2151 -0.3538
  187MOL   H19648928   5.451   1.084   2.153 -0.9213 -1.3807 -2.3931
  187MOL   C19748929   5.468   1.042   2.372 -0.2311  0.1538  0.3403
  187MOL   N19848930   5.433   1.180   2.401 -0.0071  0.5941  0.1093
  187MOL   C19948931   5.356   1.221   2.509 -0.8097  0.1592 -0.5814
  187MOL   O20048932   5.313   1.149   2.601  0.0365  0.2040  0.1080
  187MOL   C20148933   5.316   1.358   2.507  0.5206  0.5301 -0.2166
  187MOL   C20248934   5.616   1.014   2.379 -0.7521 -1.0639  0.5549
  187MOL   H20348935   5.422   0.980   2.448 -0.1767  0.0130  0.2599
  187MOL   H20448936   5.475   1.252   2.344 -0.3971 -0.8024 -1.9847
  187MOL   H20548937   5.383   1.405   2.435  1.9325 -0.1037  0.6722
  187MOL   H20648938   5.215   1.374   2.469 -0.1437  0.7706  1.5925
  187MOL   H20748939   5.338   1.410   2.600  3.8989 -2.1140  0.5342
  187MOL   H20848940   5.637   0.913   2.342 -3.9588 -1.9578  0.9906
  187MOL   H20948941   5.660   1.085   2.309  1.3247  0.0775  2.9639
  187MOL   C21048942   5.686   1.040   2.509 -0.2885 -0.2548 -0.3005
  187MOL   N21148943   5.829   1.031   2.504 -0.6091  0.6419  0.5774
  187MOL   C21248944   5.909   1.126   2.453 -0.1121 -0.1329 -0.5635
  187MOL   O21348945   5.864   1.234   2.406 -0.2417  0.4412 -0.4030
  187MOL   C21448946   6.050   1.086   2.413  0.4818  0.3259  0.5158
  187MOL   C21548947   5.622   0.958   2.625 -0.2113  0.5598 -0.2923
  187MOL   H21648948   5.663   1.139   2.548 -2.3784 -1.7537  2.4439
  187MOL   H21748949   5.869   0.941   2.525 -0.1934  0.3820 -1.2323
  187MOL   H21848950   6.099   1.024   2.488 -0.1068  0.9656  1.4410
  187MOL   H21948951   6.037   1.018   2.329 -0.5834  1.7496 -0.4997
  187MOL   H22048952   6.112   1.172   2.388  2.3115 -1.6808 -2.1212
  187MOL   H22148953   5.516   0.983   2.636  0.2368  2.0155  0.8716
  187MOL   H22248954   5.639   0.851   2.612  1.7618  0.3126  3.5722
  187MOL   C22348955   5.689   0.983   2.767  0.2790 -0.3652 -0.4685
  187MOL   N22448956   5.640   0.882   2.858 -0.5048  0.3907 -0.2735
  187MOL   C22548957   5.707   0.827   2.957  0.1196  0.0303 -0.4073
  187MOL   O22648958   5.820   0.850   2.985  0.1429 -0.3253  0.3836
  187MOL   C22748959   5.630   0.719   3.034  0.1227 -0.2010 -0.2258
  187MOL   C22848960   5.663   1.125   2.827  0.7833 -0.5547  0.3978
  187MOL   H22948961   5.797   0.971   2.758  0.2103  0.1129 -1.9917
  187MOL   H23048962   5.546   0.848   2.843 -0.3481  0.4229 -1.3771
  187MOL   H23148963   5.598   0.632   2.976  0.5314 -0.9961  0.7272
  187MOL   H23248964   5.704   0.694   3.109  0.3393 -1.5077 -0.8656
  187MOL   H23348965   5.540   0.741   3.092  1.5122  0.5964  1.6706
  187MOL   H23448966   5.750   1.161   2.881  0.3625  0.3458  0.4919
  187MOL   H23548967   5.649   1.203   2.752  1.8395  0.6807  1.4604
  187MOL   C23648968   5.548   1.143   2.927  0.2957 -0.9255  0.0385
  187MOL   N23748969   5.424   1.090   2.870  0.0361  0.3408 -0.0381
  187MOL   C23848970   5.339   1.004   2.933  0.0155 -0.2125  0.0482
  187MOL   O23948971   5.340   0.966   3.049  0.0387  0.1907  0.3113
  187MOL   C24048972   5.207   0.967   2.863  0.7739 -0.2367 -0.0312
  187MOL   C24148973   5.534   1.287   2.972 -0.0034 -0.4648 -0.0478
  187MOL   H24248974   5.572   1.094   3.021  1.2466 -1.5729 -0.5371
  187MOL   H24348975   5.395   1.118   2.778 -0.3715  3.4816  0.9893
  187MOL   H24448976   5.172   1.060   2.819 -0.5068 -1.2325 -1.1381
  187MOL   H24548977   5.237   0.900   2.782 -2.1105 -1.6912  0.0589
  187MOL   H24648978   5.129   0.922   2.924  1.3900 -0.0684  0.9015
  187MOL   H24748979   5.633   1.328   2.991 -0.0783 -1.6257  3.1386
  187MOL   H24848980   5.485   1.344   2.893 -0.4989 -0.3826  0.3198
  187MOL   C24948981   5.457   1.309   3.114  0.2177 -0.1527 -0.1052
  187MOL   N25048982   5.409   1.450   3.130  0.5163 -0.3270  0.3420
  187MOL   C25148983   5.284   1.489   3.099  0.0251 -0.1456  0.0343
  187MOL   O25248984   5.197   1.416   3.055  0.2673 -0.3780  0.6710
  187MOL   C25348985   5.265   1.639   3.127  0.4713 -0.2529  0.1396
  187MOL   C25448986   5.568   1.296   3.224  0.4103  0.0455  0.2051
  187MOL   H25548987   5.374   1.238   3.115 -1.7962  2.1218 -0.1017
  187MOL   H25648988   5.473   1.517   3.170 -2.0274  2.4771 -0.1262
  187MOL   H25748989   5.251   1.717   3.053 -0.3253  2.1231  2.7227
  187MOL   H25848990   5.177   1.641   3.191 -0.5149 -0.2771 -1.1891
  187MOL   H25948991   5.345   1.672   3.193  1.0650 -0.8240 -0.2899
  187MOL   H26048992   5.663   1.345   3.202 -0.0916  0.6312 -0.6963
  187MOL   H26148993   5.540   1.329   3.324  0.8838  0.3698  0.2329
  187MOL   H26248994   5.600   1.194   3.245 -0.2753 -0.4122 -0.9504
  188MOL     C148995   0.492   6.092   4.046  0.1333  0.2813  1.1161
  188MOL     N248996   0.625   6.073   4.118  1.0010  0.2273  0.2486
  188MOL     C348997   0.721   5.994   4.074  0.0537 -0.5299 -0.1490
  188MOL     O448998   0.714   5.947   3.967  0.3921  0.3054 -0.2952
  188MOL     C548999   0.856   5.997   4.153  0.5785 -0.9722 -0.0477
  188MOL     C649000   0.384   5.986   4.074  0.4169  0.4340  0.1146
  188MOL     H749001   0.445   6.184   4.081 -0.8347  0.0056  0.5513
  188MOL     H849002   0.636   6.125   4.204 -1.2349 -0.7985  1.2018
  188MOL     H949003   0.909   6.090   4.131 -1.8370  0.4970  0.1012
  188MOL    H1049004   0.834   5.986   4.259 -3.5150  2.6716 -0.3592
  188MOL    H1149005   0.910   5.911   4.116  2.6537  0.4660 -0.4467
  188MOL    H1249006   0.424   5.901   4.019  2.3567  1.2687  0.1894
  188MOL    H1349007   0.392   5.946   4.175  3.0373 -0.8997 -0.5761
  188MOL    H1449008   0.504   6.098   3.938 -1.6871  0.0243  0.8810
  188MOL    C1549009   0.240   6.016   4.045 -0.3266  0.4658  0.4788
  188MOL    N1649010   0.154   5.910   4.093  0.5388  0.8350 -0.1203
  188MOL    C1749011   0.158   5.779   4.053 -0.0537  0.1676  0.2327
  188MOL    O1849012   0.231   5.749   3.956 -0.5905 -0.3909 -0.1070
  188MOL    C1949013   0.061   5.676   4.113  0.2071 -0.0029  0.3629
  188MOL    C2049014   0.218   6.055   3.892  0.2850  0.3379 -0.6528
  188MOL    H2149015   0.212   6.103   4.105  0.8316  1.7430 -0.8149
  188MOL    H2249016   0.074   5.941   4.147 -0.8282 -2.8209  0.1188
  188MOL    H2349017   0.086   5.577   4.075  2.3532  0.7759 -0.3354
  188MOL    H2449018   0.069   5.667   4.222  0.9387 -0.8998  0.2452
  188MOL    H2549019   7.798   5.693   4.082  0.3341  2.0174  0.9943
  188MOL    H2649020   0.279   6.140   3.864  0.8053  0.1320 -0.1475
  188MOL    H2749021   0.239   5.968   3.830 -2.2014 -0.8575  0.1174
  188MOL    C2849022   0.069   6.100   3.858 -0.3524  0.0924  0.2390
  188MOL    N2949023   0.049   6.108   3.710  0.5543 -0.4683  0.1515
  188MOL    C3049024   0.122   6.182   3.625 -0.2871  0.1779  0.5789
  188MOL    O3149025   0.239   6.197   3.639 -0.0178 -0.7460 -0.3539
  188MOL    C3249026   0.051   6.240   3.505 -0.4115  0.3855 -0.6784
  188MOL    C3349027   0.032   6.238   3.923  0.2861  0.4620  0.0188
  188MOL    H3449028   0.000   6.025   3.898 -2.3312  2.1552  0.7877
  188MOL    H3549029   7.795   6.093   3.675  0.2291  2.1954 -0.2297
  188MOL    H3649030   0.061   6.168   3.423 -3.1749  0.3847 -1.0894
  188MOL    H3749031   7.787   6.270   3.525 -0.3572 -0.1354  0.4105
  188MOL    H3849032   0.107   6.331   3.486  3.0663 -1.8962 -1.8958
  188MOL    H3949033   0.055   6.225   4.029 -0.2521  1.0509  0.2128
  188MOL    H4049034   0.095   6.315   3.878 -1.8912  1.2474 -1.7502
  188MOL    C4149035   7.738   6.308   3.887  0.1106  0.1037  0.4775
  188MOL    N4249036   7.751   6.455   3.902  0.1178  0.1030  0.4946
  188MOL    C4349037   7.756   6.546   3.803 -0.2378  0.0681  0.0287
  188MOL    O4449038   7.750   6.515   3.687 -0.1298  0.1913  0.5693
  188MOL    C4549039   7.778   6.687   3.832  0.1892 -0.0947 -0.4625
  188MOL    C4649040   7.620   6.264   3.978 -0.5174 -0.3506  0.1452
  188MOL    H4749041   7.707   6.284   3.785  0.6461  0.8542  0.1382
  188MOL    H4849042   7.771   6.493   3.993  0.5243  0.5689  0.2161
  188MOL    H4949043   7.696   6.753   3.803  1.1262  1.1580 -0.2739
  188MOL    H5049044   7.782   6.712   3.938 -1.9813 -1.8403  0.0824
  188MOL    H5149045   0.022   6.710   3.767 -1.0674 -0.7389 -2.3545
  188MOL    H5249046   7.599   6.158   3.967 -1.4831 -0.0336 -1.1245
  188MOL    H5349047   7.653   6.282   4.081 -0.7342  2.3700 -0.2110
  188MOL    C5449048   7.485   6.341   3.974 -0.2126  0.1286 -0.9146
  188MOL    N5549049   7.405   6.296   4.087 -0.8001 -1.0861 -0.1190
  188MOL    C5649050   7.299   6.351   4.142 -0.2888 -0.1399  0.0439
  188MOL    O5749051   7.276   6.470   4.123  0.2745  0.4638 -0.2064
  188MOL    C5849052   7.212   6.260   4.213 -0.2780  0.3096 -0.3889
  188MOL    C5949053   7.415   6.348   3.831  0.2251  0.1898  0.1819
  188MOL    H6049054   7.504   6.445   4.002 -1.5748 -0.4891  2.5362
  188MOL    H6149055   7.416   6.201   4.121  0.0946 -1.7131 -2.0638
  188MOL    H6249056   7.194   6.304   4.311 -4.3324 -2.5428  0.2761
  188MOL    H6349057   7.112   6.257   4.169 -0.6745  1.6875  0.3992
  188MOL    H6449058   7.252   6.159   4.228 -1.1383  0.0436  0.1632
  188MOL    H6549059   7.338   6.424   3.842 -1.8960 -1.2545 -3.7240
  188MOL    H6649060   7.484   6.387   3.756  1.8101 -0.8923  1.0340
  188MOL    C6749061   7.346   6.223   3.774  0.4716 -0.0772 -1.0990
  188MOL    N6849062   7.442   6.167   3.683  0.0689  0.0140 -0.2959
  188MOL    C6949063   7.463   6.034   3.685  0.5605  0.3431  0.4370
  188MOL    O7049064   7.404   5.955   3.763  0.4627  0.4535 -0.0636
  188MOL    C7149065   7.564   5.984   3.582  0.2453  0.3535 -0.2760
  188MOL    C7249066   7.211   6.249   3.694 -0.0187  0.2899  0.4324
  188MOL    H7349067   7.316   6.160   3.857  1.0950 -0.4573 -1.1502
  188MOL    H7449068   7.479   6.228   3.611  1.4349 -0.0839  0.3143
  188MOL    H7549069   7.508   5.921   3.512 -0.2627  0.0322  0.4141
  188MOL    H7649070   7.624   6.057   3.529 -1.8646  0.9355 -1.9206
  188MOL    H7749071   7.622   5.910   3.637 -3.5222 -1.9531  0.7935
  188MOL    H7849072   7.154   6.156   3.685 -0.2837  0.4633  0.3289
  188MOL    H7949073   7.157   6.309   3.767  0.3083  1.0530  0.0485
  188MOL    C8049074   7.218   6.314   3.553 -0.1971  0.0096 -0.1099
  188MOL    N8149075   7.296   6.433   3.551  0.1105 -0.3271  0.1175
  188MOL    C8249076   7.372   6.469   3.445 -0.5968  0.6532  0.2265
  188MOL    O8349077   7.388   6.412   3.335 -0.0018  0.6675 -0.0618
  188MOL    C8449078   7.465   6.584   3.477  0.3265 -0.0666  0.1371
  188MOL    C8549079   7.072   6.349   3.514 -0.3011 -0.1021  0.6250
  188MOL    H8649080   7.258   6.245   3.479  1.6371 -0.8014  1.6303
  188MOL    H8749081   7.311   6.480   3.639  1.6093  0.4296 -0.5259
  188MOL    H8849082   7.541   6.561   3.552  0.6500  1.1673  0.1904
  188MOL    H8949083   7.513   6.618   3.385  0.6907 -0.0853  0.3200
  188MOL    H9049084   7.410   6.661   3.530  1.4173 -1.2487  3.1069
  188MOL    H9149085   7.009   6.329   3.600 -1.1738 -0.6433 -0.1326
  188MOL    H9249086   7.057   6.457   3.504  0.7803 -0.2381 -3.3770
  188MOL    C9349087   7.016   6.274   3.394  0.7873 -0.0898 -0.2264
  188MOL    N9449088   7.097   6.306   3.274  0.4473  0.2354 -0.4863
  188MOL    C9549089   7.091   6.412   3.198 -0.0641  0.3487 -0.0790
  188MOL    O9649090   7.009   6.505   3.206  0.2821 -0.1925  0.5651
  188MOL    C9749091   7.197   6.416   3.083 -0.2085  0.2046 -0.1414
  188MOL    C9849092   6.860   6.286   3.380  0.4242  0.7271  0.3940
  188MOL    H9949093   7.036   6.168   3.412 -0.6581 -0.7603 -2.3747
  188MOL   H10049094   7.170   6.241   3.251  0.6434  0.2449  0.1045
  188MOL   H10149095   7.255   6.508   3.095 -0.0623 -0.1750  2.2083
  188MOL   H10249096   7.254   6.325   3.066  0.6731  0.7386 -0.1056
  188MOL   H10349097   7.140   6.429   2.991 -0.5126 -2.4228 -0.3415
  188MOL   H10449098   6.822   6.387   3.367 -0.3337  0.7126  2.3341
  188MOL   H10549099   6.835   6.233   3.288  1.4061  0.1618  0.4400
  188MOL   C10649100   6.793   6.204   3.490 -0.2242 -0.2653 -0.3159
  188MOL   N10749101   6.791   6.060   3.458  0.3809  0.0484 -0.1566
  188MOL   C10849102   6.869   5.961   3.512 -0.0812 -0.8759  0.3005
  188MOL   O10949103   6.967   5.973   3.588  0.1419 -0.3674 -0.3237
  188MOL   C11049104   6.834   5.814   3.478 -0.0369  0.0747  0.2242
  188MOL   C11149105   6.653   6.254   3.527  0.1273 -0.4602 -1.2805
  188MOL   H11249106   6.842   6.217   3.587  0.6596  0.5162 -0.8552
  188MOL   H11349107   6.711   6.024   3.408  1.5574  0.0122 -2.0405
  188MOL   H11449108   6.726   5.804   3.488 -0.4197  1.1712 -2.4741
  188MOL   H11549109   6.864   5.802   3.374 -0.8585 -0.6804  0.0632
  188MOL   H11649110   6.895   5.754   3.546 -0.0960 -0.7274 -0.4174
  188MOL   H11749111   6.599   6.261   3.433  1.0380 -1.0591 -1.8591
  188MOL   H11849112   6.604   6.172   3.580 -0.5107  0.9717  0.4019
  188MOL   C11949113   6.643   6.380   3.613 -0.4523 -0.0337  0.2230
  188MOL   N12049114   6.707   6.353   3.742 -0.3633  0.1058 -0.4951
  188MOL   C12149115   6.799   6.430   3.801 -0.6101 -0.2151  0.0713
  188MOL   O12249116   6.821   6.554   3.779  0.1281 -0.1032 -0.5537
  188MOL   C12349117   6.892   6.361   3.898  0.4852  0.2363 -0.3458
  188MOL   C12449118   6.491   6.419   3.632 -0.6221 -0.3190 -0.3459
  188MOL   H12549119   6.699   6.459   3.564 -0.1652 -0.1017  0.4411
  188MOL   H12649120   6.682   6.267   3.788 -1.3087  1.0828  0.8428
  188MOL   H12749121   6.961   6.293   3.848  1.3043 -0.5195  1.7498
  188MOL   H12849122   6.946   6.443   3.946  0.4779 -1.0865  2.0138
  188MOL   H12949123   6.848   6.309   3.983 -0.9772 -1.2530 -1.9674
  188MOL   H13049124   6.447   6.455   3.539 -1.9780  2.1770  1.1962
  188MOL   H13149125   6.431   6.333   3.662 -0.1287 -0.1412  1.1735
  188MOL   C13249126   6.465   6.539   3.731 -0.7652  0.0266  0.6173
  188MOL   N13349127   6.444   6.497   3.870 -0.2034 -0.3461 -0.6029
  188MOL   C13449128   6.341   6.427   3.908 -0.6528  0.0731 -0.9161
  188MOL   O13549129   6.244   6.411   3.836  0.4156 -0.2035 -0.1913
  188MOL   C13649130   6.344   6.380   4.054  0.4109 -0.2588  0.6595
  188MOL   C13749131   6.354   6.647   3.684  0.1852  0.1680  0.0902
  188MOL   H13849132   6.561   6.587   3.748  0.6788 -2.4690 -0.4097
  188MOL   H13949133   6.528   6.498   3.926  0.2559 -2.1592 -1.2217
  188MOL   H14049134   6.301   6.280   4.051 -2.9296  1.1491 -0.0767
  188MOL   H14149135   6.441   6.362   4.101  0.3457  0.1101  0.9397
  188MOL   H14249136   6.270   6.434   4.112  0.3365 -0.8604  1.1272
  188MOL   H14349137   6.393   6.690   3.592  2.6663 -1.9140  0.0927
  188MOL   H14449138   6.268   6.588   3.651 -0.3555  0.5136  0.8732
  188MOL   C14549139   6.322   6.767   3.784 -0.0964  0.0792 -0.7444
  188MOL   N14649140   6.444   6.806   3.857  0.6875  0.4748  0.0994
  188MOL   C14749141   6.531   6.895   3.810 -0.5540  0.2328  0.3948
  188MOL   O14849142   6.513   6.963   3.713 -0.0446 -0.7455 -0.3230
  188MOL   C14949143   6.653   6.911   3.894  0.0842  0.7131 -0.3845
  188MOL   C15049144   6.201   6.745   3.881 -0.5605  0.3858 -0.2002
  188MOL   H15149145   6.305   6.853   3.720  4.3361 -0.6275 -3.1422
  188MOL   H15249146   6.470   6.750   3.936  1.7780 -0.9342 -1.2275
  188MOL   H15349147   6.737   6.957   3.840 -1.3262  1.7829 -1.7169
  188MOL   H15449148   6.618   6.985   3.966 -1.5550 -0.4061 -0.0250
  188MOL   H15549149   6.685   6.818   3.939 -1.1810  0.1143 -0.7140
  188MOL   H15649150   6.113   6.726   3.820 -0.7571 -1.7123  0.7149
  188MOL   H15749151   6.210   6.647   3.927  0.6650 -0.0754 -1.3584
  188MOL   C15849152   6.159   6.850   3.979  0.1910 -0.7951  0.5563
  188MOL   N15949153   6.053   6.791   4.060  0.3213 -0.2826  0.0147
  188MOL   C16049154   6.068   6.726   4.179 -0.2498  0.2589  0.0381
  188MOL   O16149155   6.178   6.702   4.235  0.4161 -0.0661  0.3711
  188MOL   C16249156   5.949   6.673   4.251 -0.0717  0.6279  0.1393
  188MOL   C16349157   6.125   6.989   3.927  0.6398 -0.3672 -0.6157
  188MOL   H16449158   6.244   6.863   4.046  2.6633 -1.5154 -2.3493
  188MOL   H16549159   5.960   6.818   4.029  0.5672 -0.2407 -0.6894
  188MOL   H16649160   5.962   6.565   4.255  0.8892  0.7910  2.5813
  188MOL   H16749161   5.934   6.704   4.355 -0.4109  0.5042  0.1288
  188MOL   H16849162   5.852   6.693   4.205 -1.1218 -1.3913  1.4208
  188MOL   H16949163   6.174   6.991   3.830  1.6379 -3.3055 -0.1920
  188MOL   H17049164   6.020   7.005   3.900  0.0884  0.9574  2.0795
  188MOL   C17149165   6.177   7.097   4.023  0.6170  0.4163  0.7599
  188MOL   N17249166   6.104   7.217   3.990 -0.5443  0.1842  0.2936
  188MOL   C17349167   6.049   7.310   4.065  0.8909 -0.1424 -0.2867
  188MOL   O17449168   6.017   7.290   4.186  0.6510  0.5930 -0.1792
  188MOL   C17549169   6.004   7.434   3.996  0.6281  0.4464  0.4148
  188MOL   C17649170   6.328   7.112   3.998 -0.1636 -0.0030 -0.1190
  188MOL   H17749171   6.153   7.079   4.128  1.6315  0.8964  1.0904
  188MOL   H17849172   6.099   7.232   3.891  2.3150 -0.4505 -0.0108
  188MOL   H17949173   6.084   7.470   3.932 -0.0850 -1.3410 -1.5359
  188MOL   H18049174   5.912   7.418   3.941  0.8079 -1.8046  0.7024
  188MOL   H18149175   5.993   7.508   4.076 -1.6797 -0.7463  1.2399
  188MOL   H18249176   6.369   7.013   4.019  1.1888  0.3547 -1.0308
  188MOL   H18349177   6.351   7.118   3.892 -1.2030 -1.5800 -0.4455
  188MOL   C18449178   6.409   7.221   4.070 -0.4658 -0.1642 -0.1582
  188MOL   N18549179   6.371   7.216   4.209  0.2717  0.5621  0.2888
  188MOL   C18649180   6.389   7.116   4.293 -0.6674 -0.3813  1.3885
  188MOL   O18749181   6.446   7.011   4.263 -0.1268 -0.1087  0.2279
  188MOL   C18849182   6.324   7.132   4.428  0.5140 -0.3724 -0.2440
  188MOL   C18949183   6.393   7.372   4.009  0.1101  0.1920 -0.2205
  188MOL   H19049184   6.514   7.193   4.057 -1.2064 -3.8799  1.2780
  188MOL   H19149185   6.311   7.291   4.240  0.0061  0.7978 -0.7615
  188MOL   H19249186   6.392   7.181   4.498  0.6382 -1.7376  0.5958
  188MOL   H19349187   6.236   7.197   4.429 -0.7293 -2.0436 -0.1092
  188MOL   H19449188   6.271   7.049   4.473 -1.3012  1.0699  0.3338
  188MOL   H19549189   6.286   7.396   4.014  0.7219  2.9883  0.1666
  188MOL   H19649190   6.439   7.442   4.079  0.1691  0.3317 -0.3993
  188MOL   C19749191   6.445   7.410   3.874 -0.2018  0.4275  0.2022
  188MOL   N19849192   6.458   7.556   3.863  0.7183  0.1936 -0.1630
  188MOL   C19949193   6.569   7.629   3.879 -0.7027 -0.0509  0.0257
  188MOL   O20049194   6.668   7.580   3.935 -0.3944 -0.2853 -0.1192
  188MOL   C20149195   6.573   7.783   3.827  0.1224  0.1724 -0.1537
  188MOL   C20249196   6.359   7.352   3.763 -0.0036 -0.0771  0.6275
  188MOL   H20349197   6.545   7.368   3.875  0.5894  2.2646  1.3700
  188MOL   H20449198   6.381   7.606   3.821  2.4332  0.9792 -2.4188
  188MOL   H20549199   6.583   0.003   3.918  1.5824  1.1272 -0.9110
  188MOL   H20649200   6.664   7.789   3.767 -1.7401  0.6100 -2.9680
  188MOL   H20749201   6.481   7.802   3.772 -0.6060  0.9560  1.3092
  188MOL   H20849202   6.286   7.278   3.796 -0.0088 -0.8217 -1.0299
  188MOL   H20949203   6.307   7.436   3.716  0.1539  0.1987  0.9473
  188MOL   C21049204   6.444   7.285   3.649  0.0770  0.3051 -0.4047
  188MOL   N21149205   6.485   7.384   3.561  0.3167 -1.2281  0.5061
  188MOL   C21249206   6.607   7.432   3.532 -0.1039 -0.3485  0.5354
  188MOL   O21349207   6.714   7.374   3.556 -0.9936  0.2181 -0.5060
  188MOL   C21449208   6.607   7.575   3.473  0.2469 -0.6804  0.0325
  188MOL   C21549209   6.367   7.176   3.567  0.5572  0.2787 -0.2585
  188MOL   H21649210   6.533   7.232   3.683  0.1573 -0.3600 -1.6111
  188MOL   H21749211   6.415   7.454   3.539  1.3190  0.5440  2.6937
  188MOL   H21849212   6.703   7.600   3.427 -0.2269  0.9162 -0.1109
  188MOL   H21949213   6.531   7.583   3.395 -0.3241 -0.7094  0.5875
  188MOL   H22049214   6.579   7.637   3.558  1.3350  0.0594 -0.1392
  188MOL   H22149215   6.443   7.132   3.503  2.0788  0.4049  1.4178
  188MOL   H22249216   6.333   7.105   3.642 -0.6533  1.7278  0.6190
  188MOL   C22349217   6.253   7.217   3.471  0.2260 -0.1028 -0.3783
  188MOL   N22449218   6.154   7.304   3.532 -0.0171  0.5117 -0.4625
  188MOL   C22549219   6.061   7.280   3.620  1.6040 -0.0610 -0.6412
  188MOL   O22649220   6.048   7.180   3.684 -0.4999 -0.3912  0.1849
  188MOL   C22749221   5.962   7.389   3.643  0.0315  0.7520  0.1261
  188MOL   C22849222   6.191   7.092   3.417 -0.0575 -0.4069  0.0183
  188MOL   H22949223   6.301   7.271   3.389  0.2079 -1.3373 -1.2123
  188MOL   H23049224   6.144   7.388   3.477 -1.7781  0.9810  0.5473
  188MOL   H23149225   5.924   7.434   3.552  0.5867  2.9227  0.9278
  188MOL   H23249226   5.876   7.347   3.695  0.7441  1.5909  2.0200
  188MOL   H23349227   6.010   7.455   3.716  0.8032 -1.4698  1.6803
  188MOL   H23449228   6.273   7.047   3.361  1.7609  0.6809  1.7094
  188MOL   H23549229   6.176   7.031   3.505 -0.9122  0.2564  0.3360
  188MOL   C23649230   6.066   7.105   3.327  0.1646  0.0496 -0.1364
  188MOL   N23749231   6.014   6.968   3.292 -0.3036 -0.5829 -0.1706
  188MOL   C23849232   5.924   6.896   3.361  0.9118 -0.0719 -0.1473
  188MOL   O23949233   5.860   6.938   3.455  0.0615 -0.2297 -0.2332
  188MOL   C24049234   5.918   6.748   3.322 -0.0845 -0.1523 -0.5712
  188MOL   C24149235   6.080   7.187   3.199 -0.6332  0.4580 -0.3341
  188MOL   H24249236   5.986   7.148   3.388  1.2692  1.1396  0.5420
  188MOL   H24349237   6.058   6.931   3.209  0.5674  0.1644 -0.0384
  188MOL   H24449238   5.829   6.703   3.367  0.2478  0.9254  1.2093
  188MOL   H24549239   5.917   6.743   3.213  1.0260 -1.3777 -0.5474
  188MOL   H24649240   6.006   6.692   3.355 -0.1649 -0.6612 -1.1976
  188MOL   H24749241   6.122   7.286   3.215 -2.6048  1.3949 -0.6800
  188MOL   H24849242   6.158   7.143   3.137 -0.0127  0.6258  0.3295
  188MOL   C24949243   5.952   7.211   3.112 -0.0958  0.0784  0.9629
  188MOL   N25049244   5.929   7.110   3.015  0.6679  0.1980  0.6702
  188MOL   C25149245   5.814   7.061   2.962 -0.5207  0.1445  0.3161
  188MOL   O25249246   5.703   7.102   2.990 -0.2179 -0.1578  0.2849
  188MOL   C25349247   5.834   6.941   2.869 -0.2342  0.0286  0.7119
  188MOL   C25449248   5.958   7.344   3.028 -0.0928 -0.5783  0.4075
  188MOL   H25549249   5.873   7.205   3.187  1.1588  2.5686  2.5732
  188MOL   H25649250   6.012   7.076   2.968 -0.1439 -1.2189  0.2496
  188MOL   H25749251   5.942   6.932   2.859 -0.3408 -1.3757  0.7547
  188MOL   H25849252   5.784   6.851   2.904 -2.3146  1.5979  1.9476
  188MOL   H25949253   5.781   6.960   2.775 -0.4882 -0.6748  0.7091
  188MOL   H26049254   5.952   7.429   3.097  1.1008 -0.0794 -0.0859
  188MOL   H26149255   6.044   7.359   2.963 -1.5213  1.4372 -1.0767
  188MOL   H26249256   5.876   7.344   2.956  0.5627  2.0231 -0.4042
  189MOL     C149257   4.098   1.987   6.876  0.1669 -0.1082 -0.3419
  189MOL     N249258   4.077   2.013   6.731  0.0388 -0.4397  0.1686
  189MOL     C349259   3.999   2.112   6.691 -0.0831  0.0828 -0.2593
  189MOL     O449260   3.954   2.194   6.766  0.4263 -0.7206 -0.6954
  189MOL     C549261   3.962   2.115   6.547 -0.2633 -0.3200  0.2858
  189MOL     C649262   4.181   2.099   6.950 -0.2264  0.1452  1.0320
  189MOL     H749263   4.002   1.973   6.924  0.5034  0.6367  0.5683
  189MOL     H849264   4.115   1.948   6.664  1.9333 -1.5005  2.2454
  189MOL     H949265   4.047   2.149   6.487  0.3551 -0.2262  1.2027
  189MOL    H1049266   3.934   2.020   6.499 -1.4433 -1.0294  2.3298
  189MOL    H1149267   3.875   2.179   6.538  0.4666  0.4395 -1.5562
  189MOL    H1249268   4.284   2.110   6.914 -0.8230  0.6172 -0.5788
  189MOL    H1349269   4.130   2.193   6.930 -1.7175 -0.6773  0.9014
  189MOL    H1449270   4.145   1.890   6.891  0.8080  0.2160 -0.2131
  189MOL    C1549271   4.202   2.087   7.106  0.0242 -0.7353  0.4058
  189MOL    N1649272   4.229   1.951   7.135  0.3999 -0.2131 -0.2183
  189MOL    C1749273   4.349   1.903   7.183  0.1619 -0.0985  0.0385
  189MOL    O1849274   4.451   1.970   7.179  0.8343  0.1789 -0.8871
  189MOL    C1949275   4.346   1.768   7.254 -0.1408  0.1736 -0.2099
  189MOL    C2049276   4.074   2.143   7.170 -0.1925  0.6910  0.0255
  189MOL    H2149277   4.279   2.159   7.137 -0.7105 -1.0854  3.1840
  189MOL    H2249278   4.156   1.882   7.128  2.3807 -2.2777 -1.2557
  189MOL    H2349279   4.309   1.693   7.184 -1.0561 -0.4512  0.9419
  189MOL    H2449280   4.444   1.741   7.292  0.4673  0.7547 -1.3370
  189MOL    H2549281   4.261   1.763   7.322 -0.8344 -3.9243 -1.2590
  189MOL    H2649282   3.983   2.109   7.119 -0.3068  0.6431  0.2593
  189MOL    H2749283   4.053   2.095   7.266 -0.0052 -0.1049 -0.3242
  189MOL    C2849284   4.072   2.289   7.218  0.0599 -0.0804  1.0112
  189MOL    N2949285   4.158   2.305   7.336  0.1978 -0.0436  0.0312
  189MOL    C3049286   4.204   2.414   7.390  0.0320  0.2234  0.1179
  189MOL    O3149287   4.188   2.526   7.334 -0.0681  0.2520 -0.1357
  189MOL    C3249288   4.268   2.408   7.530  0.7312  0.3792  0.2761
  189MOL    C3349289   3.919   2.324   7.253 -0.2644  0.8326  0.0761
  189MOL    H3449290   4.105   2.350   7.134 -0.6227 -1.6346 -0.4132
  189MOL    H3549291   4.170   2.225   7.396 -1.1136  0.7417  1.3732
  189MOL    H3649292   4.309   2.503   7.565  0.3510  0.3081  0.9168
  189MOL    H3749293   4.183   2.396   7.597 -1.8680  1.9025 -2.6222
  189MOL    H3849294   4.335   2.325   7.553 -0.2980  0.0140  2.0244
  189MOL    H3949295   3.863   2.236   7.286 -0.4741  0.8578 -0.2109
  189MOL    H4049296   3.910   2.391   7.338  1.5861  0.4022  0.6317
  189MOL    C4149297   3.841   2.392   7.136  0.2366 -0.6019  1.1394
  189MOL    N4249298   3.784   2.304   7.033 -0.1201  0.0882  0.1307
  189MOL    C4349299   3.654   2.312   6.997 -0.2343 -0.2665  0.3497
  189MOL    O4449300   3.578   2.402   7.036  0.5871  0.1030 -0.0461
  189MOL    C4549301   3.606   2.201   6.912 -0.3854  0.5725 -0.1377
  189MOL    C4649302   3.917   2.509   7.068 -0.1141 -0.4170  0.3384
  189MOL    H4749303   3.762   2.444   7.191  1.3815  1.9741  0.4348
  189MOL    H4849304   3.839   2.227   6.997 -0.7830 -0.4939  0.3743
  189MOL    H4949305   3.560   2.134   6.985  1.3339 -1.6874 -1.0353
  189MOL    H5049306   3.522   2.215   6.845  0.0214 -1.1996 -1.0616
  189MOL    H5149307   3.689   2.147   6.866 -0.8978  0.4596 -0.9347
  189MOL    H5249308   3.994   2.549   7.134  0.0236 -1.0768  0.5864
  189MOL    H5349309   3.966   2.466   6.980 -1.4446  0.3695 -0.7897
  189MOL    C5449310   3.835   2.634   7.026  0.4416 -0.8701 -0.4468
  189MOL    N5549311   3.914   2.715   6.936 -0.0314  0.6527  0.0821
  189MOL    C5649312   3.890   2.729   6.804  0.2300 -0.4650  0.6608
  189MOL    O5749313   3.792   2.680   6.746 -0.8187 -0.4726 -0.0738
  189MOL    C5849314   3.998   2.800   6.714 -0.5998  0.3885  0.2918
  189MOL    C5949315   3.801   2.722   7.148 -0.1272  0.6709 -0.2494
  189MOL    H6049316   3.746   2.594   6.978 -2.1205  2.6299  1.1425
  189MOL    H6149317   4.003   2.752   6.967  1.9198 -2.0062 -2.0271
  189MOL    H6249318   3.982   2.907   6.704 -3.0792 -0.0533 -0.6774
  189MOL    H6349319   4.099   2.795   6.756 -0.6795  0.7663  0.5382
  189MOL    H6449320   3.995   2.768   6.610  1.6843  1.6326 -0.1884
  189MOL    H6549321   3.815   2.672   7.244 -2.1429 -2.2731 -1.4310
  189MOL    H6649322   3.864   2.811   7.156 -0.2009  0.5806  1.7805
  189MOL    C6749323   3.658   2.776   7.154 -0.0432 -0.3347  0.7266
  189MOL    N6849324   3.626   2.873   7.042 -0.1658 -0.5552 -0.5061
  189MOL    C6949325   3.546   2.873   6.933  0.1328 -1.6076 -0.3865
  189MOL    O7049326   3.550   2.961   6.848  0.1926  0.4273  0.1365
  189MOL    C7149327   3.428   2.779   6.940  0.1906 -0.0725  0.1273
  189MOL    C7249328   3.627   2.856   7.281  0.0887 -0.0555  0.1595
  189MOL    H7349329   3.593   2.689   7.145  1.0926 -1.0969 -0.1723
  189MOL    H7449330   3.691   2.950   7.048 -1.4005  0.4567  0.1433
  189MOL    H7549331   3.394   2.750   6.840  1.9493 -1.2449 -0.1560
  189MOL    H7649332   3.451   2.680   6.982  1.6442  0.0217 -0.4138
  189MOL    H7749333   3.353   2.833   6.997  0.0174  0.2822 -0.4340
  189MOL    H7849334   3.643   2.787   7.364 -0.8958  0.2787  0.6424
  189MOL    H7949335   3.680   2.950   7.294 -1.0766  0.6029  0.1880
  189MOL    C8049336   3.472   2.892   7.300 -0.0633  0.2195  0.2600
  189MOL    N8149337   3.461   2.979   7.421  0.2157 -0.3872 -0.3780
  189MOL    C8249338   3.463   3.116   7.409 -0.4978  0.0694  0.0406
  189MOL    O8349339   3.446   3.174   7.303  0.2230  0.2396  0.2654
  189MOL    C8449340   3.486   3.198   7.533 -0.4288 -0.3426  0.7458
  189MOL    C8549341   3.381   2.765   7.316 -0.8140  0.1168  0.0283
  189MOL    H8649342   3.432   2.936   7.209 -0.0920  1.9302  1.0965
  189MOL    H8749343   3.466   2.931   7.510  0.3040 -0.0125 -0.1816
  189MOL    H8849344   3.582   3.180   7.581  0.6323  1.6173 -0.5601
  189MOL    H8949345   3.484   3.300   7.495  4.9491 -0.7159 -1.0365
  189MOL    H9049346   3.416   3.193   7.616 -0.3314 -0.4707  0.8207
  189MOL    H9149347   3.277   2.789   7.295 -1.6899 -0.5641  3.4026
  189MOL    H9249348   3.394   2.708   7.224  0.4752  0.8095 -0.2334
  189MOL    C9349349   3.388   2.666   7.431  0.2837 -0.4066 -0.0324
  189MOL    N9449350   3.414   2.532   7.383 -0.2080  0.0156 -0.3976
  189MOL    C9549351   3.535   2.472   7.391  0.9719 -0.2958  0.3600
  189MOL    O9649352   3.638   2.527   7.422  0.0444  0.2883 -0.2536
  189MOL    C9749353   3.535   2.326   7.352  0.0617  0.2148  0.1271
  189MOL    C9849354   3.245   2.650   7.496 -0.1132  0.2636  0.0753
  189MOL    H9949355   3.460   2.709   7.500 -0.2291  1.6957 -0.7810
  189MOL   H10049356   3.335   2.472   7.363 -1.0449  1.0572 -0.2383
  189MOL   H10149357   3.460   2.313   7.274  0.5256 -0.0125 -0.2807
  189MOL   H10249358   3.631   2.293   7.315  0.0462  0.1825  0.1168
  189MOL   H10349359   3.517   2.270   7.444 -0.6690  0.0698 -0.0943
  189MOL   H10449360   3.171   2.652   7.416  1.0714 -2.4039 -1.1332
  189MOL   H10549361   3.232   2.558   7.552 -1.6057  1.1855  1.2659
  189MOL   C10649362   3.212   2.770   7.592  0.4002 -0.0021  0.1910
  189MOL   N10749363   3.279   2.752   7.723  0.5647 -0.2278 -0.4728
  189MOL   C10849364   3.379   2.828   7.766 -0.4790 -0.0661 -0.0172
  189MOL   O10949365   3.434   2.917   7.699  0.2054  0.5217  0.1758
  189MOL   C11049366   3.432   2.795   0.065  0.0798  0.1963  0.4511
  189MOL   C11149367   3.059   2.774   7.628  0.1862 -0.6785 -0.5259
  189MOL   H11249368   3.238   2.865   7.546  0.3141  0.6198  1.4008
  189MOL   H11349369   3.233   2.690   7.788 -0.7397  0.3614 -0.8164
  189MOL   H11449370   3.414   2.869   0.142 -0.4587 -0.3931  0.9035
  189MOL   H11549371   3.374   2.712   0.107  1.6968  0.2879  2.9679
  189MOL   H11649372   3.533   2.757   0.077  0.4912  1.5345  1.2311
  189MOL   H11749373   3.030   2.670   7.643  1.2248 -0.7550  1.0458
  189MOL   H11849374   3.040   2.820   7.725  1.6034 -0.1752 -0.4827
  189MOL   C11949375   2.987   2.857   7.512 -0.1991  0.3528  0.4156
  189MOL   N12049376   3.029   2.999   7.511 -0.3741  0.6702  0.3400
  189MOL   C12149377   3.097   3.075   7.421  0.1210  0.0475  0.1234
  189MOL   O12249378   3.115   3.047   7.303  0.3980 -0.1753  0.1391
  189MOL   C12349379   3.130   3.217   7.475  0.3706 -0.6933 -0.1714
  189MOL   C12449380   2.830   2.843   7.513  0.6125 -0.9746  0.2538
  189MOL   H12549381   3.025   2.819   7.417  1.0997  0.0346  1.0419
  189MOL   H12649382   3.002   3.046   7.597 -1.6415  2.4957 -1.0252
  189MOL   H12749383   3.187   3.224   7.568  0.3163 -1.3106 -0.0887
  189MOL   H12849384   3.186   3.272   7.400  1.3170 -2.2706 -0.6389
  189MOL   H12949385   3.043   3.281   7.485  1.2277  0.6539 -1.1733
  189MOL   H13049386   2.795   2.859   7.614 -0.4097 -0.9871 -0.0970
  189MOL   H13149387   2.789   2.920   7.447 -0.8288 -1.3189  0.7465
  189MOL   C13249388   2.775   2.707   7.459 -0.1424 -0.0776 -0.4884
  189MOL   N13349389   2.806   2.708   7.316 -0.2552  0.0646  0.0426
  189MOL   C13449390   2.860   2.606   7.258  0.2745 -0.2558 -0.5183
  189MOL   O13549391   2.941   2.521   7.307 -0.0341 -0.1279 -0.4913
  189MOL   C13649392   2.824   2.602   7.113  0.2540  0.7932  0.6636
  189MOL   C13749393   2.622   2.693   7.475 -0.7033 -0.2121  0.2289
  189MOL   H13849394   2.827   2.631   7.517 -1.6193 -0.0634  0.8816
  189MOL   H13949395   2.777   2.786   7.258  3.5264  1.0579 -0.6028
  189MOL   H14049396   2.773   2.508   7.092  3.1902 -0.9815  1.2292
  189MOL   H14149397   2.759   2.683   7.082 -0.4139  0.4446  1.1349
  189MOL   H14249398   2.914   2.607   7.052 -0.4127 -2.1029 -0.6374
  189MOL   H14349399   2.579   2.738   7.565 -2.0742  1.7551 -1.3672
  189MOL   H14449400   2.573   2.744   7.393  0.1615 -1.0530 -0.8231
  189MOL   C14549401   2.584   2.548   7.479  0.0287  0.4159 -0.8789
  189MOL   N14649402   2.449   2.533   7.430 -0.0268  0.3157 -0.3701
  189MOL   C14749403   2.406   2.452   7.330 -0.4162 -0.2984  0.3382
  189MOL   O14849404   2.469   2.356   7.283 -0.0440  0.6868  0.3274
  189MOL   C14949405   2.279   2.484   7.260  0.5515  0.0699  0.1866
  189MOL   C15049406   2.610   2.489   7.620 -0.5380  0.3374 -0.2730
  189MOL   H15149407   2.646   2.497   7.405  1.3714  1.6968 -0.6740
  189MOL   H15249408   2.384   2.608   7.450  1.2774  1.3762 -0.0103
  189MOL   H15349409   2.211   2.399   7.247  0.5472  0.0033  0.6290
  189MOL   H15449410   2.219   2.539   7.332 -0.6109  0.5553 -1.1259
  189MOL   H15549411   2.288   2.531   7.162  0.0997 -0.4137 -0.0907
  189MOL   H15649412   2.693   2.541   7.668 -0.4964  0.4243 -0.4402
  189MOL   H15749413   2.520   2.506   7.679  0.0762 -0.8290  1.0452
  189MOL   C15849414   2.652   2.346   7.612  0.2438 -0.3841  0.3478
  189MOL   N15949415   2.625   2.262   7.730 -0.0371 -0.6440  0.0218
  189MOL   C16049416   2.668   2.286   0.010  0.1236  0.5948 -0.3363
  189MOL   O16149417   2.748   2.370   0.042 -0.2720  0.7890 -0.3705
  189MOL   C16249418   2.594   2.212   0.125  0.1613  0.5730  0.2158
  189MOL   C16349419   2.795   2.328   7.569 -0.7218  0.7113  0.0661
  189MOL   H16449420   2.584   2.298   7.543  1.0583  0.5099 -1.1029
  189MOL   H16549421   2.561   2.185   7.729 -1.3705  0.4182  1.2066
  189MOL   H16649422   2.496   2.258   0.140 -0.1180  0.2140 -0.4668
  189MOL   H16749423   2.591   2.105   0.107  0.1249  0.2960  1.7981
  189MOL   H16849424   2.652   2.218   0.217  0.7349  0.3441 -0.1292
  189MOL   H16949425   2.825   2.404   7.496  1.5355 -0.9958 -0.8322
  189MOL   H17049426   2.860   2.343   7.655 -1.1939 -2.6160  1.0822
  189MOL   C17149427   2.832   2.193   7.493 -0.0708 -0.1008 -0.6020
  189MOL   N17249428   2.974   2.212   7.453  0.0024  0.0308 -0.6824
  189MOL   C17349429   3.082   2.164   7.515 -0.8439  1.1699 -0.3509
  189MOL   O17449430   3.083   2.068   7.594 -0.2092  0.4667  0.5168
  189MOL   C17549431   3.221   2.220   7.496 -0.2759 -0.4615 -0.3432
  189MOL   C17649432   2.742   2.178   7.368  0.1441 -0.8754 -0.2141
  189MOL   H17749433   2.815   2.111   7.564  0.2095 -0.6144 -1.1207
  189MOL   H17849434   2.972   2.293   7.393 -0.4029  1.0244  0.6407
  189MOL   H17949435   3.273   2.181   7.409 -0.1416 -0.5596 -0.2199
  189MOL   H18049436   3.209   2.329   7.492 -1.3912 -0.5976 -0.7439
  189MOL   H18149437   3.289   2.206   7.581 -0.7196  0.6665  0.2150
  189MOL   H18249438   2.643   2.151   7.406  0.9403 -1.3613  1.5914
  189MOL   H18349439   2.729   2.279   7.328  0.9300 -0.5320  0.3695
  189MOL   C18449440   2.788   2.084   7.258 -0.6247 -0.0439  0.3051
  189MOL   N18549441   2.828   2.146   7.138  0.0906  0.1344 -0.4892
  189MOL   C18649442   2.950   2.168   7.087  0.1193  0.0069 -0.0899
  189MOL   O18749443   3.061   2.132   7.139  0.6543  0.1305  0.4048
  189MOL   C18849444   2.949   2.239   6.949 -0.5865 -0.5444 -0.4441
  189MOL   C18949445   2.700   1.966   7.223 -0.1927  0.2914  0.7594
  189MOL   H19049446   2.880   2.034   7.288 -0.1844  0.6612  0.1410
  189MOL   H19149447   2.747   2.184   7.090 -0.2852  2.1627  1.6867
  189MOL   H19249448   3.050   2.229   6.910 -1.3248 -0.4207 -2.4140
  189MOL   H19349449   2.896   2.191   6.867 -0.3902  0.8090 -1.3831
  189MOL   H19449450   2.921   2.345   6.953 -1.0671 -0.5666 -2.5734
  189MOL   H19549451   2.598   1.995   7.198  0.7923  1.2685 -2.3723
  189MOL   H19649452   2.735   1.919   7.130 -0.2336 -1.0730  1.4198
  189MOL   C19749453   2.714   1.845   7.316  1.1634 -0.7485  0.0979
  189MOL   N19849454   2.642   1.729   7.253  0.3730  0.0012 -0.5651
  189MOL   C19949455   2.690   1.609   7.218 -0.4054  0.3638  0.6621
  189MOL   O20049456   2.808   1.578   7.240  0.2977  0.0976  0.4609
  189MOL   C20149457   2.602   1.527   7.130  0.5016 -0.0840  0.6286
  189MOL   C20249458   2.647   1.870   7.451 -0.3677  0.2830 -0.2573
  189MOL   H20349459   2.820   1.818   7.323  1.2595 -0.4214 -0.0669
  189MOL   H20449460   2.542   1.741   7.242  0.5174  0.3046 -1.5851
  189MOL   H20549461   2.561   1.449   7.194 -1.1527 -0.4884 -0.8999
  189MOL   H20649462   2.523   1.595   7.099  1.0490  0.7688  1.0698
  189MOL   H20749463   2.643   1.483   7.040 -0.1376  0.0092  0.2880
  189MOL   H20849464   2.689   1.945   7.517  0.0700 -0.9143  0.8545
  189MOL   H20949465   2.548   1.909   7.426 -0.6921 -0.2341  0.1955
  189MOL   C21049466   2.621   1.752   7.547  0.2931 -0.2554 -0.0328
  189MOL   N21149467   2.512   1.782   7.648  0.3141  0.3666  0.5426
  189MOL   C21249468   2.387   1.729   7.647 -0.5240 -0.0466  1.1146
  189MOL   O21349469   2.353   1.634   7.579 -0.2603 -0.1334  0.2966
  189MOL   C21449470   2.292   1.785   7.749 -0.0679 -0.3374  0.8120
  189MOL   C21549471   2.756   1.718   7.615  0.3145  0.0111 -0.1879
  189MOL   H21649472   2.582   1.664   7.496  1.7882 -0.9114 -0.0550
  189MOL   H21749473   2.534   1.842   7.726 -0.7386  0.1638  1.0001
  189MOL   H21849474   2.206   1.826   7.696  1.4016  0.8414 -0.7021
  189MOL   H21949475   2.253   1.700   7.804 -2.1405  0.5586  0.7808
  189MOL   H22049476   2.336   1.859   7.816  0.7612 -0.4779  0.4318
  189MOL   H22149477   2.834   1.728   7.539 -0.2410  1.1895 -0.6134
  189MOL   H22249478   2.785   1.803   7.676  1.6822 -1.0841  0.7109
  189MOL   C22349479   2.765   1.586   7.698  0.1101  0.4032  0.0219
  189MOL   N22449480   2.667   1.573   7.805  0.2570  0.3846 -0.3226
  189MOL   C22549481   2.566   1.481   7.805  0.1296  0.4073  0.8735
  189MOL   O22649482   2.540   1.404   7.718 -0.1289  0.1371 -0.6708
  189MOL   C22749483   2.475   1.481   0.088 -0.2774  0.0543 -0.0885
  189MOL   C22849484   2.903   1.561   7.755  0.4522  0.5814  0.4526
  189MOL   H22949485   2.739   1.509   7.625 -0.6677 -0.4092  1.1519
  189MOL   H23049486   2.683   1.639   0.040  1.3109  1.7609 -1.7233
  189MOL   H23149487   2.427   1.383   0.095 -1.7728  0.7990  0.1940
  189MOL   H23249488   2.539   1.496   0.174 -0.2237  0.6754 -0.2370
  189MOL   H23349489   2.395   1.555   0.080 -1.2455 -0.8952  0.6011
  189MOL   H23449490   2.911   1.624   0.004 -3.3905 -2.2390  2.9866
  189MOL   H23549491   2.901   1.469   7.814  0.8665 -0.4567 -1.1191
  189MOL   C23649492   3.033   1.562   7.668  0.4481  0.3518  0.6771
  189MOL   N23749493   3.134   1.477   7.713 -0.0475 -0.8747 -0.1830
  189MOL   C23849494   3.151   1.345   7.684  0.6480 -0.6346  0.3442
  189MOL   O23949495   3.059   1.283   7.627  0.6357  0.2709 -0.3649
  189MOL   C24049496   3.287   1.282   7.723 -0.1134 -0.2228  0.3750
  189MOL   C24149497   3.093   1.696   7.661 -0.2890 -0.1500  0.2346
  189MOL   H24249498   3.003   1.536   7.566  2.0880  0.4226  0.1562
  189MOL   H24349499   3.191   1.511   7.789 -2.3886  0.6371  0.9529
  189MOL   H24449500   3.335   1.330   7.808  1.7861 -0.1215 -0.7186
  189MOL   H24549501   3.277   1.174   7.738 -4.5445  0.1787  1.1258
  189MOL   H24649502   3.354   1.293   7.637 -1.6429 -1.5991 -1.0396
  189MOL   H24749503   3.013   1.770   7.662 -2.2096 -2.1658  2.2172
  189MOL   H24849504   3.140   1.709   7.758 -1.3259 -1.6850  0.9617
  189MOL   C24949505   3.208   1.711   7.561  0.0100  0.1982  0.4639
  189MOL   N25049506   3.289   1.831   7.598  0.4506 -0.5347  0.0926
  189MOL   C25149507   3.423   1.841   7.614  0.2742 -0.3847  0.7320
  189MOL   O25249508   3.494   1.743   7.595 -0.0208  0.0029 -0.2013
  189MOL   C25349509   3.476   1.979   7.648 -0.1219  0.0503  0.0111
  189MOL   C25449510   3.159   1.729   7.418  0.8137 -0.1430  0.2653
  189MOL   H25549511   3.278   1.628   7.563 -1.0342 -0.7058  0.0266
  189MOL   H25649512   3.234   1.914   7.617  0.7643 -0.6322  1.5216
  189MOL   H25749513   3.401   2.039   7.700  1.0234  5.2351 -3.8980
  189MOL   H25849514   3.569   1.965   7.702 -0.0306 -1.1041 -0.4142
  189MOL   H25949515   3.486   2.040   7.558  0.0079  0.6939  0.4675
  189MOL   H26049516   3.245   1.751   7.355 -0.0388 -3.8208 -2.3222
  189MOL   H26149517   3.118   1.638   7.376  0.3760 -0.6393  1.7516
  189MOL   H26249518   3.096   1.817   7.407 -1.8676 -1.8837  1.2833
  190MOL     C149519   7.188   2.908   0.478  0.5926  0.3479  0.3068
  190MOL     N249520   7.111   2.792   0.412 -0.4398 -0.4951  0.2909
  190MOL     C349521   6.976   2.788   0.397  0.2119  0.3148 -0.3076
  190MOL     O449522   6.906   2.877   0.433  0.7329  0.3110 -0.1466
  190MOL     C549523   6.914   2.657   0.364 -0.2851  0.5006  0.4102
  190MOL     C649524   7.308   2.858   0.561 -0.0395  0.1006  0.0002
  190MOL     H749525   7.224   2.976   0.401  0.1982  0.4614  0.2200
  190MOL     H849526   7.164   2.716   0.373  0.8335 -0.0766  1.2008
  190MOL     H949527   6.998   2.590   0.349 -0.5857  0.4720 -1.2421
  190MOL    H1049528   6.855   2.634   0.453 -1.2318 -2.2371 -0.8682
  190MOL    H1149529   6.863   2.678   0.269  1.7850 -2.0052 -1.3215
  190MOL    H1249530   7.378   2.809   0.493  0.3424  1.3235 -0.5178
  190MOL    H1349531   7.361   2.946   0.599  1.7541 -0.5890 -0.8436
  190MOL    H1449532   7.121   2.976   0.531  0.2451 -0.7566  1.3038
  190MOL    C1549533   7.281   2.776   0.687 -0.2151 -0.3551 -0.6364
  190MOL    N1649534   7.188   2.670   0.657 -0.2206  1.2685 -0.4557
  190MOL    C1749535   7.225   2.542   0.628  0.3069 -0.9397  0.6745
  190MOL    O1849536   7.342   2.493   0.616  0.1391  0.8037 -0.5205
  190MOL    C1949537   7.105   2.452   0.590  0.3829  0.9831 -0.1529
  190MOL    C2049538   7.229   2.863   0.797 -0.1892 -0.8896  0.4112
  190MOL    H2149539   7.377   2.736   0.718  0.8476  0.8479 -2.3111
  190MOL    H2249540   7.090   2.690   0.666 -0.1615  2.1394 -1.5809
  190MOL    H2349541   7.094   2.366   0.655  0.8226  0.6377 -0.5369
  190MOL    H2449542   7.008   2.502   0.600 -0.4734 -0.4378 -1.1446
  190MOL    H2549543   7.110   2.419   0.487 -0.8068 -1.4509  0.5373
  190MOL    H2649544   7.298   2.940   0.831 -0.7045  0.4040 -1.3847
  190MOL    H2749545   7.142   2.913   0.757 -0.5021 -0.7042  1.3054
  190MOL    C2849546   7.180   2.796   0.929 -0.1356  0.1855 -0.7095
  190MOL    N2949547   7.115   2.891   1.020 -0.1689  0.3862 -0.6808
  190MOL    C3049548   7.142   3.022   1.050  0.3339 -0.8108 -0.4076
  190MOL    O3149549   7.240   3.085   1.023 -0.0460 -0.3429 -0.2914
  190MOL    C3249550   7.038   3.088   1.142  0.1051  0.3321 -0.7003
  190MOL    C3349551   7.292   2.711   1.005  0.2567  0.2992  0.0785
  190MOL    H3449552   7.103   2.723   0.905  0.7915 -0.4571 -1.8044
  190MOL    H3549553   7.032   2.852   1.062  0.8251  0.1898  1.1571
  190MOL    H3649554   7.050   3.034   1.235 -2.1920  0.5266 -0.2497
  190MOL    H3749555   7.060   3.186   1.183  0.5780  0.0461 -0.2754
  190MOL    H3849556   6.933   3.089   1.113 -0.2276  0.1581  0.4880
  190MOL    H3949557   7.356   2.670   0.927 -1.2663 -1.0266 -0.4925
  190MOL    H4049558   7.344   2.788   1.062  2.5805  0.1325 -1.7266
  190MOL    C4149559   7.241   2.591   1.092  0.1992 -0.0100 -1.0540
  190MOL    N4249560   7.348   2.536   1.177 -0.0896 -0.0968 -0.0991
  190MOL    C4349561   7.388   2.594   1.295  0.3576 -0.4782  0.1816
  190MOL    O4449562   7.337   2.699   1.335 -0.3164 -0.3316  0.2857
  190MOL    C4549563   7.487   2.515   1.377 -0.2333 -0.1693 -0.6630
  190MOL    C4649564   7.187   2.472   1.010 -0.9213 -0.0422 -0.7248
  190MOL    H4749565   7.163   2.630   1.157 -0.0248 -0.0422 -1.3031
  190MOL    H4849566   7.380   2.440   1.167  2.3959  0.3035  3.1933
  190MOL    H4949567   7.423   2.450   1.436  1.7300 -2.5039 -1.0551
  190MOL    H5049568   7.548   2.453   1.311 -0.5541 -1.1483 -0.0406
  190MOL    H5149569   7.546   2.574   1.448 -2.8852  1.0624  0.5695
  190MOL    H5249570   7.139   2.506   0.918  1.3471  2.7105 -0.9580
  190MOL    H5349571   7.272   2.413   0.977  0.4479  3.2081 -3.2670
  190MOL    C5449572   7.088   2.387   1.087 -0.2800  0.8034 -1.0188
  190MOL    N5549573   7.116   2.245   1.086  0.4626  0.2396  0.0262
  190MOL    C5649574   7.224   2.186   1.132  0.4541  0.4498  0.2079
  190MOL    O5749575   7.310   2.251   1.189 -0.2288 -0.4169 -0.5959
  190MOL    C5849576   7.241   2.036   1.115  0.1111  0.1963 -0.4194
  190MOL    C5949577   6.946   2.395   1.028 -0.2439 -0.0613  0.2492
  190MOL    H6049578   7.080   2.400   1.195  1.7431  1.0887 -0.8856
  190MOL    H6149579   7.049   2.189   1.036  0.7350 -0.0607 -0.0086
  190MOL    H6249580   7.326   2.015   1.049 -0.4153 -0.9825 -0.7496
  190MOL    H6349581   7.257   1.981   1.208 -0.6387 -2.6546 -1.9249
  190MOL    H6449582   7.146   1.992   1.085 -0.7964  1.5250  0.4790
  190MOL    H6549583   6.953   2.364   0.924 -1.4354  1.0566 -0.1802
  190MOL    H6649584   6.881   2.318   1.071 -1.6855  0.6555 -0.6262
  190MOL    C6749585   6.863   2.528   1.047  0.5858  0.2859  0.2645
  190MOL    N6849586   6.861   2.558   1.188 -0.5480  0.4179 -0.7316
  190MOL    C6949587   6.892   2.678   1.241  0.8734  0.2475  0.0153
  190MOL    O7049588   6.901   2.780   1.168  0.2044  0.1046 -0.1634
  190MOL    C7149589   6.913   2.676   1.390 -0.5345  0.1131  0.1388
  190MOL    C7249590   6.718   2.514   0.987  0.3301 -0.3616  0.1920
  190MOL    H7349591   6.910   2.604   0.985 -3.1616  1.8260 -0.8117
  190MOL    H7449592   6.875   2.477   1.246 -1.5255  1.8622  1.5771
  190MOL    H7549593   6.857   2.759   1.432  1.4226  0.3732  2.3266
  190MOL    H7649594   6.888   2.586   1.445 -0.2820  0.1611  0.3301
  190MOL    H7749595   7.015   2.710   1.410 -0.4589 -0.4506  0.6914
  190MOL    H7849596   6.675   2.416   1.006 -0.2669 -0.2235 -0.4405
  190MOL    H7949597   6.650   2.581   1.039 -2.0035 -1.1349 -1.8033
  190MOL    C8049598   6.721   2.548   0.839  0.1449  0.1594 -0.1486
  190MOL    N8149599   6.714   2.699   0.826 -0.1341  0.4208  0.0461
  190MOL    C8249600   6.818   2.769   0.775  0.7167 -0.7510  0.0642
  190MOL    O8349601   6.912   2.710   0.726 -0.8172  0.1256  0.2287
  190MOL    C8449602   6.814   2.926   0.791 -0.4827 -0.3591  0.0583
  190MOL    C8549603   6.600   2.491   0.764  0.4256 -0.2118 -0.7122
  190MOL    H8649604   6.808   2.499   0.795 -1.4522 -1.7677 -1.2362
  190MOL    H8749605   6.633   2.748   0.861  0.4666  0.8549  0.8495
  190MOL    H8849606   6.871   2.971   0.709 -2.0262  3.4459  0.9913
  190MOL    H8949607   6.708   2.950   0.797 -0.1651  1.4878 -1.3170
  190MOL    H9049608   6.862   2.964   0.881  0.1830 -0.3418 -0.3028
  190MOL    H9149609   6.523   2.475   0.839 -1.0881  2.2953 -1.6912
  190MOL    H9249610   6.561   2.575   0.706  0.7261  0.6750  0.3471
  190MOL    C9349611   6.622   2.363   0.673  0.3055 -0.1769 -0.9637
  190MOL    N9449612   6.500   2.326   0.604 -0.6086 -0.4560 -0.2031
  190MOL    C9549613   6.451   2.396   0.505  0.4567 -0.2849  1.6279
  190MOL    O9649614   6.516   2.472   0.428  0.8531  0.1173  0.3153
  190MOL    C9749615   6.306   2.371   0.463 -0.2776  0.2919  0.4720
  190MOL    C9849616   6.672   2.246   0.765 -0.2215  0.4838  0.1548
  190MOL    H9949617   6.707   2.379   0.606 -0.3861  0.5308 -1.6907
  190MOL   H10049618   6.433   2.262   0.645  1.3571 -2.6283 -0.2718
  190MOL   H10149619   6.260   2.459   0.417  0.5833  0.7398  0.4613
  190MOL   H10249620   6.318   2.312   0.372  0.9373  1.4613 -0.1619
  190MOL   H10349621   6.235   2.336   0.538 -2.0759  1.3533 -0.6983
  190MOL   H10449622   6.752   2.278   0.830  1.6662 -0.0064 -1.8575
  190MOL   H10549623   6.588   2.216   0.829 -0.6062 -1.0509 -1.0182
  190MOL   C10649624   6.715   2.119   0.691 -0.1499 -0.0498 -0.2857
  190MOL   N10749625   6.715   2.001   0.781  0.2693  0.0127 -0.2441
  190MOL   C10849626   6.786   1.984   0.892  0.0295  0.0147 -0.1645
  190MOL   O10949627   6.854   2.071   0.940  0.0758  0.1487  0.0922
  190MOL   C11049628   6.793   1.845   0.939  0.2416 -0.0024 -0.2344
  190MOL   C11149629   6.845   2.119   0.609 -0.3904  0.1207  0.5230
  190MOL   H11249630   6.633   2.107   0.621 -1.6049  2.1475  0.9887
  190MOL   H11349631   6.647   1.930   0.756  1.8247 -1.4026 -0.5737
  190MOL   H11449632   6.827   1.767   0.872 -0.9319  0.6132 -1.5798
  190MOL   H11549633   6.838   1.841   1.038 -3.0164  0.8941  1.3413
  190MOL   H11649634   6.691   1.811   0.958 -0.0851  1.1070  0.0382
  190MOL   H11749635   6.846   2.192   0.528 -0.1864  0.1195  0.5266
  190MOL   H11849636   6.924   2.152   0.675 -1.6416  1.0628  1.5863
  190MOL   C11949637   6.885   1.985   0.548 -0.0867  0.1089  0.2630
  190MOL   N12049638   7.022   1.987   0.489  0.0736 -0.4939  0.0511
  190MOL   C12149639   7.140   1.959   0.555  0.0654  0.0931 -0.3850
  190MOL   O12249640   7.249   1.969   0.502 -0.7437 -0.1330 -0.0266
  190MOL   C12349641   7.135   1.911   0.699  0.3778  0.1961  0.1763
  190MOL   C12449642   6.783   1.936   0.437  0.1365  0.1982 -0.5613
  190MOL   H12549643   6.871   1.904   0.620 -0.4834 -0.8277 -0.8548
  190MOL   H12649644   7.037   1.994   0.390  0.5590  2.1335  0.2797
  190MOL   H12749645   7.197   1.978   0.759 -1.8142  0.4948  2.1897
  190MOL   H12849646   7.037   1.891   0.742  2.2190 -4.2914  2.5450
  190MOL   H12949647   7.186   1.815   0.710  2.1927  0.8951 -1.7424
  190MOL   H13049648   6.689   1.918   0.489 -0.0487  2.5202 -0.0270
  190MOL   H13149649   6.749   2.013   0.367 -1.6315 -1.5597 -1.6667
  190MOL   C13249650   6.807   1.806   0.360 -0.0128 -0.0615  0.0461
  190MOL   N13349651   6.853   1.688   0.439  0.6762 -0.0609  0.6812
  190MOL   C13449652   6.779   1.631   0.538  0.0673  0.6571  0.1412
  190MOL   O13549653   6.683   1.678   0.596 -0.2331 -0.7336  0.0597
  190MOL   C13649654   6.833   1.501   0.585 -0.0440  0.3892  0.4867
  190MOL   C13749655   6.894   1.838   0.233 -0.2875  0.0639  0.4216
  190MOL   H13849656   6.703   1.786   0.335 -0.0492 -0.7156  0.7294
  190MOL   H13949657   6.944   1.653   0.414 -0.0639 -0.6383 -1.3121
  190MOL   H14049658   6.806   1.424   0.512  2.4189  0.4424 -0.5334
  190MOL   H14149659   6.942   1.499   0.579  0.0787 -1.3705  2.8017
  190MOL   H14249660   6.786   1.473   0.679  0.5656 -1.1618  0.3471
  190MOL   H14349661   6.848   1.932   0.200  0.3679  0.6372  1.1292
  190MOL   H14449662   6.995   1.868   0.257 -0.3646 -0.1156  0.9687
  190MOL   C14549663   6.885   1.724   0.124 -0.2107  0.6723 -0.6205
  190MOL   N14649664   6.951   1.775   0.001  0.1492 -0.3692  0.9023
  190MOL   C14749665   7.081   1.802   7.829  0.3455  0.1572  0.1897
  190MOL   O14849666   7.164   1.778   0.078 -0.3586  0.0421 -0.6447
  190MOL   C14949667   7.119   1.864   7.692  0.3697 -0.3655 -0.6989
  190MOL   C15049668   6.734   1.693   0.088  0.5397  0.1206  0.4785
  190MOL   H15149669   6.933   1.634   0.163 -0.0466  1.8351  1.9362
  190MOL   H15249670   6.894   1.798   7.760 -1.2160 -0.9682  1.6755
  190MOL   H15349671   7.197   1.934   7.722 -1.6384  1.2130  1.0111
  190MOL   H15449672   7.167   1.795   7.623  2.1320  1.2743 -1.1781
  190MOL   H15549673   7.034   1.908   7.640 -0.4503  0.8143  1.5561
  190MOL   H15649674   6.680   1.658   0.176 -1.1175  1.3898 -0.0067
  190MOL   H15749675   6.687   1.784   0.051 -2.8856 -1.8706 -0.1991
  190MOL   C15849676   6.726   1.575   7.826 -0.4779 -0.1587  0.4749
  190MOL   N15949677   6.608   1.575   7.751  0.1544  0.1878  0.8581
  190MOL   C16049678   6.480   1.577   7.799 -0.6396  0.1487 -0.8636
  190MOL   O16149679   6.453   1.598   0.079 -0.1579  0.4531  0.5137
  190MOL   C16249680   6.369   1.560   7.695 -0.3110  0.0864 -0.0114
  190MOL   C16349681   6.740   1.430   0.041  0.7544  0.2029  0.5512
  190MOL   H16449682   6.806   1.587   7.752  0.3332 -1.4970  1.1025
  190MOL   H16549683   6.618   1.551   7.654  0.4007  0.2835  0.8609
  190MOL   H16649684   6.349   1.456   7.672  0.1248  0.3209 -1.4871
  190MOL   H16749685   6.278   1.609   7.729  0.3867  0.6852  1.0198
  190MOL   H16849686   6.403   1.607   7.603  1.1802 -0.0173  0.4824
  190MOL   H16949687   6.812   1.426   0.123  0.5935  0.1103  0.6875
  190MOL   H17049688   6.647   1.397   0.087  0.7243 -0.1622  0.2254
  190MOL   C17149689   6.780   1.320   7.778 -0.6007 -0.3079  0.1594
  190MOL   N17249690   6.671   1.286   7.690 -0.0602  0.3724 -0.1168
  190MOL   C17349691   6.679   1.268   7.556  0.2950  0.1065 -0.4912
  190MOL   O17449692   6.785   1.284   7.497  0.0201 -0.1741  0.6453
  190MOL   C17549693   6.544   1.232   7.488 -0.4502 -0.0785  0.0592
  190MOL   C17649694   6.817   1.195   0.021  0.4793  0.0116 -0.1304
  190MOL   H17749695   6.863   1.342   7.710  0.9087 -1.1626  1.6674
  190MOL   H17849696   6.577   1.281   7.728 -0.0046 -0.6536 -0.1220
  190MOL   H17949697   6.561   1.193   7.387  1.9386 -0.8188  0.7137
  190MOL   H18049698   6.491   1.168   7.558 -2.1746 -0.0576 -1.1984
  190MOL   H18149699   6.483   1.322   7.482 -1.8195 -1.0009  0.0325
  190MOL   H18249700   6.753   1.200   0.109 -0.0812 -0.1453 -0.5242
  190MOL   H18349701   6.772   1.111   7.808  0.3617 -0.4066  0.6344
  190MOL   C18449702   6.958   1.162   0.055  0.5610  0.0270  0.2088
  190MOL   N18549703   7.023   1.087   7.776  0.1056 -0.0349  0.6950
  190MOL   C18649704   7.006   0.963   7.729  0.8585 -0.0718 -0.4901
  190MOL   O18749705   6.926   0.886   7.777  0.0824  0.0941  0.3413
  190MOL   C18849706   7.094   0.915   7.619 -1.4122  0.7998 -0.1948
  190MOL   C18949707   6.981   1.087   0.186  0.6250 -0.4259  0.0546
  190MOL   H19049708   7.009   1.258   0.059  1.3064 -0.2084 -2.3407
  190MOL   H19149709   7.082   1.145   7.718 -2.2250 -0.4717 -2.2198
  190MOL   H19249710   7.197   0.886   7.642 -0.7780  1.2119 -2.4396
  190MOL   H19349711   7.051   0.825   7.576  0.2701  1.0775 -2.5706
  190MOL   H19449712   7.096   0.981   7.533 -3.2116 -2.1958 -2.6052
  190MOL   H19549713   6.905   1.012   0.206 -0.9397  1.1949  0.2708
  190MOL   H19649714   7.069   1.024   0.172  1.3777  0.8929 -1.3071
  190MOL   C19749715   6.998   1.181   0.304 -0.8380 -0.6632  0.9267
  190MOL   N19849716   7.116   1.271   0.285 -0.5849 -0.3554  0.5247
  190MOL   C19949717   7.101   1.406   0.299 -0.0795 -0.4566  0.1269
  190MOL   O20049718   6.993   1.461   0.317  0.0021 -0.3490  0.0798
  190MOL   C20149719   7.230   1.483   0.286  0.1165 -0.3592  0.2986
  190MOL   C20249720   7.020   1.088   0.425 -0.0131  0.3223 -0.3376
  190MOL   H20349721   6.905   1.234   0.322 -0.2251  0.8977 -0.3194
  190MOL   H20449722   7.209   1.238   0.304 -0.1510  0.3058 -0.4069
  190MOL   H20549723   7.270   1.473   0.387  3.7428 -0.3579 -1.0662
  190MOL   H20649724   7.302   1.445   0.214  0.4538 -0.5510  0.7333
  190MOL   H20749725   7.216   1.589   0.267 -1.6646 -0.4997  0.7261
  190MOL   H20849726   7.113   1.032   0.412  0.4347  0.6642  1.2614
  190MOL   H20949727   7.047   1.146   0.513 -0.2932  1.6957 -1.1413
  190MOL   C21049728   6.902   0.998   0.479  0.4850 -0.4173  0.2908
  190MOL   N21149729   6.806   1.087   0.535  0.5845 -0.4132 -0.3410
  190MOL   C21249730   6.681   1.108   0.475 -0.2840  0.3485 -0.1451
  190MOL   O21349731   6.663   1.074   0.354 -0.1713  0.2049 -0.0238
  190MOL   C21449732   6.572   1.158   0.565 -0.2194  0.1591  0.3408
  190MOL   C21549733   6.947   0.905   0.587 -0.0496  1.4717 -0.7139
  190MOL   H21649734   6.868   0.929   0.402 -1.1444 -2.4564  2.7343
  190MOL   H21749735   6.805   1.119   0.630  0.4760  1.8569 -1.0621
  190MOL   H21849736   6.620   1.217   0.643  1.0996 -1.1763  0.5899
  190MOL   H21949737   6.498   1.212   0.507  2.2841  1.5778 -1.6324
  190MOL   H22049738   6.513   1.072   0.599 -1.1497  0.3456 -0.8016
  190MOL   H22149739   7.010   0.833   0.534  0.8399  1.4892  0.2948
  190MOL   H22249740   7.009   0.960   0.658  0.7090 -2.7182  1.9800
  190MOL   C22349741   6.836   0.816   0.655  0.1785 -0.2286 -0.4361
  190MOL   N22449742   6.918   0.718   0.727 -0.2832 -0.3272  0.3465
  190MOL   C22549743   6.924   0.705   0.861  0.2765 -0.2459 -0.0563
  190MOL   O22649744   6.867   0.779   0.937  0.4003 -0.3594  0.0134
  190MOL   C22749745   7.004   0.593   0.918 -0.6656 -0.2666 -0.1113
  190MOL   C22849746   6.732   0.747   0.571 -0.2670 -0.0470  0.3554
  190MOL   H22949747   6.787   0.883   0.726 -1.8887 -1.4658 -0.6433
  190MOL   H23049748   6.982   0.658   0.677  0.1042  1.7193 -1.6927
  190MOL   H23149749   7.096   0.641   0.954 -0.1378 -0.7555 -0.7928
  190MOL   H23249750   6.962   0.540   1.003  0.7449 -2.1721 -0.5639
  190MOL   H23349751   7.027   0.516   0.845 -0.0893 -1.1379  0.9673
  190MOL   H23449752   6.691   0.816   0.497  1.4723  1.2228  0.5466
  190MOL   H23549753   6.778   0.664   0.518  0.8565  0.5786  0.3390
  190MOL   C23649754   6.616   0.693   0.658  0.3670 -0.1762  0.5923
  190MOL   N23749755   6.544   0.596   0.574 -0.6097  0.0895  0.6013
  190MOL   C23849756   6.513   0.467   0.609  0.0651 -0.2326  0.3136
  190MOL   O23949757   6.522   0.415   0.719  0.2506  0.2685 -0.4242
  190MOL   C24049758   6.456   0.394   0.497 -0.4901  0.5904  0.0509
  190MOL   C24149759   6.520   0.804   0.707 -0.2800  1.1172 -0.6160
  190MOL   H24249760   6.651   0.642   0.748  1.4305  0.0122  0.2992
  190MOL   H24349761   6.540   0.625   0.478 -1.1790 -1.7205  0.0682
  190MOL   H24449762   6.497   0.294   0.484 -2.0527  0.1685 -1.9453
  190MOL   H24549763   6.349   0.382   0.514 -0.0716  1.2585  3.3144
  190MOL   H24649764   6.470   0.446   0.402  0.8660 -0.6960 -0.4744
  190MOL   H24749765   6.576   0.876   0.767  3.0101 -1.8675  0.0276
  190MOL   H24849766   6.475   0.852   0.620 -1.1414 -1.0130 -1.3759
  190MOL   C24949767   6.415   0.743   0.805 -0.3401 -0.4364 -0.0390
  190MOL   N25049768   6.317   0.845   0.843 -0.2023 -0.2439  0.0021
  190MOL   C25149769   6.193   0.854   0.797 -0.7589 -0.3895  0.3852
  190MOL   O25249770   6.156   0.798   0.694 -0.0295  1.1220 -0.3419
  190MOL   C25349771   6.093   0.933   0.877  0.0014  0.5543 -0.0187
  190MOL   C25449772   6.481   0.685   0.928  0.2189 -0.0914  0.1822
  190MOL   H25549773   6.351   0.669   0.757 -1.1160  1.4149 -1.9372
  190MOL   H25649774   6.338   0.890   0.931  0.7135  0.2965 -0.4808
  190MOL   H25749775   6.139   1.012   0.936  1.0257  0.2173 -0.3706
  190MOL   H25849776   6.018   0.977   0.810 -3.1931 -2.1006  1.6325
  190MOL   H25949777   6.044   0.851   0.930  1.4281 -1.7198 -2.1378
  190MOL   H26049778   6.410   0.676   1.010 -0.6903 -1.2121 -0.7160
  190MOL   H26149779   6.520   0.584   0.917  1.4489  0.4900 -0.9476
  190MOL   H26249780   6.563   0.746   0.967  0.8773 -2.2880  2.3869
   7.83972   7.83972   7.83972
