Control file title. For DL_FIELD 4.10
49984
    1MOL     C1    1   1.501   5.449   2.696  0.0453  0.5756 -0.2751
    1MOL     C2    2   1.542   5.596   2.656  0.4604  0.0956  0.0526
    1MOL     O3    3   1.670   5.581   2.598  0.1279 -0.2811 -0.3428
    1MOL     H4    4   1.577   5.412   2.766  1.0080  2.3481 -0.3454
    1MOL     H5    5   1.491   5.388   2.607 -0.8237  0.0448  0.1810
    1MOL     H6    6   1.556   5.657   2.745  0.7691  0.6359 -0.3566
    1MOL     H7    7   1.671   5.498   2.553  0.4568 -0.3308 -0.2439
    1MOL     H8    8   1.401   5.456   2.738 -1.0373  1.0386 -2.8791
    1MOL     C9    9   1.442   5.656   2.556 -0.5027  0.2943  0.7194
    1MOL    C10   10   1.472   5.799   2.501  0.5084 -0.2406 -0.2451
    1MOL    O11   11   1.361   5.840   2.426  0.0683 -0.5523  0.1071
    1MOL    H12   12   1.448   5.586   2.472 -0.8914  3.2236 -1.8661
    1MOL    H13   13   1.344   5.652   2.602 -0.0114 -2.0910  1.6319
    1MOL    H14   14   1.554   5.790   2.429 -0.1374  1.3380 -1.2045
    1MOL    H15   15   1.373   5.933   2.414 -0.5123 -0.1811  2.1315
    1MOL    C16   16   1.502   5.914   2.605 -0.5861 -0.0934  0.1624
    1MOL    C17   17   1.647   5.917   2.659  0.2265 -0.4170 -0.6121
    1MOL    O18   18   1.739   5.928   2.558 -0.5452 -0.0002  0.4146
    1MOL    H19   19   1.482   6.009   2.556  0.4237 -0.7256 -1.4834
    1MOL    H20   20   1.435   5.906   2.691 -2.9341 -2.2248 -1.7909
    1MOL    H21   21   1.667   5.829   2.719 -1.0843  1.4441  2.6852
    1MOL    H22   22   1.814   5.979   2.583 -0.3908 -0.1265  0.2127
    1MOL    C23   23   1.673   6.042   2.750 -1.0024  0.5115 -0.3388
    1MOL    C24   24   1.579   6.061   2.873 -0.3036  0.0960 -0.0933
    1MOL    O25   25   1.583   5.952   2.960  0.2309 -0.4693 -0.2420
    1MOL    H26   26   1.778   6.024   2.775 -0.7903  2.3393  0.1523
    1MOL    H27   27   1.692   6.134   2.696  0.8677  0.9390  0.9687
    1MOL    H28   28   1.475   6.069   2.845 -0.5682  0.5252  0.9848
    1MOL    H29   29   1.501   5.953   3.006  2.2765 -0.3913  3.5398
    1MOL    C30   30   1.617   6.178   2.968 -1.0847 -0.2117 -0.1687
    1MOL    C31   31   1.547   6.314   2.931 -0.1999 -0.0889  0.3981
    1MOL    O32   32   1.412   6.323   2.987  0.4475  0.1316  0.3599
    1MOL    H33   33   1.596   6.154   3.072 -0.3356  2.0511  0.5428
    1MOL    H34   34   1.724   6.196   2.963 -1.6635  3.2074 -2.0306
    1MOL    H35   35   1.548   6.312   2.822 -2.1933 -0.7770  0.3816
    1MOL    H36   36   1.428   6.322   3.080  2.0875 -1.2512  0.0941
    1MOL    C37   37   1.629   6.428   2.985 -0.2557  0.4677 -0.1937
    1MOL    C38   38   1.598   6.568   2.942  0.5638 -0.0162  0.5424
    1MOL    O39   39   1.655   6.664   3.028  0.2324  0.4491  0.1393
    1MOL    H40   40   1.629   6.429   3.094 -2.3808 -0.3232 -0.1722
    1MOL    H41   41   1.733   6.405   2.959 -1.0708 -1.9193 -1.4626
    1MOL    H42   42   1.490   6.578   2.951  0.3285  0.6914 -2.3988
    1MOL    H43   43   1.620   6.647   3.114  2.8899  2.5568  1.7162
    1MOL    C44   44   1.651   6.591   2.799  0.1194  0.0587 -0.0903
    1MOL    C45   45   1.601   6.725   2.738  0.1662  0.5610 -0.5078
    1MOL    O46   46   1.663   6.740   2.613 -0.0931 -0.2321  0.4575
    1MOL    H47   47   1.759   6.583   2.804  0.1266 -0.4367 -0.9869
    1MOL    H48   48   1.622   6.510   2.731 -0.0892  1.7360 -2.0333
    1MOL    H49   49   1.628   6.810   2.802  0.0619  1.3321 -1.4820
    1MOL    H50   50   1.655   6.657   2.569 -0.4588  0.1175 -0.1463
    1MOL    C51   51   1.452   6.727   2.711 -0.6318  0.1507 -0.2057
    1MOL    C52   52   1.371   6.861   2.713  0.3403 -0.5032 -0.2996
    1MOL    O53   53   1.253   6.844   2.630  0.6399  0.5887 -0.3211
    1MOL    H54   54   1.426   6.684   2.614 -1.7600  0.0104  0.1508
    1MOL    H55   55   1.409   6.660   2.786  0.7838  1.0385  1.4161
    1MOL    H56   56   1.436   6.936   2.668  0.4236 -0.1445  0.4101
    1MOL    H57   57   1.183   6.797   2.673 -1.0224  2.0122 -1.3913
    1MOL    C58   58   1.318   6.914   2.848 -0.3631  1.1439 -0.2142
    1MOL    C59   59   1.418   6.951   2.958  0.1156 -0.4154 -0.1421
    1MOL    O60   60   1.506   7.051   2.918  0.6938  0.4935  0.0077
    1MOL    H61   61   1.255   7.003   2.840 -0.3914  1.1229 -0.2299
    1MOL    H62   62   1.253   6.838   2.893 -1.6487  1.2033 -1.9077
    1MOL    H63   63   1.467   6.858   2.988  0.3682  0.1294  1.1850
    1MOL    H64   64   1.460   7.105   2.856 -0.7734 -0.5926  0.1031
    1MOL    C65   65   1.345   7.013   3.080 -0.2072 -0.0392 -0.0819
    1MOL    C66   66   1.431   7.018   3.214 -1.0430  0.1393 -0.5953
    1MOL    O67   67   1.357   7.084   3.312  0.8707  0.3731 -0.7401
    1MOL    H68   68   1.309   7.114   3.065  0.7324 -0.1038 -3.1556
    1MOL    H69   69   1.250   6.963   3.097 -0.9394  1.0128 -1.0794
    1MOL    H70   70   1.511   7.087   3.188 -0.1842  0.2550  2.1511
    1MOL    H71   71   1.418   7.137   3.361 -1.1700  0.9304  1.3013
    1MOL    C72   72   1.500   6.892   3.265  0.3293 -0.7184  0.3149
    1MOL    C73   73   1.421   6.761   3.264 -0.0344 -0.2303 -0.2516
    1MOL    O74   74   1.501   6.662   3.302  0.0079  0.2530  0.5849
    1MOL    H75   75   1.590   6.870   3.209  1.2333  0.7056  1.1765
    1MOL    H76   76   1.542   6.908   3.365 -1.0430  1.3574  0.5820
    1MOL    H77   77   1.399   6.735   3.161 -2.8806  0.9412  0.0272
    1MOL    H78   78   1.459   6.578   3.311 -0.5989  0.6802  1.8949
    1MOL    C79   79   1.293   6.758   3.348 -0.6369 -0.2698  0.1111
    1MOL    C80   80   1.179   6.659   3.314 -0.9169  0.2686  0.6467
    1MOL    O81   81   1.147   6.678   3.187 -0.4401 -0.2288 -0.7519
    1MOL    H82   82   1.320   6.748   3.453  0.6725 -0.8099 -0.2668
    1MOL    H83   83   1.246   6.856   3.348 -0.4082 -0.1490 -1.3203
    1MOL    H84   84   1.087   6.696   3.359 -1.0801 -1.7271  2.0507
    1MOL    H85   85   1.072   6.629   3.156 -0.7699  0.9333 -1.8308
    1MOL    C86   86   1.191   6.512   3.354 -0.6697 -0.2081 -0.1224
    1MOL    C87   87   1.099   6.415   3.275 -0.8641  0.3453 -0.2253
    1MOL    O88   88   1.169   6.294   3.278  0.4070 -0.2183  0.0018
    1MOL    H89   89   1.293   6.488   3.324  0.4355  2.4156  1.3214
    1MOL    H90   90   1.184   6.497   3.462  0.1389 -0.1238 -0.0548
    1MOL    H91   91   1.092   6.446   3.171 -0.3640 -0.1935 -0.4265
    1MOL    H92   92   1.114   6.232   3.231  1.9871 -0.6795 -1.2831
    1MOL    C93   93   0.954   6.404   3.333 -0.2546 -0.0359 -0.3436
    1MOL    C94   94   0.854   6.514   3.294 -0.5157 -0.1047  0.1239
    1MOL    O95   95   0.863   6.544   3.155  0.1901  0.2652 -0.1655
    1MOL    H96   96   0.918   6.311   3.289 -0.4316  0.3366 -0.9941
    1MOL    H97   97   0.963   6.390   3.441 -0.3631 -0.1054 -0.3434
    1MOL    H98   98   0.889   6.602   3.349  2.4846 -0.4273 -1.1848
    1MOL    H99   99   0.806   6.616   3.134  1.9142  2.5512  2.6585
    1MOL   C100  100   0.710   6.483   3.323  0.7529 -0.3220 -0.4682
    1MOL   C101  101   0.681   6.469   3.472 -0.3673 -0.6950  0.3932
    1MOL   O102  102   0.675   6.603   3.522 -0.1163  0.3364  0.1925
    1MOL   H103  103   0.649   6.562   3.280  0.2663  1.1461  2.7772
    1MOL   H104  104   0.674   6.392   3.274 -1.9435  1.0292 -1.0706
    1MOL   H105  105   0.759   6.415   3.526  0.8880  0.4829 -0.2475
    1MOL   H106  106   0.684   6.605   3.616 -2.4378 -0.9035  0.4678
    1MOL   C107  107   0.536   6.406   3.494  0.2808  0.0781  0.1529
    1MOL   C108  108   0.503   6.367   3.636  0.2128 -0.6019 -0.2764
    1MOL   O109  109   0.386   6.281   3.628  0.0596  0.2124  0.3456
    1MOL   H110  110   0.462   6.479   3.463  0.4706 -0.2834 -1.1934
    1MOL   H111  111   0.526   6.320   3.428  0.6385 -0.7299  1.1385
    1MOL   H112  112   0.477   6.456   3.693  1.1856 -1.1674  1.0560
    1MOL   H113  113   0.334   6.290   3.707 -1.6559  0.2048 -0.7678
    1MOL   C114  114   0.609   6.289   3.714  0.7169  1.0498 -1.0161
    1MOL   C115  115   0.675   6.162   3.647  0.5205  0.3363  0.3367
    1MOL   O116  116   0.811   6.165   3.657  0.4410 -0.0736  0.4812
    1MOL   H117  117   0.684   6.365   3.736  0.9063  0.6899 -0.4099
    1MOL   H118  118   0.565   6.256   3.808  0.2793  2.3624 -0.7486
    1MOL   H119  119   0.667   6.171   3.539 -1.3691 -0.8189  0.3619
    1MOL   H120  120   0.853   6.113   3.590  1.2896  0.3597  0.6752
    1MOL   C121  121   0.635   6.032   3.717  0.1871  0.3021  0.3406
    1MOL   C122  122   0.487   6.003   3.729  0.4374  0.2606 -0.3759
    1MOL   O123  123   0.427   6.003   3.605 -0.3018 -0.2766  0.4576
    1MOL   H124  124   0.684   5.942   3.679 -1.6456  0.1057 -1.6342
    1MOL   H125  125   0.670   6.034   3.821 -1.2385 -0.4274  0.8488
    1MOL   H126  126   0.425   6.081   3.775 -0.4444 -0.2416 -0.7086
    1MOL   H127  127   0.406   6.092   3.582  2.1441 -0.0433 -1.1868
    1MOL   C128  128   0.466   5.870   3.803  0.3733  0.2845  0.8414
    1MOL   C129  129   0.331   5.810   3.849  0.1471 -0.2997 -0.1045
    1MOL   O130  130   0.361   5.678   3.897  0.4445 -0.2022 -0.4354
    1MOL   H131  131   0.513   5.792   3.743  1.6977 -1.1316  3.5861
    1MOL   H132  132   0.526   5.875   3.895  0.7578 -0.5470  0.6403
    1MOL   H133  133   0.267   5.792   3.763  0.3172 -0.8117 -0.1289
    1MOL   H134  134   0.446   5.680   3.939  0.8747  0.8599 -1.3450
    1MOL   C135  135   0.254   5.897   3.953 -0.8450  1.0534  0.5867
    1MOL   C136  136   0.123   5.834   3.983  0.4339 -0.7070 -0.2660
    1MOL   O137  137   0.077   5.891   4.104  0.3195  0.1416  0.2936
    1MOL   H138  138   0.313   5.919   4.042 -1.1544  0.3447  0.9789
    1MOL   H139  139   0.232   5.996   3.914 -2.0060  1.1580  1.4677
    1MOL   H140  140   0.125   5.725   3.991  0.4660 -0.7116 -0.3341
    1MOL   H141  141   0.060   5.981   4.082 -0.4695 -0.7501 -3.0109
    1MOL   H142  142   0.053   5.843   3.900  1.5680 -1.9158 -1.3735
    2MOL     C1  143   2.562   4.276   4.322 -0.6099 -0.3528  0.0855
    2MOL     C2  144   2.524   4.130   4.303  0.3735 -0.3130  0.5326
    2MOL     O3  145   2.531   4.094   4.167  0.1082 -0.2732  0.2196
    2MOL     H4  146   2.484   4.346   4.296 -0.4394  0.5146  1.8280
    2MOL     H5  147   2.645   4.307   4.258  0.2106  1.4518  1.9393
    2MOL     H6  148   2.423   4.108   4.338  0.4641  0.7450  1.4729
    2MOL     H7  149   2.476   4.151   4.116 -0.0007  1.1048  1.8749
    2MOL     H8  150   2.586   4.294   4.427  0.1411 -0.7432 -0.0139
    2MOL     C9  151   2.609   4.022   4.367  0.8298 -0.2225 -0.4646
    2MOL    C10  152   2.560   3.877   4.350 -0.2263  0.3128  0.2564
    2MOL    O11  153   2.668   3.785   4.332  0.0854  0.1429  0.4358
    2MOL    H12  154   2.708   4.028   4.322  0.5197 -0.5964 -1.2116
    2MOL    H13  155   2.616   4.055   4.471  2.3514  0.1435 -0.6681
    2MOL    H14  156   2.495   3.873   4.262  1.4360  0.9888 -1.0150
    2MOL    H15  157   2.699   3.781   4.243 -0.8028  1.0264  0.0758
    2MOL    C16  158   2.476   3.837   4.473 -0.4386 -0.9652  0.3451
    2MOL    C17  159   2.393   3.713   4.452  0.7864  0.1090  0.8191
    2MOL    O18  160   2.381   3.655   4.579 -0.0856  0.2918  0.7813
    2MOL    H19  161   2.538   3.817   4.561  2.1806 -1.1945 -1.4826
    2MOL    H20  162   2.400   3.911   4.497  1.5142  1.6935 -1.4144
    2MOL    H21  163   2.447   3.637   4.395 -1.3562 -1.9823  1.5008
    2MOL    H22  164   2.454   3.594   4.581  0.2558  0.7165  1.4742
    2MOL    C23  165   2.253   3.742   4.384 -0.7735  0.6701 -0.6401
    2MOL    C24  166   2.184   3.610   4.337 -0.6557  0.3751  0.8028
    2MOL    O25  167   2.141   3.544   4.457 -0.8423  0.7383 -0.4829
    2MOL    H26  168   2.191   3.804   4.449  0.5314  2.1364 -0.7723
    2MOL    H27  169   2.270   3.803   4.295  0.3077  1.2091 -0.0698
    2MOL    H28  170   2.257   3.555   4.277 -3.4087  0.0385 -2.3452
    2MOL    H29  171   2.154   3.596   4.535 -3.3656 -1.3410  1.4376
    2MOL    C30  172   2.047   3.627   4.260 -0.5959  0.0067 -0.1990
    2MOL    C31  173   2.045   3.720   4.134  0.0619  0.1636 -0.2590
    2MOL    O32  174   1.957   3.665   4.041  0.0530 -0.0660 -0.0884
    2MOL    H33  175   2.000   3.533   4.233  1.1265 -1.1956  0.8328
    2MOL    H34  176   1.982   3.667   4.338  0.3013 -0.7793  0.9891
    2MOL    H35  177   2.148   3.707   4.100 -0.2806  0.6600 -1.5247
    2MOL    H36  178   1.873   3.646   4.080 -0.1270 -0.3323 -0.6096
    2MOL    C37  179   2.007   3.867   4.157  0.8199  0.2183  1.5153
    2MOL    C38  180   2.058   3.974   4.056 -0.2567 -0.3436 -0.1512
    2MOL    O39  181   1.955   4.058   4.012 -0.0412 -0.3024  0.0964
    2MOL    H40  182   1.898   3.863   4.162  0.7381  0.2213  0.0035
    2MOL    H41  183   2.027   3.904   4.257  0.1804  0.4291  1.5675
    2MOL    H42  184   2.092   3.922   3.966  0.2442  0.9325 -0.7006
    2MOL    H43  185   1.914   4.023   3.934  1.0260  1.8656 -1.5038
    2MOL    C44  186   2.170   4.057   4.105  0.3651  0.4864  0.2054
    2MOL    C45  187   2.246   4.131   3.985 -0.6292 -0.0229  0.6279
    2MOL    O46  188   2.325   4.237   4.039  0.1286 -0.3864  0.2624
    2MOL    H47  189   2.135   4.131   4.178  2.0590  0.2769  1.2631
    2MOL    H48  190   2.245   4.002   4.162  1.0343  0.7649 -0.3894
    2MOL    H49  191   2.168   4.168   3.918  1.6464  1.1172 -1.4341
    2MOL    H50  192   2.264   4.286   4.092  0.7111  0.7783 -0.1372
    2MOL    C51  193   2.341   4.035   3.912 -0.0630 -0.4450 -0.4486
    2MOL    C52  194   2.411   4.094   3.785 -0.1383  0.2527  0.5292
    2MOL    O53  195   2.520   4.011   3.762 -0.0965 -0.2690 -0.4005
    2MOL    H54  196   2.425   4.010   3.977  1.4160  1.7998 -1.4239
    2MOL    H55  197   2.285   3.947   3.883 -0.3370 -1.2304  2.3512
    2MOL    H56  198   2.434   4.193   3.825 -1.2425 -0.8267  4.0031
    2MOL    H57  199   2.591   4.037   3.819  0.1735  0.8059 -1.2041
    2MOL    C58  200   2.314   4.090   3.659 -0.5508  0.0456  0.1054
    2MOL    C59  201   2.315   4.225   3.592  0.1899 -0.9086 -0.6864
    2MOL    O60  202   2.254   4.214   3.463  0.5106 -0.2856  0.1636
    2MOL    H61  203   2.357   4.019   3.588 -0.8088  2.4669 -2.5784
    2MOL    H62  204   2.215   4.054   3.687 -0.7362  0.7618  0.3644
    2MOL    H63  205   2.414   4.270   3.584 -0.3074  0.3526  0.1428
    2MOL    H64  206   2.251   4.303   3.430 -0.0590 -0.4340 -0.1816
    2MOL    C65  207   2.225   4.337   3.656  0.8127 -0.7161  0.0037
    2MOL    C66  208   2.260   4.485   3.617 -0.2688  0.4144  0.7481
    2MOL    O67  209   2.226   4.517   3.479  0.5936  0.1591  0.2079
    2MOL    H68  210   2.119   4.318   3.639  1.1553 -2.2639 -0.4114
    2MOL    H69  211   2.242   4.325   3.762 -0.5383 -1.6692  0.1223
    2MOL    H70  212   2.366   4.491   3.642 -0.3366  0.1801  1.0945
    2MOL    H71  213   2.270   4.599   3.460 -0.5645  0.6200 -0.5400
    2MOL    C72  214   2.184   4.579   3.716 -0.8294  0.6994  1.4244
    2MOL    C73  215   2.238   4.578   3.864 -0.3773 -0.6424 -0.7178
    2MOL    O74  216   2.373   4.627   3.849  0.2950  0.3023 -0.4075
    2MOL    H75  217   2.184   4.678   3.668 -1.4784  0.6358  1.2921
    2MOL    H76  218   2.075   4.569   3.715 -0.5247 -3.3103  0.1224
    2MOL    H77  219   2.247   4.472   3.889  1.4003 -0.4672 -0.5468
    2MOL    H78  220   2.376   4.707   3.799  1.4847  1.3623  1.3009
    2MOL    C79  221   2.155   4.654   3.969  0.0899  0.9800  0.3562
    2MOL    C80  222   2.023   4.578   4.003  0.2930 -0.0936  0.0091
    2MOL    O81  223   2.054   4.462   4.076  0.1114 -0.0816  0.5223
    2MOL    H82  224   2.219   4.670   4.055  0.9049  2.6615 -0.5187
    2MOL    H83  225   2.132   4.752   3.927  0.6277  1.5101  1.2768
    2MOL    H84  226   1.979   4.545   3.909 -2.2123  2.6117  0.1655
    2MOL    H85  227   2.099   4.477   4.158  0.7731 -0.3597  0.2073
    2MOL    C86  228   1.921   4.664   4.075  0.1121  0.1491 -0.2713
    2MOL    C87  229   1.770   4.648   4.045 -0.4653  0.0313  0.0454
    2MOL    O88  230   1.748   4.694   3.906  0.2389 -0.6075 -0.3895
    2MOL    H89  231   1.931   4.644   4.182  4.4131 -0.2567 -0.6792
    2MOL    H90  232   1.944   4.770   4.070  2.5601 -0.2278  2.0496
    2MOL    H91  233   1.723   4.715   4.117 -0.9558 -0.9781  0.6708
    2MOL    H92  234   1.716   4.619   3.856 -0.0929 -1.1622  0.6421
    2MOL    C93  235   1.712   4.509   4.074  0.5445  0.0011 -0.6471
    2MOL    C94  236   1.726   4.457   4.218 -0.3103  0.0618 -0.1117
    2MOL    O95  237   1.694   4.566   4.308  0.1415 -0.3054 -0.0609
    2MOL    H96  238   1.607   4.513   4.046  0.0488 -0.0864  1.1037
    2MOL    H97  239   1.753   4.445   3.996  0.3992  1.6686 -2.1142
    2MOL    H98  240   1.828   4.422   4.234  0.1767  0.6327 -1.8982
    2MOL    H99  241   1.606   4.554   4.342 -0.1897  0.8704 -0.4535
    2MOL   C100  242   1.643   4.330   4.248  0.0586 -0.0092 -0.1334
    2MOL   C101  243   1.694   4.208   4.175 -0.3142 -0.2110  0.2564
    2MOL   O102  244   1.820   4.165   4.221 -0.1369  0.0149 -0.4601
    2MOL   H103  245   1.658   4.312   4.355  2.1654  1.4214 -0.1409
    2MOL   H104  246   1.539   4.357   4.228  0.9668  2.5924 -1.6638
    2MOL   H105  247   1.704   4.242   4.072 -0.0182  0.2508  0.4383
    2MOL   H106  248   1.869   4.125   4.151 -0.4448 -1.1004 -0.0548
    2MOL   C107  249   1.602   4.080   4.188 -0.1968  0.4036 -1.2818
    2MOL   C108  250   1.592   3.992   4.066 -0.2029 -0.1250 -0.4162
    2MOL   O109  251   1.529   3.870   4.111 -0.3930  0.0965  0.1141
    2MOL   H110  252   1.621   4.029   4.282  0.2278 -1.0976 -2.1634
    2MOL   H111  253   1.501   4.117   4.207  0.3339 -0.0513  2.6702
    2MOL   H112  254   1.689   3.967   4.023  0.1768  1.8737 -0.7479
    2MOL   H113  255   1.602   3.810   4.114  0.7106  1.4543  0.8201
    2MOL   C114  256   1.512   4.043   3.947 -0.2709  0.2591  0.1539
    2MOL   C115  257   1.508   3.969   3.805 -0.6380  0.4837  0.0041
    2MOL   O116  258   1.374   3.972   3.762 -0.0132 -0.5737  0.5066
    2MOL   H117  259   1.407   4.043   3.978  0.3234  0.2202  2.2560
    2MOL   H118  260   1.550   4.145   3.940 -0.8384  0.5025  0.5719
    2MOL   H119  261   1.526   3.863   3.823 -0.0586  0.7846  1.2024
    2MOL   H120  262   1.366   3.899   3.702 -2.0743  1.0387 -1.2317
    2MOL   C121  263   1.601   4.013   3.690  0.0955 -0.0192  0.2309
    2MOL   C122  264   1.753   3.971   3.696 -0.3419 -0.0605  0.0265
    2MOL   O123  265   1.819   4.049   3.790  0.0423 -0.2065 -0.3162
    2MOL   H124  266   1.564   3.975   3.594  0.9101  0.5494 -0.3088
    2MOL   H125  267   1.599   4.122   3.691 -1.6352 -0.0422  1.3309
    2MOL   H126  268   1.806   3.977   3.601  0.3397  1.1354  0.4611
    2MOL   H127  269   1.836   4.128   3.741  0.3343  0.1336  0.3296
    2MOL   C128  270   1.779   3.827   3.742  0.0597  0.5690 -0.2272
    2MOL   C129  271   1.921   3.774   3.718  0.8034 -0.2156  0.4605
    2MOL   O130  272   1.935   3.647   3.767  0.1870 -0.7328 -0.4517
    2MOL   H131  273   1.758   3.816   3.848  0.1951  0.8436 -0.1725
    2MOL   H132  274   1.702   3.772   3.688  1.2531 -1.0810 -0.3284
    2MOL   H133  275   1.974   3.842   3.784  2.3439 -2.2041  1.3193
    2MOL   H134  276   1.958   3.653   3.859 -2.1100  2.1703 -0.0107
    2MOL   C135  277   1.974   3.774   3.576 -0.3022 -0.1597  0.2785
    2MOL   C136  278   2.115   3.710   3.555 -0.5344  0.6708 -0.1714
    2MOL   O137  279   2.159   3.721   3.416  0.1215 -0.3109 -0.3932
    2MOL   H138  280   1.909   3.734   3.497 -0.9981  0.8409  0.3421
    2MOL   H139  281   1.976   3.875   3.537  0.0029 -1.0194 -2.0245
    2MOL   H140  282   2.108   3.603   3.570  0.3606  0.7244  0.6602
    2MOL   H141  283   2.176   3.811   3.393  0.3319 -0.2396  0.0218
    2MOL   H142  284   2.181   3.754   3.630 -1.1327  0.2283  0.6360
    3MOL     C1  285   4.317   5.188   1.120  0.7850 -0.5997  0.6459
    3MOL     C2  286   4.334   5.336   1.154 -0.2194 -0.4539 -1.3231
    3MOL     O3  287   4.355   5.342   1.296 -0.1110 -0.0266 -0.3660
    3MOL     H4  288   4.284   5.174   1.018  2.4760  0.3138 -0.0424
    3MOL     H5  289   4.224   5.156   1.167  0.4055  0.2569  0.4877
    3MOL     H6  290   4.236   5.383   1.145 -0.6981 -0.8711  1.2277
    3MOL     H7  291   4.276   5.313   1.339  0.3321  2.0764  1.9437
    3MOL     H8  292   4.399   5.119   1.141  0.1855 -0.8452  2.2451
    3MOL     C9  293   4.440   5.415   1.072  0.5948  0.3110  0.1431
    3MOL    C10  294   4.481   5.553   1.130 -0.3390  0.1486  0.0206
    3MOL    O11  295   4.565   5.532   1.245  0.3846  0.8607  0.4506
    3MOL    H12  296   4.527   5.353   1.051  0.5329  0.2351  0.1093
    3MOL    H13  297   4.383   5.422   0.979 -1.5449  1.0062  1.4773
    3MOL    H14  298   4.393   5.608   1.165 -0.8547 -1.1209  0.7388
    3MOL    H15  299   4.539   5.456   1.294 -0.4443 -0.4471 -1.9294
    3MOL    C16  300   4.557   5.641   1.028  0.2274 -0.5603 -0.6413
    3MOL    C17  301   4.485   5.713   0.911  0.2059  0.1446 -0.1302
    3MOL    O18  302   4.389   5.798   0.969  0.0446 -0.0589 -0.3251
    3MOL    H19  303   4.608   5.724   1.076 -0.1839 -0.2178 -0.7916
    3MOL    H20  304   4.630   5.580   0.974  0.9132 -0.0060 -0.3476
    3MOL    H21  305   4.431   5.649   0.841 -0.5411  1.8559 -1.1288
    3MOL    H22  306   4.312   5.809   0.916 -0.5050  0.8185  0.6479
    3MOL    C23  307   4.578   5.799   0.817  0.1358 -0.1881 -0.8461
    3MOL    C24  308   4.692   5.723   0.747  0.1338  0.3390  0.1534
    3MOL    O25  309   4.686   5.745   0.607 -0.0874 -0.6546 -0.2613
    3MOL    H26  310   4.518   5.852   0.743  1.7352  0.8524 -1.4361
    3MOL    H27  311   4.619   5.887   0.867 -0.3533  0.2150 -1.1428
    3MOL    H28  312   4.681   5.615   0.752  2.0382  0.1192  0.1444
    3MOL    H29  313   4.694   5.838   0.592 -1.4875 -0.3228  0.9284
    3MOL    C30  314   4.833   5.756   0.805 -0.6740  0.1527  0.2866
    3MOL    C31  315   4.935   5.652   0.768 -0.2790 -0.3952 -0.8511
    3MOL    O32  316   4.970   5.654   0.635 -0.2019  0.7550 -0.1505
    3MOL    H33  317   4.856   5.855   0.767 -2.0196  1.1261  1.9316
    3MOL    H34  318   4.814   5.749   0.912 -1.0600  2.7838  0.4358
    3MOL    H35  319   4.891   5.555   0.791 -0.9318  0.3545  1.1579
    3MOL    H36  320   4.887   5.653   0.590 -0.0094 -1.1945 -0.5045
    3MOL    C37  321   5.063   5.666   0.847  0.2846 -0.2842  0.2370
    3MOL    C38  322   5.078   5.574   0.965  0.3102 -0.1857 -0.0989
    3MOL    O39  323   5.201   5.587   1.026  0.6059 -0.4822 -0.1558
    3MOL    H40  324   5.152   5.638   0.792 -0.0476 -1.2935  0.2033
    3MOL    H41  325   5.085   5.771   0.868  0.8304 -0.2065 -0.7153
    3MOL    H42  326   5.076   5.469   0.935  2.0083 -0.0548 -0.6841
    3MOL    H43  327   5.258   5.641   0.974 -0.4718  1.3395  0.4578
    3MOL    C44  328   4.979   5.603   1.080 -0.5342  0.4095  0.9318
    3MOL    C45  329   4.979   5.509   1.200 -0.2026 -0.5961  1.0264
    3MOL    O46  330   4.894   5.579   1.291  0.1108 -0.4080 -0.4462
    3MOL    H47  331   4.998   5.704   1.116 -1.8123  0.9261  0.2043
    3MOL    H48  332   4.878   5.593   1.041  0.2337  1.1255 -1.2738
    3MOL    H49  333   5.080   5.499   1.238  0.7437  1.0867 -0.9178
    3MOL    H50  334   4.803   5.571   1.269 -0.1099 -1.2006  0.6911
    3MOL    C51  335   4.925   5.375   1.166  0.5812 -0.3682  0.0686
    3MOL    C52  336   4.914   5.283   1.290  0.2170 -0.1724  0.0330
    3MOL    O53  337   4.888   5.150   1.240 -0.2675  0.2706 -0.2303
    3MOL    H54  338   4.825   5.390   1.126  0.7175  0.3421 -0.0214
    3MOL    H55  339   4.984   5.329   1.087  1.2238 -2.5009  1.7621
    3MOL    H56  340   4.844   5.318   1.366  2.7067  1.1103  1.7786
    3MOL    H57  341   4.968   5.121   1.199  0.6712  1.9735  0.3375
    3MOL    C58  342   5.051   5.265   1.372  0.5617  0.0103  0.5603
    3MOL    C59  343   5.060   5.163   1.486  0.0943  0.8969 -0.5000
    3MOL    O60  344   5.193   5.134   1.528  0.0194 -0.2484  0.2101
    3MOL    H61  345   5.119   5.241   1.291 -1.2838 -2.0457 -0.4343
    3MOL    H62  346   5.072   5.368   1.401  1.6280  0.4905 -1.7583
    3MOL    H63  347   5.004   5.075   1.454 -1.8433  1.2843  1.6914
    3MOL    H64  348   5.210   5.047   1.495 -0.5510  0.1172 -1.0758
    3MOL    C65  349   4.986   5.210   1.615 -0.0662  0.0322  0.4330
    3MOL    C66  350   4.957   5.112   1.726 -0.1015 -0.1366 -0.3565
    3MOL    O67  351   4.915   5.184   1.839  0.4468 -0.2618  0.3446
    3MOL    H68  352   5.043   5.298   1.645  0.0974 -0.6862  2.2478
    3MOL    H69  353   4.897   5.268   1.588  1.4620  1.8653 -0.8107
    3MOL    H70  354   5.051   5.060   1.745 -0.4300 -0.8901 -0.7682
    3MOL    H71  355   4.992   5.235   1.861  1.2424 -1.3292  0.0269
    3MOL    C72  356   4.840   5.021   1.683 -0.2530 -0.9770 -0.6861
    3MOL    C73  357   4.827   4.879   1.742  0.1905 -0.3683  0.2992
    3MOL    O74  358   4.698   4.830   1.723  0.4461  0.5294  0.1281
    3MOL    H75  359   4.751   5.082   1.693  0.8017  0.4077  0.4950
    3MOL    H76  360   4.846   5.011   1.575  3.7976  1.4236 -0.8123
    3MOL    H77  361   4.847   4.892   1.848 -3.1248  1.6635  0.7442
    3MOL    H78  362   4.690   4.802   1.633 -2.1127  1.7911 -0.0785
    3MOL    C79  363   4.943   4.779   1.706 -0.5385 -0.4059 -0.7944
    3MOL    C80  364   4.947   4.652   1.793  0.3265 -0.1682  0.3949
    3MOL    O81  365   4.832   4.575   1.771  0.6445 -0.2214  0.0820
    3MOL    H82  366   4.919   4.750   1.603 -2.3123  0.8247 -0.7609
    3MOL    H83  367   5.034   4.838   1.722 -1.7499  1.6741 -1.3391
    3MOL    H84  368   4.936   4.687   1.896  1.5069 -0.3961  0.6014
    3MOL    H85  369   4.779   4.635   1.722 -0.0866 -0.9333 -0.0222
    3MOL    C86  370   5.079   4.575   1.781  1.0478 -0.0995 -0.3060
    3MOL    C87  371   5.091   4.447   1.863  0.3132  0.5104 -1.0626
    3MOL    O88  372   5.230   4.405   1.852 -0.4439  0.2131  0.4315
    3MOL    H89  373   5.094   4.528   1.684  5.1330  0.2251  0.1057
    3MOL    H90  374   5.162   4.642   1.801  0.3151  0.3519  1.3051
    3MOL    H91  375   5.017   4.380   1.818 -1.0805  1.0582  0.3453
    3MOL    H92  376   5.286   4.481   1.846 -0.2483 -0.1421 -3.2219
    3MOL    C93  377   5.057   4.466   2.019 -0.4518  0.4556  0.2707
    3MOL    C94  378   5.083   4.332   2.104  0.5459 -0.8008 -0.4150
    3MOL    O95  379   5.044   4.371   2.237 -0.4426 -0.0380  0.3116
    3MOL    H96  380   5.118   4.553   2.046  0.5022 -0.7527  2.1075
    3MOL    H97  381   4.954   4.491   2.042 -1.0269 -3.3831  2.1691
    3MOL    H98  382   5.191   4.326   2.115  0.3705  1.9285  4.2981
    3MOL    H99  383   5.071   4.461   2.246  0.1588 -0.1743 -0.0866
    3MOL   C100  384   5.015   4.207   2.057 -0.1270  0.0775 -0.4193
    3MOL   C101  385   5.059   4.072   2.115 -0.0371 -0.2528  0.2266
    3MOL   O102  386   4.964   3.983   2.080 -0.2785 -0.0935  0.0123
    3MOL   H103  387   4.911   4.231   2.080 -0.2100 -0.1217 -0.5898
    3MOL   H104  388   5.029   4.200   1.949  2.7240 -0.5068 -0.0494
    3MOL   H105  389   5.067   4.061   2.223 -0.6741  2.5420  0.6049
    3MOL   H106  390   5.002   3.900   2.105  1.5027  0.0532 -2.0962
    3MOL   C107  391   5.193   4.031   2.055  0.3477  0.4893 -0.0437
    3MOL   C108  392   5.277   3.933   2.142  0.1412 -0.2527  0.7001
    3MOL   O109  393   5.197   3.820   2.160 -0.2902 -0.1349 -0.0622
    3MOL   H110  394   5.173   3.991   1.956  0.5425 -2.7725  1.1678
    3MOL   H111  395   5.258   4.118   2.046  0.4353  0.6978  2.3274
    3MOL   H112  396   5.304   3.961   2.244 -0.0738 -0.5364  0.8345
    3MOL   H113  397   5.224   3.779   2.241 -1.1896  0.3006  0.4691
    3MOL   C114  398   5.408   3.895   2.064 -0.1612 -0.4761  0.2454
    3MOL   C115  399   5.512   3.826   2.157 -0.3970 -0.2920 -0.0662
    3MOL   O116  400   5.470   3.697   2.177 -0.2808 -0.3678 -0.0545
    3MOL   H117  401   5.393   3.837   1.973  0.2013 -0.0205 -0.1019
    3MOL   H118  402   5.456   3.978   2.013 -1.2965  0.0667  0.0736
    3MOL   H119  403   5.522   3.880   2.251  2.3385  1.1538 -1.1330
    3MOL   H120  404   5.435   3.682   2.263  1.0345 -1.5448  0.2963
    3MOL   C121  405   5.653   3.814   2.097  0.4863  0.1188 -0.3513
    3MOL   C122  406   5.764   3.828   2.201 -0.2998 -0.7382  0.8593
    3MOL   O123  407   5.878   3.768   2.143 -0.2141  0.1090  0.2771
    3MOL   H124  408   5.652   3.719   2.044 -2.1893  0.7040 -1.4169
    3MOL   H125  409   5.673   3.878   2.011 -0.6425  0.3106 -0.4813
    3MOL   H126  410   5.747   3.781   2.298  0.6181 -0.2140  1.2883
    3MOL   H127  411   5.922   3.831   2.088  0.4163 -0.2718  0.3385
    3MOL   C128  412   5.805   3.975   2.233  0.1062 -0.7711  0.0069
    3MOL   C129  413   5.875   3.989   2.370  0.0639 -0.2193  0.8471
    3MOL   O130  414   5.973   4.093   2.370  0.4938 -0.4345  0.0069
    3MOL   H131  415   5.860   4.013   2.147  1.5823 -1.4890  0.6101
    3MOL   H132  416   5.718   4.039   2.246  0.1166 -0.8557  0.4881
    3MOL   H133  417   5.925   3.895   2.392  0.1177 -0.6135 -0.8335
    3MOL   H134  418   6.053   4.062   2.330 -0.2783  0.3732 -2.2000
    3MOL   C135  419   5.771   4.009   2.480 -0.5336  0.0195  0.4102
    3MOL   C136  420   5.831   3.990   2.616 -0.0623  1.0499  0.4004
    3MOL   O137  421   5.726   3.974   2.711 -0.0540 -0.1555 -0.6674
    3MOL   H138  422   5.741   4.114   2.478  1.6006  0.6439 -1.1699
    3MOL   H139  423   5.698   3.929   2.479 -1.2683  0.6207  2.5543
    3MOL   H140  424   5.903   4.069   2.635  0.0690  1.7744 -2.9079
    3MOL   H141  425   5.692   3.889   2.687  1.0019 -0.4785 -1.0548
    3MOL   H142  426   5.883   3.896   2.635 -0.8751  0.7499  1.2023
    4MOL     C1  427   1.947   2.412   0.585 -0.2529 -0.3893 -0.2188
    4MOL     C2  428   1.868   2.487   0.695 -0.4705 -0.0161 -0.0958
    4MOL     O3  429   1.765   2.564   0.630  0.1970 -0.0177 -0.1023
    4MOL     H4  430   1.872   2.355   0.531 -0.3065 -0.2041 -0.3413
    4MOL     H5  431   2.008   2.337   0.635 -1.8519 -1.5638 -0.0062
    4MOL     H6  432   1.941   2.560   0.731  0.8616 -1.1968 -0.3390
    4MOL     H7  433   1.729   2.609   0.705 -3.3631 -1.3678 -0.9038
    4MOL     H8  434   2.003   2.477   0.518 -2.0994  0.0298 -1.3810
    4MOL     C9  435   1.820   2.394   0.809 -0.2448 -1.0480 -0.0940
    4MOL    C10  436   1.707   2.292   0.778 -0.4676 -0.2855 -0.3531
    4MOL    O11  437   1.720   2.193   0.879  0.6705  0.1894 -0.3919
    4MOL    H12  438   1.913   2.347   0.840  0.6879  0.3963 -0.6187
    4MOL    H13  439   1.782   2.444   0.898  1.1890  1.3588 -0.7756
    4MOL    H14  440   1.729   2.233   0.689 -0.3817  0.3927 -0.7852
    4MOL    H15  441   1.807   2.159   0.862 -0.3298 -1.0338 -3.5238
    4MOL    C16  442   1.570   2.354   0.762  0.0900  0.4867  1.0152
    4MOL    C17  443   1.449   2.250   0.738  0.3474 -0.1714  0.4624
    4MOL    O18  444   1.328   2.328   0.743 -0.1936 -0.1721 -0.4090
    4MOL    H19  445   1.550   2.416   0.849 -2.7597  1.9562 -0.6175
    4MOL    H20  446   1.562   2.411   0.669 -0.8153 -2.8699 -1.0997
    4MOL    H21  447   1.444   2.182   0.823 -0.1741  0.5243  0.9907
    4MOL    H22  448   1.268   2.287   0.804  0.9390  0.9807  1.5289
    4MOL    C23  449   1.449   2.181   0.597  0.1198 -0.5004 -0.2230
    4MOL    C24  450   1.408   2.029   0.606 -0.4020  0.4244  0.3348
    4MOL    O25  451   1.291   2.003   0.674  0.7615  0.1983  0.4343
    4MOL    H26  452   1.377   2.224   0.527  1.1533 -1.7305 -2.0896
    4MOL    H27  453   1.550   2.192   0.558 -0.2653 -1.4498 -1.5436
    4MOL    H28  454   1.483   1.977   0.665 -1.9870 -2.9520 -0.5103
    4MOL    H29  455   1.218   2.019   0.616  0.2580 -0.4466  0.8760
    4MOL    C30  456   1.397   1.968   0.474  0.0136 -0.6729  0.7659
    4MOL    C31  457   1.530   1.933   0.403  0.2856  0.0484  0.0374
    4MOL    O32  458   1.592   2.048   0.359  0.1203  0.0286  0.1284
    4MOL    H33  459   1.342   1.874   0.483  1.2772 -1.3162  1.8974
    4MOL    H34  460   1.331   2.025   0.408 -1.2311  1.4695  3.7476
    4MOL    H35  461   1.514   1.876   0.312 -0.9717 -0.0828  0.3376
    4MOL    H36  462   1.527   2.102   0.316 -0.0538  1.7162  2.4145
    4MOL    C37  463   1.628   1.856   0.485  0.9768 -0.2735 -0.0362
    4MOL    C38  464   1.580   1.721   0.557 -0.0628 -0.1160  0.2355
    4MOL    O39  465   1.540   1.639   0.453  0.4774  0.4828 -0.5694
    4MOL    H40  466   1.712   1.837   0.418 -0.5901  0.3955 -2.2740
    4MOL    H41  467   1.662   1.924   0.562 -1.0439 -0.2828  0.9055
    4MOL    H42  468   1.489   1.745   0.612 -0.5525 -2.6186  0.5439
    4MOL    H43  469   1.616   1.614   0.403 -0.8617 -1.2790 -1.7844
    4MOL    C44  470   1.687   1.651   0.641  0.1527 -0.0578  0.1575
    4MOL    C45  471   1.727   1.720   0.773 -0.6600 -0.2571  0.1082
    4MOL    O46  472   1.649   1.657   0.874 -0.2885  0.3888 -0.4127
    4MOL    H47  473   1.672   1.545   0.658  4.0497 -0.4872  1.5366
    4MOL    H48  474   1.777   1.638   0.581  0.2757 -0.3784  0.4105
    4MOL    H49  475   1.685   1.820   0.767  2.9775  1.3435  0.2245
    4MOL    H50  476   1.566   1.703   0.880 -1.1155 -1.0291 -0.6282
    4MOL    C51  477   1.878   1.713   0.809 -0.4375 -0.3093 -0.9295
    4MOL    C52  478   1.978   1.780   0.719  0.2398  0.2374  0.1206
    4MOL    O53  479   1.948   1.921   0.717  0.6697 -0.1428 -0.2704
    4MOL    H54  480   1.893   1.740   0.913  1.0833  0.0104 -1.2176
    4MOL    H55  481   1.903   1.608   0.825  1.4945 -0.0105 -1.8736
    4MOL    H56  482   1.976   1.737   0.619  3.1269 -2.4884  1.1497
    4MOL    H57  483   1.969   1.962   0.635 -0.0425  0.1155 -0.3286
    4MOL    C58  484   2.124   1.760   0.764 -0.3070 -0.7973  0.0929
    4MOL    C59  485   2.234   1.809   0.661  0.1796 -0.7235 -0.2181
    4MOL    O60  486   2.351   1.813   0.737  0.0729 -0.7099  0.3393
    4MOL    H61  487   2.136   1.809   0.860  2.7470 -1.7830  0.2691
    4MOL    H62  488   2.142   1.655   0.788 -3.4145 -0.6027  3.6237
    4MOL    H63  489   2.212   1.912   0.632  0.8703 -0.9381 -1.5501
    4MOL    H64  490   2.364   1.736   0.790  0.4098 -0.0138  1.2904
    4MOL    C65  491   2.251   1.704   0.548 -0.3272 -0.3336  0.3622
    4MOL    C66  492   2.345   1.740   0.435  0.7031 -0.1102  0.3869
    4MOL    O67  493   2.364   1.620   0.359 -0.0373  0.1368  0.2153
    4MOL    H68  494   2.292   1.613   0.593  0.9751  0.9236  1.7336
    4MOL    H69  495   2.155   1.669   0.509 -0.9494  3.0966 -1.3398
    4MOL    H70  496   2.445   1.769   0.465  0.4380  0.2032  0.9800
    4MOL    H71  497   2.457   1.603   0.363  0.3109  2.2189  1.8282
    4MOL    C72  498   2.282   1.847   0.336  0.2171  0.6827 -0.0742
    4MOL    C73  499   2.323   1.990   0.377  0.2420 -0.0515  0.6665
    4MOL    O74  500   2.457   2.005   0.332  0.0238 -0.5638 -0.5893
    4MOL    H75  501   2.324   1.824   0.238  0.8295  0.4128  0.2446
    4MOL    H76  502   2.177   1.824   0.323  0.7027 -0.2808 -2.7003
    4MOL    H77  503   2.326   1.996   0.486 -0.9432 -0.3746  0.7234
    4MOL    H78  504   2.512   2.037   0.401 -1.6172 -0.8161  0.8622
    4MOL    C79  505   2.245   2.112   0.316 -0.7189  0.3499 -0.0720
    4MOL    C80  506   2.089   2.101   0.340  0.3982  0.1617  0.1436
    4MOL    O81  507   2.060   2.105   0.480 -0.7120 -0.1336 -0.2866
    4MOL    H82  508   2.276   2.203   0.369 -0.0008 -0.3715  0.7622
    4MOL    H83  509   2.257   2.113   0.208  0.9692 -0.0063  0.0941
    4MOL    H84  510   2.053   2.010   0.293 -0.6938  0.4668  0.3634
    4MOL    H85  511   2.107   2.177   0.518 -0.3176 -0.7153  0.3560
    4MOL    C86  512   2.014   2.215   0.264 -0.1834 -0.3941  0.6055
    4MOL    C87  513   2.036   2.232   0.113 -0.2003  0.0508  0.0978
    4MOL    O88  514   1.998   2.106   0.068  0.0539  0.1710 -0.0565
    4MOL    H89  515   1.910   2.202   0.291 -0.9220 -1.1685 -2.4282
    4MOL    H90  516   2.040   2.310   0.312 -1.5919  0.5296 -0.4170
    4MOL    H91  517   2.138   2.243   0.075 -0.8164  1.7706 -1.1205
    4MOL    H92  518   1.980   2.115   7.495  0.9035  0.8322 -0.1627
    4MOL    C93  519   1.943   2.334   0.048  0.5074 -0.8051  0.1759
    4MOL    C94  520   1.970   2.353   7.416 -0.2719 -0.2768  0.8327
    4MOL    O95  521   1.947   2.223   7.351  0.7387 -0.1200 -0.9085
    4MOL    H96  522   1.839   2.305   0.061  0.3783 -0.9439 -1.0645
    4MOL    H97  523   1.941   2.432   0.096  0.3127  0.2605 -1.9215
    4MOL    H98  524   2.072   2.391   7.410 -0.1963  0.0399  3.4630
    4MOL    H99  525   1.859   2.192   7.367  1.6439 -1.9547  0.6733
    4MOL   C100  526   1.869   2.449   7.347 -0.5560 -0.3816  0.2179
    4MOL   C101  527   1.883   2.455   7.197 -0.0061 -0.2518  0.3336
    4MOL   O102  528   1.776   2.537   7.160 -0.7971  0.3868  0.3678
    4MOL   H103  529   1.770   2.422   7.384  0.5061 -2.4067  1.7457
    4MOL   H104  530   1.894   2.547   7.386 -0.8186 -0.1055 -0.3101
    4MOL   H105  531   1.870   2.354   7.158  2.3021  0.3509 -2.1732
    4MOL   H106  532   1.813   2.572   7.080 -0.7570 -1.0110 -0.2427
    4MOL   C107  533   2.019   2.511   7.148 -0.2442 -0.5566 -0.4355
    4MOL   C108  534   2.028   2.533   6.994 -0.1029  0.5795 -0.2995
    4MOL   O109  535   1.927   2.632   6.956 -0.2203  0.2400 -0.0870
    4MOL   H110  536   2.030   2.614   7.183  0.5769 -0.6505 -0.4185
    4MOL   H111  537   2.094   2.437   7.176  1.1282 -0.6177 -4.0201
    4MOL   H112  538   2.014   2.440   6.939 -1.0037  1.2374 -1.1990
    4MOL   H113  539   1.912   2.639   6.863  1.1595 -3.6838 -0.6923
    4MOL   C114  540   2.159   2.595   6.941 -0.4008 -0.1918  0.4202
    4MOL   C115  541   2.275   2.492   6.915  0.0947 -0.4471  0.0186
    4MOL   O116  542   2.349   2.546   6.806 -0.1181 -0.3267 -0.5133
    4MOL   H117  543   2.138   2.638   6.843  0.4730 -2.2924 -0.7307
    4MOL   H118  544   2.186   2.680   7.003 -0.5608 -0.5023  0.9155
    4MOL   H119  545   2.231   2.397   6.887 -3.7688  0.5209  2.4927
    4MOL   H120  546   2.363   2.637   6.828 -2.0675  0.6330 -2.9791
    4MOL   C121  547   2.368   2.476   7.037  0.3703  0.2718 -0.2763
    4MOL   C122  548   2.463   2.359   7.014 -0.1666 -0.5581  0.0359
    4MOL   O123  549   2.554   2.401   6.917  0.3830  0.7472 -0.2466
    4MOL   H124  550   2.415   2.569   7.070 -1.1348  0.5148  1.2536
    4MOL   H125  551   2.306   2.450   7.122  0.8005  1.2986  0.3587
    4MOL   H126  552   2.402   2.279   6.973  1.0821 -1.8916  0.7564
    4MOL   H127  553   2.510   2.453   6.851  1.2492  2.1689  0.2607
    4MOL   C128  554   2.534   2.315   7.143 -0.5347 -0.0628 -0.0013
    4MOL   C129  555   2.445   2.261   7.263 -0.1767  0.2314  1.1713
    4MOL   O130  556   2.342   2.181   7.216 -0.0512 -0.1238 -0.2289
    4MOL   H131  557   2.605   2.242   7.106 -0.1527  0.8087 -1.0268
    4MOL   H132  558   2.589   2.394   7.195 -0.0116  0.0790 -0.7732
    4MOL   H133  559   2.400   2.341   7.322 -1.4332 -0.6388  1.4055
    4MOL   H134  560   2.376   2.095   7.194  0.2546  0.1196 -0.7242
    4MOL   C135  561   2.535   2.184   7.361  0.3201  0.1072  0.2548
    4MOL   C136  562   2.456   2.144   7.490  0.3230  0.6239 -0.8240
    4MOL   O137  563   2.550   2.092   0.070  0.2373 -0.5551 -0.0453
    4MOL   H138  564   2.574   2.092   7.318 -0.7549 -0.0089 -0.4750
    4MOL   H139  565   2.617   2.243   7.403  0.3806 -2.0520  3.3767
    4MOL   H140  566   2.374   2.078   7.463  1.1563 -0.9086  0.3575
    4MOL   H141  567   2.502   2.054   0.143 -1.5858  0.9274 -0.4480
    4MOL   H142  568   2.406   2.227   0.020  3.4027  0.5608  2.5522
    5MOL     C1  569   0.480   2.517   6.050  0.2843  0.1266  0.0923
    5MOL     C2  570   0.568   2.425   6.137 -0.0876  0.0534 -0.5261
    5MOL     O3  571   0.583   2.485   6.266 -0.4159  0.1604  0.1819
    5MOL     H4  572   0.523   2.611   6.016  1.1965  0.3936  1.9178
    5MOL     H5  573   0.396   2.545   6.113 -0.0667 -1.7932  0.5152
    5MOL     H6  574   0.668   2.427   6.093  0.4435  2.8127  0.7293
    5MOL     H7  575   0.641   2.559   6.251 -1.0712  0.4336 -1.0484
    5MOL     H8  576   0.446   2.467   5.960 -1.1277 -0.1493  0.7651
    5MOL     C9  577   0.529   2.278   6.157  0.5951 -0.9636 -0.8183
    5MOL    C10  578   0.564   2.190   6.037 -0.0675 -0.2720  0.5340
    5MOL    O11  579   0.708   2.175   6.033 -0.1694  0.0137 -0.1670
    5MOL    H12  580   0.572   2.242   6.250 -0.6852 -1.3852 -0.3836
    5MOL    H13  581   0.424   2.286   6.185  0.5925 -3.9090  0.1477
    5MOL    H14  582   0.525   2.235   5.945  0.3309 -0.4946  0.2550
    5MOL    H15  583   0.723   2.116   6.106  0.1931 -0.1178 -0.3481
    5MOL    C16  584   0.503   2.043   6.059  0.1183  0.2101  0.1143
    5MOL    C17  585   0.359   2.030   6.000  0.1728 -0.2487  0.5605
    5MOL    O18  586   0.362   1.996   5.860  0.2860  0.1566 -0.5159
    5MOL    H19  587   0.566   1.962   6.021 -0.3405  0.1835 -0.5896
    5MOL    H20  588   0.492   2.028   6.167  1.1533 -1.2826  0.0202
    5MOL    H21  589   0.302   2.120   6.021  2.6134  1.6073 -0.5194
    5MOL    H22  590   0.453   1.976   5.845  0.7454  0.4244  1.6900
    5MOL    C23  591   0.267   1.927   6.069  0.3063 -0.2019 -0.0617
    5MOL    C24  592   0.206   1.979   6.207 -0.0826 -0.0179 -0.0682
    5MOL    O25  593   0.065   1.984   6.203  0.4033  0.0320 -0.2001
    5MOL    H26  594   0.183   1.899   6.005  0.3786  1.4889 -0.9253
    5MOL    H27  595   0.329   1.838   6.075 -0.2760 -0.6296 -0.3222
    5MOL    H28  596   0.248   2.076   6.231  0.1936 -0.3032  0.6158
    5MOL    H29  597   0.030   2.065   6.239 -0.6092 -1.3920  2.0895
    5MOL    C30  598   0.247   1.894   6.334 -0.1574 -0.0391 -0.0267
    5MOL    C31  599   0.241   1.982   6.464  0.0326  0.4783  0.6103
    5MOL    O32  600   0.233   1.894   6.576  0.4671  0.1853  0.0585
    5MOL    H33  601   0.179   1.809   6.338 -1.1665  0.6788 -1.5891
    5MOL    H34  602   0.341   1.842   6.321  0.9852  1.8491  0.4018
    5MOL    H35  603   0.153   2.045   6.465  0.9844  1.8371 -0.0488
    5MOL    H36  604   0.173   1.824   6.554  0.9978 -0.5827  1.0317
    5MOL    C37  605   0.362   2.063   6.499  0.6021 -0.0153 -0.2402
    5MOL    C38  606   0.363   2.138   6.638  0.3943 -0.1901  0.2055
    5MOL    O39  607   0.485   2.189   6.677 -0.2527 -0.0142  0.2323
    5MOL    H40  608   0.456   2.010   6.488  0.2453 -0.8419  0.6320
    5MOL    H41  609   0.369   2.141   6.423  0.4013  2.2752  1.9799
    5MOL    H42  610   0.344   2.062   6.714 -0.0896 -1.1253 -0.8289
    5MOL    H43  611   0.527   2.233   6.604  0.0482  1.8070  1.4612
    5MOL    C44  612   0.264   2.250   6.641 -0.3868 -0.1583  0.2701
    5MOL    C45  613   0.291   2.359   6.536  0.2615 -0.0617  0.0609
    5MOL    O46  614   0.232   2.328   6.417  0.6194  0.3395  0.0447
    5MOL    H47  615   0.163   2.210   6.635 -0.1818 -0.3833 -1.8762
    5MOL    H48  616   0.279   2.288   6.743 -1.2804 -0.1625  0.4078
    5MOL    H49  617   0.396   2.388   6.532  1.3749 -3.6624  1.1030
    5MOL    H50  618   0.240   2.405   6.363  1.9793 -1.3022 -2.2002
    5MOL    C51  619   0.231   2.493   6.577  0.5183  0.1440  0.1522
    5MOL    C52  620   0.273   2.615   6.485 -0.1521  0.3425 -0.1577
    5MOL    O53  621   0.217   2.606   6.357 -0.0123 -0.6879  0.0837
    5MOL    H54  622   0.123   2.473   6.579  0.5444 -0.6767 -3.1382
    5MOL    H55  623   0.269   2.510   6.677  0.5067 -0.2143  0.2187
    5MOL    H56  624   0.381   2.611   6.480 -0.1043  1.1201  0.1550
    5MOL    H57  625   0.221   2.694   6.324  0.3811 -0.4795  0.6774
    5MOL    C58  626   0.221   2.743   6.559 -0.5367 -0.0769 -0.2307
    5MOL    C59  627   0.274   2.880   6.509 -0.5990 -1.0559 -0.0305
    5MOL    O60  628   0.214   2.903   6.386  0.4079 -0.1828  0.4438
    5MOL    H61  629   0.113   2.743   6.566 -0.5208  0.6185  0.0499
    5MOL    H62  630   0.248   2.734   6.664  0.3011 -1.8391 -0.5791
    5MOL    H63  631   0.381   2.876   6.492 -0.6860  2.5377 -1.9136
    5MOL    H64  632   0.244   2.986   6.351  1.0550 -0.3159  0.6652
    5MOL    C65  633   0.243   2.996   6.610  0.3022 -0.1539 -0.3308
    5MOL    C66  634   0.324   2.995   6.736  0.1610  0.7742  0.1837
    5MOL    O67  635   0.456   3.032   6.698  0.2384  0.2463 -0.9096
    5MOL    H68  636   0.251   3.091   6.557 -0.7593  0.5577  0.7565
    5MOL    H69  637   0.137   2.991   6.635 -0.1180  3.0953 -1.2348
    5MOL    H70  638   0.310   2.902   6.792  0.4120 -0.5783 -1.9492
    5MOL    H71  639   0.500   2.955   6.665 -0.0228  0.3126 -1.4212
    5MOL    C72  640   0.274   3.107   6.833  0.4327  0.2552  0.2232
    5MOL    C73  641   0.137   3.086   6.897 -0.0092  0.0289 -0.1507
    5MOL    O74  642   0.142   2.968   6.975  0.0365 -0.1839 -0.4699
    5MOL    H75  643   0.337   3.113   6.922  0.4544  0.6268  0.1814
    5MOL    H76  644   0.281   3.203   6.782  1.4369 -0.1017 -0.3087
    5MOL    H77  645   0.068   3.080   6.812  0.6566 -2.4187 -0.5654
    5MOL    H78  646   0.061   2.920   6.965 -0.4224  0.3669  0.4781
    5MOL    C79  647   0.092   3.204   6.988 -0.1149  0.4214 -0.3209
    5MOL    C80  648   0.042   3.322   6.900  0.6162  0.1875  0.5601
    5MOL    O81  649   7.438   3.289   6.840 -0.2560  0.1135 -0.8061
    5MOL    H82  650   0.017   3.169   7.059  1.0193  1.2116  1.3045
    5MOL    H83  651   0.175   3.234   7.052  1.7188 -0.4464 -2.2428
    5MOL    H84  652   0.093   3.342   6.806  0.9051  1.3652  0.9562
    5MOL    H85  653   7.406   3.369   6.800 -0.9752 -1.1542 -2.8386
    5MOL    C86  654   0.026   3.453   6.974  1.3314  0.3560 -0.4803
    5MOL    C87  655   0.166   3.523   6.992  0.0721 -0.1396 -0.3066
    5MOL    O88  656   0.252   3.516   6.882  0.1949 -0.4006  0.3966
    5MOL    H89  657   7.469   3.509   6.920 -0.3053  0.2441  1.6436
    5MOL    H90  658   7.493   3.444   7.070  0.7841 -1.5865 -0.9449
    5MOL    H91  659   0.220   3.466   7.068  2.1916  1.5916 -0.4794
    5MOL    H92  660   0.342   3.497   6.905  1.1910  0.8288 -2.1669
    5MOL    C93  661   0.168   3.674   7.038 -0.0047  0.7221  0.1812
    5MOL    C94  662   0.076   3.774   6.966  0.1231  0.4427 -0.0852
    5MOL    O95  663   0.091   3.887   7.048 -0.3393 -0.5417  0.3884
    5MOL    H96  664   0.141   3.666   7.143 -0.8892 -3.8085 -0.2638
    5MOL    H97  665   0.268   3.715   7.046  0.0431  0.9583 -1.3744
    5MOL    H98  666   7.490   3.751   6.973 -0.0577  0.8426 -1.2859
    5MOL    H99  667   0.150   3.947   7.004  0.3573 -1.0673  0.6068
    5MOL   C100  668   0.116   3.806   6.817  0.8531 -0.1712 -0.0637
    5MOL   C101  669   0.040   3.714   6.722  0.5688 -0.2799 -0.3566
    5MOL   O102  670   7.423   3.748   6.714 -0.1524  0.1323 -0.5387
    5MOL   H103  671   0.096   3.912   6.801 -0.7613 -0.3642  0.5547
    5MOL   H104  672   0.224   3.788   6.817  0.6401 -1.5018  0.5364
    5MOL   H105  673   0.051   3.612   6.759 -1.9387 -0.0216  1.2444
    5MOL   H106  674   7.428   3.834   6.674  1.4601  0.2278 -0.1879
    5MOL   C107  675   0.108   3.707   6.582  0.3550 -0.3891 -0.3697
    5MOL   C108  676   0.036   3.618   6.475  0.6452 -0.2511  0.3937
    5MOL   O109  677   0.073   3.669   6.347  0.1443  0.5279 -0.3234
    5MOL   H110  678   0.116   3.808   6.541 -1.9891  0.2989  0.8056
    5MOL   H111  679   0.212   3.680   6.600 -0.8743 -3.2233  3.0526
    5MOL   H112  680   7.449   3.637   6.490  0.5786  0.2778 -0.6582
    5MOL   H113  681   0.159   3.636   6.324  0.0345 -0.8388  1.1185
    5MOL   C114  682   0.057   3.469   6.481  0.1779 -0.1630 -0.3797
    5MOL   C115  683   7.452   3.391   6.444 -0.0262 -0.6029  0.2287
    5MOL   O116  684   7.436   3.405   6.301  0.3457  0.0173 -0.2738
    5MOL   H117  685   0.152   3.442   6.436 -0.1753 -1.1364 -0.5518
    5MOL   H118  686   0.076   3.456   6.588  0.5118 -0.8197 -0.5149
    5MOL   H119  687   7.359   3.427   6.488 -0.2192 -0.0027 -0.6520
    5MOL   H120  688   7.464   3.495   6.288 -0.1418  0.3417  0.7894
    5MOL   C121  689   7.472   3.242   6.483 -0.5619 -0.3046 -0.0017
    5MOL   C122  690   7.347   3.161   6.493 -0.8281 -0.4550 -0.2561
    5MOL   O123  691   7.293   3.150   6.364  0.2446  0.6728 -0.8765
    5MOL   H124  692   0.018   3.186   6.416  0.4193 -1.6804  2.0782
    5MOL   H125  693   0.002   3.234   6.579 -1.8047 -0.3149  0.6427
    5MOL   H126  694   7.274   3.211   6.558  1.3414  0.8223  1.2754
    5MOL   H127  695   7.340   3.218   6.317  0.3824  1.0186 -0.2372
    5MOL   C128  696   7.377   3.025   6.557  0.3947 -0.7860  0.4809
    5MOL   C129  697   7.260   2.918   6.554 -0.5594  0.2398 -0.5194
    5MOL   O130  698   7.322   2.797   6.604  0.3828 -0.1347 -0.0205
    5MOL   H131  699   7.461   2.976   6.507 -0.6278 -2.6534  0.5399
    5MOL   H132  700   7.402   3.046   6.661  0.3131  1.9427 -0.0027
    5MOL   H133  701   7.241   2.898   6.448 -0.8437 -0.1452 -0.3964
    5MOL   H134  702   7.298   2.724   6.549 -0.5820  0.1551  0.0041
    5MOL   C135  703   7.142   2.951   6.642 -0.0123 -0.1451 -0.2671
    5MOL   C136  704   7.025   2.856   6.625 -0.3498  1.1639 -0.0321
    5MOL   O137  705   6.974   2.868   6.490  0.2703 -0.0114 -0.2859
    5MOL   H138  706   7.176   2.951   6.745 -0.5485 -1.3741 -0.0782
    5MOL   H139  707   7.116   3.048   6.601 -0.4971 -0.6301 -1.1271
    5MOL   H140  708   6.951   2.886   6.699 -0.8815  1.3167 -0.6151
    5MOL   H141  709   7.002   2.797   6.434 -1.4615  0.8190 -2.2590
    5MOL   H142  710   7.052   2.753   6.648  2.0924  1.8941  0.5389
    6MOL     C1  711   3.952   4.795   1.449 -0.1205  0.1386  0.1783
    6MOL     C2  712   3.934   4.828   1.602  0.3608  0.1860  0.2846
    6MOL     O3  713   4.030   4.767   1.674 -0.8956 -0.5394  0.5941
    6MOL     H4  714   3.999   4.698   1.439  1.9445  0.9534  1.5622
    6MOL     H5  715   4.002   4.865   1.382  0.8259 -0.1446  0.5748
    6MOL     H6  716   3.840   4.787   1.638 -0.7594  1.9577 -0.5404
    6MOL     H7  717   4.108   4.795   1.629 -2.7078  2.0197 -1.0941
    6MOL     H8  718   3.850   4.793   1.411  0.3478  1.5208 -1.2137
    6MOL     C9  719   3.910   4.984   1.623  0.1454 -0.0339  0.4740
    6MOL    C10  720   3.850   5.020   1.768  0.2424 -0.5503  0.1717
    6MOL    O11  721   3.836   5.158   1.788  0.2779 -0.4266 -0.0664
    6MOL    H12  722   4.003   5.040   1.608  0.3849 -0.8846 -1.3661
    6MOL    H13  723   3.835   5.021   1.554 -0.7521  0.9645  1.9603
    6MOL    H14  724   3.925   4.982   1.838  0.1605 -1.0716 -0.0204
    6MOL    H15  725   3.918   5.198   1.766 -0.5268  1.2831 -0.0327
    6MOL    C16  726   3.706   4.950   1.788 -0.5070 -0.1673  0.0775
    6MOL    C17  727   3.647   4.956   1.929  0.7143 -0.8668  0.1729
    6MOL    O18  728   3.529   4.875   1.930 -0.7346 -0.7529  0.1991
    6MOL    H19  729   3.634   5.000   1.725 -0.0925  0.6741  0.2668
    6MOL    H20  730   3.699   4.844   1.761 -1.5065  0.0602 -0.5508
    6MOL    H21  731   3.625   5.062   1.944 -2.2821 -1.2338 -1.3313
    6MOL    H22  732   3.463   4.898   1.867  3.3018  1.1252 -3.5716
    6MOL    C23  733   3.751   4.906   2.032 -0.5062  0.2034  0.0707
    6MOL    C24  734   3.714   4.917   2.181  0.6230  0.2626  0.2265
    6MOL    O25  735   3.591   4.847   2.202 -0.2964 -0.4934 -0.4754
    6MOL    H26  736   3.761   4.801   2.003 -0.1507  0.2519  0.0118
    6MOL    H27  737   3.850   4.952   2.031 -0.8682  1.0797  1.9497
    6MOL    H28  738   3.683   5.019   2.204 -2.2898 -1.2062  3.1738
    6MOL    H29  739   3.553   4.862   2.117  1.7095  1.2548 -1.1198
    6MOL    C30  740   3.826   4.864   2.265  0.9047  0.4854 -0.0773
    6MOL    C31  741   3.802   4.881   2.421  0.1600  0.0096  0.5721
    6MOL    O32  742   3.925   4.844   2.475  0.1638 -0.7165  0.6967
    6MOL    H33  743   3.841   4.759   2.244 -0.5793  0.0254  1.0319
    6MOL    H34  744   3.919   4.914   2.238  0.5951  0.5194 -1.0892
    6MOL    H35  745   3.721   4.816   2.455 -1.5553  1.3088 -0.9458
    6MOL    H36  746   3.965   4.775   2.424 -0.5729 -0.9239  0.3787
    6MOL    C37  747   3.766   5.034   2.458 -0.9017 -0.0290 -0.1738
    6MOL    C38  748   3.785   5.082   2.600 -0.5061  0.2436  0.1351
    6MOL    O39  749   3.924   5.070   2.621  0.7233  0.3090 -0.6719
    6MOL    H40  750   3.828   5.095   2.393 -1.2601 -0.7186 -1.1872
    6MOL    H41  751   3.667   5.055   2.417 -0.4196 -0.2654 -1.4916
    6MOL    H42  752   3.738   5.010   2.667  1.0248 -0.0612  0.8975
    6MOL    H43  753   3.945   4.998   2.564  0.4938 -0.1901 -0.1298
    6MOL    C44  754   3.749   5.224   2.643  0.0937  0.8967 -0.6741
    6MOL    C45  755   3.717   5.242   2.794 -0.5343 -0.0351 -0.4537
    6MOL    O46  756   3.687   5.382   2.784  0.2736  0.0042 -0.1475
    6MOL    H47  757   3.818   5.300   2.606  1.2892 -0.0033 -0.3375
    6MOL    H48  758   3.658   5.253   2.591  0.1852  0.4006 -1.1159
    6MOL    H49  759   3.809   5.224   2.851 -1.2521 -0.9158  0.4443
    6MOL    H50  760   3.678   5.407   2.874  0.1999 -1.4970  0.2768
    6MOL    C51  761   3.601   5.160   2.857  0.2325 -0.4263 -0.1542
    6MOL    C52  762   3.566   5.177   3.003  0.3023 -0.0847  0.1014
    6MOL    O53  763   3.452   5.090   3.022 -0.0700 -0.1616 -0.5954
    6MOL    H54  764   3.512   5.172   2.796  0.2390  0.2294 -0.0342
    6MOL    H55  765   3.622   5.055   2.837 -0.0509 -0.5937  0.4150
    6MOL    H56  766   3.538   5.278   3.032  3.1308  0.5318  0.8166
    6MOL    H57  767   3.444   5.037   2.944 -1.6198 -0.8227 -0.0091
    6MOL    C58  768   3.675   5.120   3.099  0.3256  0.3096 -0.5246
    6MOL    C59  769   3.667   5.181   3.233  0.1072 -0.2059  0.0394
    6MOL    O60  770   3.535   5.166   3.290  0.0408 -0.3802 -0.1627
    6MOL    H61  771   3.673   5.011   3.102  1.5634  0.2679 -0.8519
    6MOL    H62  772   3.772   5.144   3.056  0.1303  0.0513 -1.1287
    6MOL    H63  773   3.671   5.290   3.226 -0.2603 -0.0840  1.5018
    6MOL    H64  774   3.477   5.155   3.216  0.3399 -3.4970 -0.0287
    6MOL    C65  775   3.769   5.112   3.324  0.5514 -0.2296 -0.0441
    6MOL    C66  776   3.778   5.168   3.463 -0.0874 -0.4338 -0.0162
    6MOL    O67  777   3.857   5.082   3.543  0.3823  0.5820 -0.2228
    6MOL    H68  778   3.747   5.006   3.334 -0.0327 -0.2516 -1.4482
    6MOL    H69  779   3.869   5.119   3.281  0.1078  2.3884 -0.7175
    6MOL    H70  780   3.680   5.174   3.510  0.5669  1.7403  1.1345
    6MOL    H71  781   3.803   5.004   3.541 -0.9122  1.4118  1.1397
    6MOL    C72  782   3.838   5.313   3.464  0.2491 -0.4333 -0.3575
    6MOL    C73  783   3.788   5.403   3.577 -0.8840 -0.1137  0.2511
    6MOL    O74  784   3.860   5.528   3.588 -0.4637 -0.5582  0.3855
    6MOL    H75  785   3.947   5.310   3.473  0.1476  0.0562  1.1485
    6MOL    H76  786   3.829   5.371   3.372 -0.8738  0.8951  0.5497
    6MOL    H77  787   3.818   5.350   3.667  0.4302 -1.3435 -0.8846
    6MOL    H78  788   3.953   5.520   3.578 -0.5520 -0.9538 -0.1147
    6MOL    C79  789   3.639   5.422   3.594  0.0052 -0.1835 -0.4205
    6MOL    C80  790   3.601   5.541   3.688  0.2186  0.3247 -0.4624
    6MOL    O81  791   3.617   5.655   3.608 -0.3442 -0.1431  0.6424
    6MOL    H82  792   3.586   5.429   3.499 -1.9719 -0.4661  0.6378
    6MOL    H83  793   3.613   5.328   3.643 -0.8505  0.3351  0.1201
    6MOL    H84  794   3.661   5.536   3.779  0.5897  1.4969 -0.6353
    6MOL    H85  795   3.707   5.656   3.579 -1.0353  1.2017 -1.5884
    6MOL    C86  796   3.453   5.545   3.735 -0.6021  0.2174 -0.1256
    6MOL    C87  797   3.423   5.451   3.854 -1.0616  1.0294 -0.1677
    6MOL    O88  798   3.473   5.503   3.972 -0.7046 -0.3689  0.0417
    6MOL    H89  799   3.427   5.646   3.767  0.5488  0.4926 -0.0392
    6MOL    H90  800   3.393   5.511   3.650 -2.7873  0.2638  1.3591
    6MOL    H91  801   3.472   5.356   3.832 -1.8040  0.6375 -0.1449
    6MOL    H92  802   3.559   5.465   3.981 -0.7148 -0.1385  1.0889
    6MOL    C93  803   3.281   5.406   3.882 -0.4196 -0.1210 -0.6137
    6MOL    C94  804   3.175   5.519   3.909  0.2040  0.5271 -0.4875
    6MOL    O95  805   3.040   5.461   3.903  0.0821 -0.1963  0.2311
    6MOL    H96  806   3.245   5.338   3.804  0.1413 -0.4013 -0.6269
    6MOL    H97  807   3.283   5.336   3.965 -2.6656 -0.7626 -1.0750
    6MOL    H98  808   3.173   5.598   3.834 -2.4462  1.1296  0.1504
    6MOL    H99  809   2.984   5.520   3.952  0.8015  2.0631 -1.5623
    6MOL   C100  810   3.179   5.584   4.049 -0.3155  0.4005  1.1119
    6MOL   C101  811   3.085   5.706   4.088  0.6647  0.2190 -0.3060
    6MOL   O102  812   2.949   5.672   4.057  0.0983  0.1400  0.0246
    6MOL   H103  813   3.166   5.511   4.129  0.0197  0.4306  1.1932
    6MOL   H104  814   3.276   5.633   4.054  1.3575 -2.8582  1.7375
    6MOL   H105  815   3.123   5.783   4.021  0.4072 -0.0011 -0.7109
    6MOL   H106  816   2.894   5.736   4.100 -0.1326 -1.5801  2.3372
    6MOL   C107  817   3.085   5.762   4.234 -0.1110 -0.3690 -0.2459
    6MOL   C108  818   3.235   5.796   4.275  0.0554  0.0370  0.0804
    6MOL   O109  819   3.297   5.889   4.186  0.3833  0.9111 -0.1870
    6MOL   H110  820   3.030   5.856   4.231  2.3097  1.0686 -0.4693
    6MOL   H111  821   3.020   5.691   4.285  1.7128 -2.4790 -0.7667
    6MOL   H112  822   3.292   5.704   4.284  0.6036  0.4531  0.9534
    6MOL   H113  823   3.355   5.850   4.121 -1.6322  0.7542 -1.9546
    6MOL   C114  824   3.228   5.853   4.416  0.3784  0.5797 -0.1027
    6MOL   C115  825   3.201   5.735   4.524 -0.4058 -0.2455  0.1172
    6MOL   O116  826   3.319   5.654   4.538  0.0454  0.4274  0.6412
    6MOL   H117  827   3.325   5.901   4.428  0.2054  1.2980 -1.4739
    6MOL   H118  828   3.157   5.936   4.427  2.9145  2.7086  0.9935
    6MOL   H119  829   3.115   5.672   4.501  0.5845 -1.3342 -0.6927
    6MOL   H120  830   3.399   5.702   4.556 -0.0546  0.5292  0.8102
    6MOL   C121  831   3.161   5.794   4.659  0.4352  0.2249 -0.1367
    6MOL   C122  832   3.012   5.847   4.662  0.1150  0.1424  0.8717
    6MOL   O123  833   2.919   5.746   4.691 -0.5821  0.1563 -0.2559
    6MOL   H124  834   3.166   5.727   4.745 -0.7865  1.2125  0.7050
    6MOL   H125  835   3.221   5.885   4.664  3.0631 -1.3366 -1.7770
    6MOL   H126  836   2.979   5.886   4.566  2.2979  1.0614  0.4678
    6MOL   H127  837   2.875   5.734   4.608  1.1168  0.1443 -1.1828
    6MOL   C128  838   2.987   5.954   4.765  0.1983  0.1042  0.0345
    6MOL   C129  839   2.843   6.006   4.771  0.4832  0.1089 -0.7318
    6MOL   O130  840   2.834   6.088   4.888  0.5095 -0.8060 -0.0435
    6MOL   H131  841   3.020   5.924   4.864  0.6133 -2.8873 -0.9722
    6MOL   H132  842   3.054   6.036   4.739  1.6234 -0.9542  0.2958
    6MOL   H133  843   2.780   5.919   4.790  1.2424 -0.2607  0.1126
    6MOL   H134  844   2.915   6.135   4.897  0.3846 -0.4970 -0.4739
    6MOL   C135  845   2.782   6.084   4.646  0.4953  0.2415 -0.2701
    6MOL   C136  846   2.640   6.134   4.669  0.3022  0.1446  0.5354
    6MOL   O137  847   2.605   6.188   4.541  0.0929 -0.0094 -0.2333
    6MOL   H138  848   2.844   6.172   4.630  1.6463 -0.8226 -1.7599
    6MOL   H139  849   2.784   6.023   4.555  1.3229 -0.2968  0.1051
    6MOL   H140  850   2.647   6.211   4.746 -0.4052  2.4110 -1.6114
    6MOL   H141  851   2.648   6.272   4.533  0.1488  0.2264  2.1558
    6MOL   H142  852   2.574   6.057   4.709 -0.7422  0.2378 -0.9912
    7MOL     C1  853   6.420   7.322   1.339 -0.6138  0.3353  0.2796
    7MOL     C2  854   6.422   7.364   1.486 -0.2659 -0.0686 -0.3618
    7MOL     O3  855   6.538   7.438   1.507  0.2565 -0.0863 -0.2092
    7MOL     H4  856   6.388   7.410   1.284  0.3215  0.9187  0.6654
    7MOL     H5  857   6.353   7.237   1.326  0.7336 -0.6702 -0.1864
    7MOL     H6  858   6.437   7.270   1.540 -1.9724 -0.1796 -0.0629
    7MOL     H7  859   6.598   7.385   1.557 -0.2263  1.1081  1.6924
    7MOL     H8  860   6.518   7.289   1.305 -0.1287  1.5449  0.4983
    7MOL     C9  861   6.294   7.443   1.524  0.3654 -0.2131  0.0153
    7MOL    C10  862   6.269   7.441   1.674 -0.1641  0.3198 -0.2572
    7MOL    O11  863   6.244   7.313   1.729 -0.1249 -0.3845  0.4067
    7MOL    H12  864   6.293   0.024   1.482  0.9550 -0.1783  0.0792
    7MOL    H13  865   6.207   7.395   1.481 -0.3818  0.5074  0.7071
    7MOL    H14  866   6.170   7.483   1.693 -0.0770  1.7663 -2.7574
    7MOL    H15  867   6.166   7.275   1.690 -0.0745  0.7290 -0.8057
    7MOL    C16  868   6.359   7.516   1.774  0.0588  0.0347 -0.1505
    7MOL    C17  869   6.408   0.137   1.727  0.4189 -0.3146 -0.0666
    7MOL    O18  870   6.298   0.227   1.716 -0.1173 -0.4466 -0.5486
    7MOL    H19  871   6.299   0.025   1.860  2.0776  0.3342  1.1997
    7MOL    H20  872   6.438   7.442   1.785 -2.1317 -2.2785  0.3456
    7MOL    H21  873   6.451   0.127   1.628 -0.7266  1.1692 -0.7310
    7MOL    H22  874   6.245   0.227   1.795  2.8077 -0.2359  1.4799
    7MOL    C23  875   6.510   0.208   1.821  0.3567  0.3395  0.0071
    7MOL    C24  876   6.656   0.227   1.767  0.3274 -0.1186  0.3654
    7MOL    O25  877   6.691   0.357   1.805  0.3220  0.3175 -0.4911
    7MOL    H26  878   6.467   0.301   1.858 -0.8680 -0.6784  1.1989
    7MOL    H27  879   6.515   0.159   1.918  1.4240  0.1082 -0.1563
    7MOL    H28  880   6.666   0.213   1.659  0.9132 -1.9598  0.6307
    7MOL    H29  881   6.768   0.376   1.753  0.3279 -2.6473 -1.6750
    7MOL    C30  882   6.765   0.138   1.836  0.3314  0.0147  0.6079
    7MOL    C31  883   6.738   7.505   1.825  0.1046 -0.2597 -0.2128
    7MOL    O32  884   6.757   7.463   1.690  0.3635 -0.3526 -0.4797
    7MOL    H33  885   6.863   0.159   1.794 -0.4835 -0.2387 -1.4981
    7MOL    H34  886   6.774   0.166   1.941  0.4582 -1.8152  1.0952
    7MOL    H35  887   6.636   7.486   1.858  0.3944  1.6577  1.9262
    7MOL    H36  888   6.847   7.480   1.669  0.8232 -0.4193  1.4111
    7MOL    C37  889   6.839   7.415   1.896 -0.5685  0.8346  0.0101
    7MOL    C38  890   6.787   7.355   2.032  0.0826  0.2280  0.3058
    7MOL    O39  891   6.904   7.303   2.094 -0.2405 -0.4128 -0.2855
    7MOL    H40  892   6.884   7.344   1.827 -0.9568  1.0288 -0.4468
    7MOL    H41  893   6.928   7.474   1.918 -0.7291  2.1024 -2.5561
    7MOL    H42  894   6.713   7.279   2.006 -0.7992  1.6086 -1.3662
    7MOL    H43  895   6.883   7.271   2.180  1.9102 -0.1933  0.3558
    7MOL    C44  896   6.733   7.456   2.133 -0.5534  0.0194 -0.8563
    7MOL    C45  897   6.600   7.407   2.201  0.0517  0.5752 -0.5659
    7MOL    O46  898   6.568   7.511   2.288 -1.1135 -0.1118  0.3406
    7MOL    H47  899   6.810   7.475   2.207 -0.7484  1.6366 -1.0562
    7MOL    H48  900   6.706   0.031   2.086 -0.7316  0.1085 -0.5799
    7MOL    H49  901   6.608   7.321   2.267 -0.3160  0.8483 -0.1560
    7MOL    H50  902   6.577   7.487   2.379 -0.4828  1.8539  0.8251
    7MOL    C51  903   6.474   7.393   2.109  0.2440 -0.2634 -0.8572
    7MOL    C52  904   6.346   7.371   2.175  0.1668  0.1261 -0.0412
    7MOL    O53  905   6.234   7.389   2.082 -0.6961  0.1931  1.0985
    7MOL    H54  906   6.456   7.478   2.043  2.0705 -0.0570 -1.1094
    7MOL    H55  907   6.489   7.317   2.033  0.6407 -1.3033  0.2490
    7MOL    H56  908   6.322   7.453   2.243 -0.5318 -0.9354  1.0120
    7MOL    H57  909   6.258   7.353   1.997  0.7425  2.7897  0.3522
    7MOL    C58  910   6.331   7.247   2.264  0.2576  0.5753  0.4888
    7MOL    C59  911   6.223   7.261   2.367  0.2194 -0.2022  0.3388
    7MOL    O60  912   6.104   7.281   2.307 -0.5267  0.3283  0.2486
    7MOL    H61  913   6.309   7.168   2.193  1.4542 -0.1956  0.9719
    7MOL    H62  914   6.427   7.231   2.312  0.0144  1.1960  1.1962
    7MOL    H63  915   6.253   7.346   2.427  0.5647 -0.6836  0.8482
    7MOL    H64  916   6.118   7.367   2.268 -2.9820  1.0205  0.8108
    7MOL    C65  917   6.241   7.128   2.451  0.5361  0.2255  0.1608
    7MOL    C66  918   6.155   7.120   2.580  0.2149  0.0066 -0.1282
    7MOL    O67  919   6.018   7.140   2.544  0.1815  0.3453 -0.2765
    7MOL    H68  920   6.215   7.036   2.400  0.5397  0.9626 -1.1819
    7MOL    H69  921   6.347   7.109   2.472  0.0746 -1.8114  0.7538
    7MOL    H70  922   6.189   7.195   2.652  0.0341 -0.7767  0.7848
    7MOL    H71  923   6.025   7.209   2.479 -0.1378 -1.5561 -2.3853
    7MOL    C72  924   6.164   6.980   2.649 -0.6695  0.5110  0.4488
    7MOL    C73  925   6.102   6.959   2.789 -0.2100  0.5421 -0.7148
    7MOL    O74  926   6.093   6.824   2.808 -0.2607 -0.0585 -0.3240
    7MOL    H75  927   6.105   6.912   2.586  0.4109  0.6497 -0.7370
    7MOL    H76  928   6.266   6.943   2.658  0.0043  1.8056 -1.4812
    7MOL    H77  929   6.006   7.004   2.767  0.2739  1.8265 -0.2078
    7MOL    H78  930   6.182   6.800   2.831  0.1925  0.7646 -1.1962
    7MOL    C79  931   6.176   7.023   2.903 -0.9290 -0.1638  0.5767
    7MOL    C80  932   6.082   7.077   3.012 -0.4641  0.1075  0.5906
    7MOL    O81  933   6.019   7.193   2.962 -0.2605 -0.8142 -0.7402
    7MOL    H82  934   6.248   6.948   2.936 -1.4002 -1.5458 -1.4270
    7MOL    H83  935   6.235   7.105   2.862 -0.1107 -1.3557 -0.6834
    7MOL    H84  936   6.150   7.110   3.090  0.8579 -0.5374 -0.2612
    7MOL    H85  937   6.084   7.262   2.959 -1.8346  1.0055  2.8344
    7MOL    C86  938   5.965   6.990   3.069  0.2285 -0.4927  0.3118
    7MOL    C87  939   6.009   6.864   3.137  0.2040  0.0495  0.3273
    7MOL    O88  940   6.091   6.901   3.243 -0.1284 -0.4833  0.1852
    7MOL    H89  941   5.902   7.047   3.136 -2.6199 -4.1637  0.9497
    7MOL    H90  942   5.907   6.962   2.980 -0.6637  1.7274  0.1769
    7MOL    H91  943   6.069   6.807   3.065 -0.0346 -1.6749  1.4712
    7MOL    H92  944   6.044   6.949   3.311  0.7268 -1.2288  1.3269
    7MOL    C93  945   5.888   6.789   3.185 -0.2019  0.3332 -0.2189
    7MOL    C94  946   5.902   6.640   3.228  0.2194  0.0320 -0.3041
    7MOL    O95  947   5.951   6.564   3.118 -0.5194 -0.1028  0.6771
    7MOL    H96  948   5.851   6.841   3.273 -0.8578  1.1250 -0.9616
    7MOL    H97  949   5.803   6.795   3.118  1.3178  3.0509 -2.0035
    7MOL    H98  950   5.802   6.601   3.250 -0.1211 -0.2137 -2.1535
    7MOL    H99  951   5.877   6.558   3.060 -0.1833  1.1302  0.1097
    7MOL   C100  952   6.003   6.612   3.353 -0.4695 -0.5682 -0.5692
    7MOL   C101  953   6.001   6.469   3.396 -0.3025  0.2304 -0.8457
    7MOL   O102  954   6.108   6.437   3.478  0.2989 -0.0667  0.1345
    7MOL   H103  955   6.104   6.630   3.315  0.2561 -1.0962  1.0501
    7MOL   H104  956   5.985   6.683   3.433  0.1664 -1.3447  0.2700
    7MOL   H105  957   6.006   6.405   3.308  3.0469 -1.1441  0.2463
    7MOL   H106  958   6.092   6.472   3.564  0.5492 -0.2879  0.2699
    7MOL   C107  959   5.873   6.430   3.465 -0.1659  0.8062 -0.8305
    7MOL   C108  960   5.854   6.289   3.527 -0.7303 -0.2897  0.5765
    7MOL   O109  961   5.730   6.293   3.592 -0.0224  0.0877 -0.0886
    7MOL   H110  962   5.844   6.512   3.531 -2.5335 -1.2677  0.8202
    7MOL   H111  963   5.792   6.433   3.391 -1.3519 -2.2441  0.2565
    7MOL   H112  964   5.929   6.274   3.604 -1.3850  0.5181  1.3906
    7MOL   H113  965   5.685   6.375   3.582 -1.3535 -0.4928  0.9491
    7MOL   C114  966   5.864   6.187   3.419  0.0870  0.0124 -0.1346
    7MOL   C115  967   5.844   6.052   3.482 -0.0190  0.2578  0.1596
    7MOL   O116  968   5.709   6.040   3.518  0.3961  0.3486  0.1030
    7MOL   H117  969   5.785   6.205   3.345  0.6679  3.7073  0.0760
    7MOL   H118  970   5.958   6.199   3.365  0.5061 -0.1094  0.5735
    7MOL   H119  971   5.904   6.052   3.573 -0.6003 -2.6228  0.6100
    7MOL   H120  972   5.689   6.112   3.576 -2.2753 -1.6799  1.8103
    7MOL   C121  973   5.890   5.934   3.383 -0.4432  0.5058 -0.8916
    7MOL   C122  974   5.867   5.790   3.440 -0.4129  0.0705  0.2283
    7MOL   O123  975   5.903   5.795   3.578  0.0222 -0.1078 -0.1736
    7MOL   H124  976   5.846   5.948   3.285  2.4367 -0.9626 -2.4465
    7MOL   H125  977   5.995   5.945   3.358  0.4893 -2.6717  1.3504
    7MOL   H126  978   5.948   5.737   3.390 -0.3028  0.1173  0.3576
    7MOL   H127  979   5.860   5.872   3.611  1.4246  0.8683 -0.5999
    7MOL   C128  980   5.737   5.720   3.411  0.6957  0.3071 -0.1012
    7MOL   C129  981   5.751   5.593   3.325  0.4672  0.7978 -0.5843
    7MOL   O130  982   5.625   5.526   3.333 -0.1699 -1.0329  0.0966
    7MOL   H131  983   5.682   5.699   3.503 -1.0555  1.3921 -0.8900
    7MOL   H132  984   5.673   5.792   3.360  0.2349 -1.1078 -1.5559
    7MOL   H133  985   5.831   5.539   3.375  0.4857  0.7254 -0.6914
    7MOL   H134  986   5.639   5.437   3.304 -0.2976 -1.0802  0.1806
    7MOL   C135  987   5.787   5.619   3.176 -0.5371 -0.0487 -0.4761
    7MOL   C136  988   5.696   5.712   3.096 -0.5692 -0.5431  0.7902
    7MOL   O137  989   5.764   5.765   2.984 -0.2805 -0.2607 -0.0670
    7MOL   H138  990   5.888   5.657   3.157 -0.7522  0.8847  0.1974
    7MOL   H139  991   5.787   5.522   3.126 -2.2719  0.2773 -1.1437
    7MOL   H140  992   5.672   5.803   3.152 -2.4795  0.1048 -1.0202
    7MOL   H141  993   5.798   5.850   3.006 -0.9764 -0.2441  0.9904
    7MOL   H142  994   5.603   5.666   3.062 -0.3175 -0.1598 -0.4377
    8MOL     C1  995   6.250   3.117   2.005 -0.0469  0.5232  0.1169
    8MOL     C2  996   6.117   3.173   2.059  0.4295 -0.7251  0.4549
    8MOL     O3  997   6.100   3.295   1.997  0.3127 -0.4658  0.7779
    8MOL     H4  998   6.286   3.038   2.071  1.9313  0.8897 -0.4998
    8MOL     H5  999   6.324   3.196   2.012  0.8886 -0.3928  0.6670
    8MOL     H6 1000   6.128   3.172   2.167 -1.9656 -0.6727  0.7158
    8MOL     H7 1001   6.055   3.356   2.054  0.2857  0.9777 -0.7312
    8MOL     H8 1002   6.258   3.071   1.907 -2.1000 -0.7579  0.5037
    8MOL     C9 1003   5.996   3.078   2.018  0.4084 -0.3278 -0.7032
    8MOL    C10 1004   5.998   2.952   2.097  0.6070 -0.1579 -0.8050
    8MOL    O11 1005   5.914   2.972   2.216  0.0648  0.1978 -0.3166
    8MOL    H12 1006   5.906   3.138   2.006  0.8380  0.9192  1.9977
    8MOL    H13 1007   6.008   3.055   1.912  0.7458  3.4418 -1.5553
    8MOL    H14 1008   6.099   2.925   2.131  0.0910  0.1437  1.0214
    8MOL    H15 1009   5.965   2.948   2.291 -0.1069  1.6009  0.2774
    8MOL    C16 1010   5.936   2.833   2.012  0.1011  0.3267 -0.1086
    8MOL    C17 1011   6.032   2.784   1.904  0.1441 -0.1270  0.3255
    8MOL    O18 1012   6.156   2.759   1.962 -0.4381  0.6248  0.2724
    8MOL    H19 1013   5.919   2.754   2.085  0.3908  0.1767 -0.2025
    8MOL    H20 1014   5.850   2.875   1.959 -0.8847 -0.0487  1.1467
    8MOL    H21 1015   6.053   2.856   1.826 -1.6652  1.1563  0.9752
    8MOL    H22 1016   6.222   2.774   1.895  1.3069 -2.5144  1.1810
    8MOL    C23 1017   5.976   2.660   1.830  0.6544 -0.1675 -0.2059
    8MOL    C24 1018   5.851   2.667   1.748  1.0589 -0.1649  0.2465
    8MOL    O25 1019   5.863   2.763   1.645  0.1263  0.0737  0.0020
    8MOL    H26 1020   6.052   2.614   1.766  0.2695 -0.6229 -0.3416
    8MOL    H27 1021   5.967   2.580   1.904 -0.6389 -0.8883 -1.1236
    8MOL    H28 1022   5.770   2.702   1.813 -0.7719  1.1589 -2.6115
    8MOL    H29 1023   5.773   2.792   1.635  0.4833  0.3859 -2.7264
    8MOL    C30 1024   5.810   2.537   1.673  0.2756 -0.0751 -0.0198
    8MOL    C31 1025   5.738   2.443   1.778 -0.0847 -0.1613  0.0919
    8MOL    O32 1026   5.624   2.503   1.850  0.9830 -0.3157 -0.3006
    8MOL    H33 1027   5.735   2.559   1.597  0.9786  0.6268 -0.5109
    8MOL    H34 1028   5.893   2.500   1.613  1.6977  3.5439 -0.4288
    8MOL    H35 1029   5.809   2.418   1.857 -1.8468  1.1245  2.1419
    8MOL    H36 1030   5.551   2.512   1.790 -0.7100  1.0634  1.8907
    8MOL    C37 1031   5.694   2.309   1.719  0.0455 -0.6368  0.2094
    8MOL    C38 1032   5.820   2.226   1.668  0.3376  0.0747 -0.3561
    8MOL    O39 1033   5.909   2.204   1.783  0.4065  0.0897 -0.6388
    8MOL    H40 1034   5.651   2.241   1.792 -2.0159 -0.4999 -0.8355
    8MOL    H41 1035   5.619   2.312   1.641  0.0067  1.1741  0.2823
    8MOL    H42 1036   5.865   2.296   1.597 -0.5968  0.0062 -1.0413
    8MOL    H43 1037   5.862   2.160   1.853  1.2573  1.3318  0.7457
    8MOL    C44 1038   5.789   2.085   1.603 -1.0250 -0.4373 -0.8161
    8MOL    C45 1039   5.712   2.099   1.467 -0.2518 -0.1293 -0.2550
    8MOL    O46 1040   5.796   2.144   1.373 -0.3948  0.7384 -0.6639
    8MOL    H47 1041   5.880   2.035   1.570 -0.4418  1.3853 -2.1154
    8MOL    H48 1042   5.754   2.021   1.683  1.1760  1.1246  1.4879
    8MOL    H49 1043   5.627   2.166   1.482 -0.1574 -0.1255  0.2523
    8MOL    H50 1044   5.769   2.120   1.286 -0.0760  1.5889 -1.0106
    8MOL    C51 1045   5.670   1.959   1.416 -0.1779 -0.1910 -0.4738
    8MOL    C52 1046   5.580   1.956   1.293 -0.1783  0.2880 -0.1010
    8MOL    O53 1047   5.661   1.997   1.184 -0.4629 -0.0226  0.3713
    8MOL    H54 1048   5.752   1.892   1.388  0.1938 -0.1973  0.6193
    8MOL    H55 1049   5.626   1.910   1.503  1.7728 -0.6769  0.2592
    8MOL    H56 1050   5.503   2.032   1.304  0.1430  0.6285 -0.1968
    8MOL    H57 1051   5.634   1.943   1.112  0.7031  0.5813 -0.5366
    8MOL    C58 1052   5.499   1.830   1.273 -0.7529  0.0494 -0.6853
    8MOL    C59 1053   5.572   1.697   1.274  0.3730  0.0670 -0.0398
    8MOL    O60 1054   5.471   1.598   1.283  0.6973 -0.0906  0.1902
    8MOL    H61 1055   5.437   1.824   1.362 -1.4201 -2.2748 -1.2683
    8MOL    H62 1056   5.444   1.845   1.180 -2.6287  0.9532  0.5532
    8MOL    H63 1057   5.627   1.696   1.368  0.8907 -0.9403 -0.3421
    8MOL    H64 1058   5.399   1.631   1.232 -0.7494 -2.0998  0.8888
    8MOL    C65 1059   5.664   1.671   1.159 -0.5678  0.0266 -0.1138
    8MOL    C66 1060   5.766   1.558   1.190 -0.5177 -0.1522 -0.3771
    8MOL    O67 1061   5.816   1.510   1.066  0.3630 -0.5894 -0.0567
    8MOL    H68 1062   5.611   1.650   1.066  0.6892  3.7417 -1.7707
    8MOL    H69 1063   5.726   1.759   1.144  0.3205 -0.5382  0.2320
    8MOL    H70 1064   5.719   1.477   1.247  0.0600 -1.1758 -1.3400
    8MOL    H71 1065   5.742   1.463   1.029 -2.2416  2.8715  0.4737
    8MOL    C72 1066   5.892   1.592   1.264 -0.9490 -0.5017  0.3140
    8MOL    C73 1067   6.006   1.484   1.280 -0.5777  0.5103 -0.3055
    8MOL    O74 1068   6.120   1.550   1.331  0.3758 -0.3606 -0.4973
    8MOL    H75 1069   5.941   1.669   1.205 -1.9917 -0.4339 -0.4662
    8MOL    H76 1070   5.869   1.632   1.363 -1.5319 -2.7078  1.1029
    8MOL    H77 1071   6.035   1.453   1.179  0.0571 -0.2060  0.0961
    8MOL    H78 1072   6.190   1.489   1.317 -0.8296 -1.9633  0.3864
    8MOL    C79 1073   5.962   1.362   1.354  0.1358  0.0111 -0.2664
    8MOL    C80 1074   6.055   1.231   1.350  0.0970  0.4822 -0.1168
    8MOL    O81 1075   6.182   1.274   1.395  0.5019  0.1447 -0.3941
    8MOL    H82 1076   5.941   1.401   1.454  0.5672 -1.6602  0.5027
    8MOL    H83 1077   5.866   1.334   1.313 -0.0654  0.0382  0.1805
    8MOL    H84 1078   6.070   1.210   1.244 -0.3072  0.0291 -0.0821
    8MOL    H85 1079   6.170   1.331   1.469  1.6866  0.6571 -0.5802
    8MOL    C86 1080   6.012   1.115   1.440  0.1194  0.3074 -0.2898
    8MOL    C87 1081   5.882   1.053   1.386  0.7177 -0.3145 -0.4844
    8MOL    O88 1082   5.914   0.997   1.259  0.2259  0.2854  0.7487
    8MOL    H89 1083   6.085   1.035   1.433 -0.0574  0.2620 -1.8326
    8MOL    H90 1084   6.003   1.148   1.543 -0.8995 -0.9648  0.0429
    8MOL    H91 1085   5.801   1.123   1.366  0.3438 -1.6078 -3.7743
    8MOL    H92 1086   5.956   0.915   1.276  1.6010  0.8102 -0.0355
    8MOL    C93 1087   5.830   0.947   1.485 -0.4996  0.9412 -0.9017
    8MOL    C94 1088   5.722   0.986   1.577  0.1213 -0.0260  0.0433
    8MOL    O95 1089   5.605   1.002   1.505 -0.3357 -0.2163 -0.2775
    8MOL    H96 1090   5.809   0.849   1.442 -0.5395 -0.4492  2.1232
    8MOL    H97 1091   5.916   0.926   1.549 -0.2380  0.7711 -1.3113
    8MOL    H98 1092   5.746   1.078   1.629 -3.3201  0.1822  1.3888
    8MOL    H99 1093   5.599   1.092   1.477 -1.3577  0.5903  2.3365
    8MOL   C100 1094   5.709   0.874   1.695  0.0257  0.1578  0.6292
    8MOL   C101 1095   5.589   0.892   1.786 -0.5329 -0.6279  0.0236
    8MOL   O102 1096   5.474   0.876   1.715  0.6626  0.1491  0.1448
    8MOL   H103 1097   5.703   0.772   1.659  0.1352 -0.0616  1.2187
    8MOL   H104 1098   5.800   0.881   1.755  0.6894 -0.0528 -0.3524
    8MOL   H105 1099   5.583   0.991   1.830  1.5061 -0.6752  0.4505
    8MOL   H106 1100   5.478   0.930   1.637 -1.3559  0.3953  0.1817
    8MOL   C107 1101   5.583   0.785   1.896 -0.4105 -0.4126 -0.6480
    8MOL   C108 1102   5.686   0.773   2.010 -0.5470 -0.2895  0.2293
    8MOL   O109 1103   5.708   0.895   2.071 -0.5171  0.0290 -0.3779
    8MOL   H110 1104   5.489   0.806   1.946  0.1042  1.3643 -0.4151
    8MOL   H111 1105   5.583   0.690   1.842  2.4836 -1.1441  0.5712
    8MOL   H112 1106   5.784   0.748   1.971 -0.4374 -0.2828  0.4998
    8MOL   H113 1107   5.630   0.935   2.105  1.1562  2.4062  0.8187
    8MOL   C114 1108   5.653   0.661   2.107  0.1219 -0.1004  1.0613
    8MOL   C115 1109   5.645   0.513   2.057 -0.0987 -0.2857 -0.4093
    8MOL   O116 1110   5.779   0.473   2.021  0.2289  0.1724  0.0105
    8MOL   H117 1111   5.728   0.666   2.185  0.7746 -0.8677  0.4966
    8MOL   H118 1112   5.557   0.679   2.155  1.4774  1.3388  3.3014
    8MOL   H119 1113   5.581   0.507   1.969  0.2822  2.6363 -0.9232
    8MOL   H120 1114   5.824   0.467   2.104 -2.7167  0.2872  1.6949
    8MOL   C121 1115   5.595   0.402   2.144 -0.2142  0.4255 -0.0091
    8MOL   C122 1116   5.459   0.432   2.221 -0.1690  0.2800  0.3467
    8MOL   O123 1117   5.365   0.471   2.121 -0.1598 -0.1446  0.2975
    8MOL   H124 1118   5.590   0.311   2.085  0.4803 -0.8000  1.7895
    8MOL   H125 1119   5.668   0.390   2.224 -0.5151 -1.6279 -0.0243
    8MOL   H126 1120   5.469   0.503   2.303 -2.0327  1.6984 -0.6188
    8MOL   H127 1121   5.373   0.415   2.045  0.8149  1.6422 -0.9388
    8MOL   C128 1122   5.402   0.300   2.282  0.6863  0.2791  0.5654
    8MOL   C129 1123   5.492   0.236   2.391 -0.3419 -0.4232 -0.0692
    8MOL   O130 1124   5.489   0.310   2.510  0.4237 -0.3064  0.1012
    8MOL   H131 1125   5.305   0.313   2.330  0.4716 -0.6960  0.3933
    8MOL   H132 1126   5.376   0.233   2.200  1.0592  0.7371  0.0712
    8MOL   H133 1127   5.595   0.238   2.354  0.4251 -1.1708  1.9553
    8MOL   H134 1128   5.398   0.301   2.534  0.9415  0.1557  2.3320
    8MOL   C135 1129   5.462   0.077   2.414 -0.7127 -0.8003  0.5023
    8MOL   C136 1130   5.549   7.512   2.511 -0.2371  0.1307  0.4976
    8MOL   O137 1131   5.497   7.382   2.524 -0.4134 -0.5452 -0.5920
    8MOL   H138 1132   5.362   0.063   2.455 -0.7251  0.8631  1.0615
    8MOL   H139 1133   5.463   0.030   2.315 -1.0511 -1.7804  0.9565
    8MOL   H140 1134   5.550   0.033   2.612 -0.6518 -0.4701  0.7474
    8MOL   H141 1135   5.574   7.330   2.542 -0.8223  0.3188  4.5966
    8MOL   H142 1136   5.653   7.503   2.480  0.1837 -0.3724  1.9891
    9MOL     C1 1137   0.762   0.332   1.518 -0.4165  0.4293 -0.2571
    9MOL     C2 1138   0.744   0.323   1.367 -0.3750 -0.8156  0.0461
    9MOL     O3 1139   0.695   0.196   1.331  0.0758  0.8659 -0.5775
    9MOL     H4 1140   0.818   0.423   1.543 -1.3001  0.9955 -0.3345
    9MOL     H5 1141   0.829   0.252   1.550 -0.3680  0.7376  0.4397
    9MOL     H6 1142   0.845   0.325   1.326 -0.4463  2.6917 -0.1350
    9MOL     H7 1143   0.774   0.145   1.318  0.3343  1.0537  0.2520
    9MOL     H8 1144   0.671   0.328   1.577  1.2215 -1.9647  2.2259
    9MOL     C9 1145   0.657   0.443   1.336  0.2311 -0.0655  0.5190
    9MOL    C10 1146   0.642   0.464   1.184  0.2893  0.2503  0.3372
    9MOL    O11 1147   0.527   0.533   1.150  0.1804  0.3200 -0.2325
    9MOL    H12 1148   0.560   0.445   1.385 -0.5184  0.7993 -0.9629
    9MOL    H13 1149   0.701   0.537   1.369 -0.7994 -0.2001  2.3640
    9MOL    H14 1150   0.623   0.370   1.133 -1.9005  0.1577  1.2901
    9MOL    H15 1151   0.456   0.472   1.142  1.3383 -1.0744 -0.0185
    9MOL    C16 1152   0.762   0.538   1.115  0.4913 -0.0600 -0.1693
    9MOL    C17 1153   0.762   0.500   0.961 -0.4324  0.0668  0.2453
    9MOL    O18 1154   0.844   0.604   0.897  0.3575  0.4799 -0.4774
    9MOL    H19 1155   0.755   0.647   1.121  0.9276 -0.1497  2.6041
    9MOL    H20 1156   0.857   0.512   1.161 -0.0341 -0.7729  0.5418
    9MOL    H21 1157   0.662   0.500   0.918 -0.1361 -0.7661 -0.4524
    9MOL    H22 1158   0.793   0.680   0.876 -0.4889  0.1693  0.3879
    9MOL    C23 1159   0.829   0.359   0.934 -0.2030  0.6366 -0.0180
    9MOL    C24 1160   0.831   0.299   0.788  0.4333 -0.0746 -0.3378
    9MOL    O25 1161   0.918   0.190   0.779  0.1604 -0.4982 -0.8471
    9MOL    H26 1162   0.926   0.367   0.983  0.1358 -2.6877 -0.0801
    9MOL    H27 1163   0.782   0.286   1.000 -0.0590 -1.3222 -2.0226
    9MOL    H28 1164   0.877   0.376   0.727  1.8178 -1.3790 -0.9842
    9MOL    H29 1165   0.953   0.191   0.691  1.1780 -0.1221 -0.4551
    9MOL    C30 1166   0.697   0.251   0.727  0.1897 -0.1594 -0.3408
    9MOL    C31 1167   0.588   0.352   0.686 -0.2992  0.5618 -0.3131
    9MOL    O32 1168   0.642   0.459   0.614 -0.4491  0.1098  0.1398
    9MOL    H33 1169   0.714   0.176   0.650  3.5711 -0.3505  0.5080
    9MOL    H34 1170   0.646   0.194   0.805  0.0242  0.4079 -0.0299
    9MOL    H35 1171   0.540   0.383   0.779  3.2292  0.1304  1.7482
    9MOL    H36 1172   0.714   0.426   0.562  0.2861  1.2929  0.3766
    9MOL    C37 1173   0.472   0.287   0.609  0.3370  0.1331  1.2713
    9MOL    C38 1174   0.356   0.225   0.698 -0.7871 -0.5717  0.4681
    9MOL    O39 1175   0.283   0.321   0.762 -0.2813  0.5015  0.4379
    9MOL    H40 1176   0.419   0.345   0.533  1.0030 -2.1241 -0.9779
    9MOL    H41 1177   0.518   0.214   0.542 -0.5453  0.2078  0.5707
    9MOL    H42 1178   0.413   0.167   0.771 -0.6846  1.0667  1.7098
    9MOL    H43 1179   0.233   0.365   0.695  0.0105 -0.5476 -0.4680
    9MOL    C44 1180   0.263   0.134   0.620  0.4540  0.1593 -0.2084
    9MOL    C45 1181   0.300   7.504   0.627  0.5520  0.6344  0.2065
    9MOL    O46 1182   0.198   7.414   0.583 -0.1796 -0.1292  0.4825
    9MOL    H47 1183   0.163   0.154   0.658  0.3082 -2.6900  0.9810
    9MOL    H48 1184   0.262   0.160   0.514  1.5128 -0.0338 -0.2644
    9MOL    H49 1185   0.302   7.467   0.729  0.8538 -0.6492 -0.2497
    9MOL    H50 1186   0.225   7.328   0.612  1.6325  0.8690  1.8000
    9MOL    C51 1187   0.430   7.461   0.553  0.2052  0.5259  0.2101
    9MOL    C52 1188   0.434   7.440   0.402 -0.4866 -0.3521 -0.0003
    9MOL    O53 1189   0.469   0.049   0.349  0.1396 -0.3418 -0.3777
    9MOL    H54 1190   0.518   7.519   0.584 -0.2127  0.7438  1.0097
    9MOL    H55 1191   0.452   7.362   0.594  2.1311  0.9295  0.1884
    9MOL    H56 1192   0.336   7.427   0.355 -0.6136 -2.9320  0.9101
    9MOL    H57 1193   0.488   0.040   0.257  0.1123  1.8869 -0.6231
    9MOL    C58 1194   0.542   7.340   0.351  0.6077  0.1839  0.2030
    9MOL    C59 1195   0.543   7.301   0.199 -0.3583  0.5338  0.4209
    9MOL    O60 1196   0.547   7.421   0.128 -0.4871  0.2262  0.1286
    9MOL    H61 1197   0.640   7.372   0.385  1.5442 -0.8266 -1.4439
    9MOL    H62 1198   0.513   7.252   0.408 -1.8902 -0.7579 -2.3676
    9MOL    H63 1199   0.449   7.256   0.169 -1.1197  1.0924  1.9498
    9MOL    H64 1200   0.480   7.424   0.061 -0.2040 -1.4554 -0.2473
    9MOL    C65 1201   0.654   7.195   0.167  0.3212 -0.1411 -0.7872
    9MOL    C66 1202   0.652   7.064   0.244 -0.3659  0.4053  0.1045
    9MOL    O67 1203   0.568   6.972   0.178  0.4941 -0.1159 -0.0264
    9MOL    H68 1204   0.643   7.185   0.059 -0.1725  3.1757 -1.1198
    9MOL    H69 1205   0.754   7.237   0.180 -0.2038  1.9311 -3.0140
    9MOL    H70 1206   0.617   7.081   0.346 -0.9943  1.4246 -0.2721
    9MOL    H71 1207   0.482   6.997   0.210  1.3557  1.5253  1.0540
    9MOL    C72 1208   0.788   6.998   0.267 -1.2520 -0.4421 -0.4914
    9MOL    C73 1209   0.870   7.070   0.371  0.4625  0.0707 -0.1888
    9MOL    O74 1210   0.819   7.025   0.495  0.2108  0.2297 -0.2838
    9MOL    H75 1211   0.793   6.890   0.278  2.0579 -0.4411 -1.3086
    9MOL    H76 1212   0.854   7.000   0.180  0.0955 -4.4436  0.3356
    9MOL    H77 1213   0.843   7.175   0.378 -0.1101  0.1104 -2.7403
    9MOL    H78 1214   0.845   6.934   0.502  0.1580  0.2410  0.0821
    9MOL    C79 1215   1.017   7.045   0.350 -0.1891  0.6983 -0.6965
    9MOL    C80 1216   1.091   7.137   0.244 -0.6995  0.3415  1.0901
    9MOL    O81 1217   1.088   7.268   0.282  0.0845 -0.3319  0.3651
    9MOL    H82 1218   1.054   7.054   0.453  0.9945  0.4551 -1.0967
    9MOL    H83 1219   1.029   6.942   0.320 -0.3688  0.1361  1.0666
    9MOL    H84 1220   1.065   7.114   0.140 -1.2675 -0.3301  1.3757
    9MOL    H85 1221   1.158   7.309   0.233  1.4464  0.8471  3.1572
    9MOL    C86 1222   1.248   7.097   0.243 -0.7695 -0.2304  0.3502
    9MOL    C87 1223   1.272   6.960   0.169  0.3260  0.1222 -0.0964
    9MOL    O88 1224   1.237   6.968   0.030 -0.0148  0.0741 -0.0831
    9MOL    H89 1225   1.321   7.165   0.199  1.8945 -3.8347 -1.0433
    9MOL    H90 1226   1.285   7.091   0.345 -2.5957 -3.1276  0.8823
    9MOL    H91 1227   1.207   6.884   0.214 -0.1502  0.7640  0.3179
    9MOL    H92 1228   1.144   6.959   0.014  0.0963  1.0393 -1.3548
    9MOL    C93 1229   1.419   6.907   0.182  0.0577 -0.1790 -0.1913
    9MOL    C94 1230   1.461   6.866   0.320 -0.1939 -0.0742 -0.3011
    9MOL    O95 1231   1.380   6.750   0.355 -0.2272  0.3770  0.1157
    9MOL    H96 1232   1.433   6.827   0.109  0.2983 -0.0946 -0.2388
    9MOL    H97 1233   1.492   6.986   0.161 -0.4425  0.4894  0.5855
    9MOL    H98 1234   1.436   6.940   0.396  0.3251 -0.7602  0.5518
    9MOL    H99 1235   1.410   6.680   0.298 -0.2702 -0.3097  0.9275
    9MOL   C100 1236   1.610   6.843   0.331  0.3308 -0.1849 -0.1050
    9MOL   C101 1237   1.664   6.784   0.470 -0.0727 -0.3655  0.2850
    9MOL   O102 1238   1.637   6.879   0.568  0.5198  0.7244 -0.0374
    9MOL   H103 1239   1.629   6.778   0.245 -0.9398  0.2373 -0.7209
    9MOL   H104 1240   1.661   6.938   0.314 -1.7701  0.9086 -0.4116
    9MOL   H105 1241   1.773   6.788   0.459 -0.2072  0.0236 -0.9822
    9MOL   H106 1242   1.675   6.859   0.652  0.1895  2.1558  0.4693
    9MOL   C107 1243   1.624   6.645   0.518 -0.5874 -0.5930 -0.0186
    9MOL   C108 1244   1.664   6.526   0.420 -0.0687 -0.1680 -0.5192
    9MOL   O109 1245   1.805   6.525   0.416 -0.1750  0.1129 -0.4188
    9MOL   H110 1246   1.652   6.638   0.623  0.3803 -0.3707 -0.2571
    9MOL   H111 1247   1.515   6.654   0.512 -0.5899 -0.3219  0.3634
    9MOL   H112 1248   1.616   6.549   0.325 -1.9102  2.1772  0.9474
    9MOL   H113 1249   1.835   6.540   0.504  1.7639  1.3511 -1.2293
    9MOL   C114 1250   1.625   6.384   0.458  0.2351 -0.1278  0.4905
    9MOL   C115 1251   1.474   6.365   0.484  0.5125  0.9019  0.1529
    9MOL   O116 1252   1.396   6.413   0.371 -0.1660  0.3469 -0.1509
    9MOL   H117 1253   1.661   6.319   0.379 -0.3145  0.7876 -0.5240
    9MOL   H118 1254   1.681   6.360   0.549 -0.5626  0.5907  1.1779
    9MOL   H119 1255   1.452   6.427   0.571  2.8212  2.8358 -0.5894
    9MOL   H120 1256   1.308   6.382   0.383 -0.2856 -0.0093 -1.8270
    9MOL   C121 1257   1.439   6.214   0.495 -0.2894  0.4170  0.3198
    9MOL   C122 1258   1.504   6.154   0.625 -0.6636  0.4537 -0.4210
    9MOL   O123 1259   1.427   6.220   0.728 -0.2448  0.4193  0.4782
    9MOL   H124 1260   1.332   6.195   0.491 -0.2736  0.4836 -0.7427
    9MOL   H125 1261   1.488   6.163   0.412 -1.0470  0.6114 -0.2551
    9MOL   H126 1262   1.612   6.162   0.633 -0.5556 -1.5790  0.5728
    9MOL   H127 1263   1.395   6.152   0.785 -0.2556 -0.3179 -0.4059
    9MOL   C128 1264   1.480   6.003   0.627 -0.3058 -0.3307  0.2836
    9MOL   C129 1265   1.554   5.919   0.525  0.5110 -0.2435  0.5488
    9MOL   O130 1266   1.683   5.967   0.513 -0.6457  0.1903  0.3845
    9MOL   H131 1267   1.518   5.968   0.724 -0.5910  0.4177  0.6629
    9MOL   H132 1268   1.375   5.975   0.625  0.1544 -2.0558 -1.5270
    9MOL   H133 1269   1.507   5.918   0.427 -0.4178 -2.1993  0.9777
    9MOL   H134 1270   1.692   6.001   0.425 -1.0811 -0.8320 -0.0631
    9MOL   C135 1271   1.563   5.769   0.567 -0.0202 -0.4874 -0.1821
    9MOL   C136 1272   1.436   5.682   0.576  0.9102  0.7320  0.3141
    9MOL   O137 1273   1.390   5.663   0.448  0.3240 -0.3362 -0.1789
    9MOL   H138 1274   1.641   5.710   0.520 -0.3439 -1.5977  0.6390
    9MOL   H139 1275   1.585   5.778   0.674  0.2858 -0.9924 -0.1976
    9MOL   H140 1276   1.360   5.720   0.645  1.1167 -2.2760  2.2850
    9MOL   H141 1277   1.333   5.733   0.422  0.5642 -0.6871 -1.6895
    9MOL   H142 1278   1.450   5.582   0.616 -1.6826 -0.0922 -0.7288
   10MOL     C1 1279   4.723   6.097   7.196  0.3543 -0.7055 -0.8758
   10MOL     C2 1280   4.821   5.984   7.151  0.0395  0.2919 -0.8272
   10MOL     O3 1281   4.940   5.989   7.233  0.8029 -0.1452  0.0786
   10MOL     H4 1282   4.758   6.196   7.164 -0.1751 -0.0778  0.4253
   10MOL     H5 1283   4.694   6.099   7.301  2.7310 -0.7492 -0.1750
   10MOL     H6 1284   4.847   6.006   7.047  0.2949  0.3938 -0.7420
   10MOL     H7 1285   4.909   5.959   7.317 -1.5621  0.8593 -0.3990
   10MOL     H8 1286   4.631   6.088   7.140 -1.5636  2.4683  1.5562
   10MOL     C9 1287   4.766   5.847   7.141  0.5562  0.8748 -0.0080
   10MOL    C10 1288   4.691   5.809   7.004  0.5933 -0.2118  0.4137
   10MOL    O11 1289   4.776   5.804   6.890 -0.6933 -0.5368 -0.3827
   10MOL    H12 1290   4.859   5.792   7.153  2.0257  2.3404 -3.9217
   10MOL    H13 1291   4.716   5.821   7.235  0.3611 -0.6426 -0.5120
   10MOL    H14 1292   4.614   5.886   6.992 -0.4216 -1.4947 -1.5353
   10MOL    H15 1293   4.857   5.778   6.931  0.4267  1.4521 -1.2530
   10MOL    C16 1294   4.618   5.669   7.019 -0.6494 -0.8445  0.6459
   10MOL    C17 1295   4.505   5.671   7.123 -0.1596  0.0888  0.2026
   10MOL    O18 1296   4.387   5.672   7.047 -0.1927 -0.0127  0.0786
   10MOL    H19 1297   4.569   5.639   6.926 -0.1076  0.5064 -0.0921
   10MOL    H20 1298   4.694   5.592   7.029  0.5829  0.1567 -0.7826
   10MOL    H21 1299   4.501   5.755   7.193 -1.0768  1.3043 -1.2780
   10MOL    H22 1300   4.385   5.605   6.981  1.0741 -0.7610  0.8003
   10MOL    C23 1301   4.496   5.538   7.209 -0.1641 -0.3473 -0.3781
   10MOL    C24 1302   4.597   5.526   7.325 -0.0043  0.1948 -0.3532
   10MOL    O25 1303   4.559   5.623   7.423  0.6001  0.1234  0.1495
   10MOL    H26 1304   4.398   5.499   7.239  1.2649 -2.7400  1.4456
   10MOL    H27 1305   4.520   5.456   7.141 -0.3976 -0.5813 -0.1824
   10MOL    H28 1306   4.694   5.559   7.288  1.2336 -1.1723  1.5902
   10MOL    H29 1307   4.570   5.709   7.385  0.0187  0.4222  0.6525
   10MOL    C30 1308   4.615   5.388   7.395 -0.9369 -0.3287 -0.7874
   10MOL    C31 1309   4.611   5.265   7.306  0.0713  0.2292  0.4615
   10MOL    O32 1310   4.725   5.262   7.224  0.2831  0.4516  0.4429
   10MOL    H33 1311   4.698   5.394   7.466 -3.0991  0.3801  1.7694
   10MOL    H34 1312   4.535   5.373   7.467 -1.2283  0.3047 -0.9799
   10MOL    H35 1313   4.519   5.258   7.248  0.7875 -0.8834 -0.5852
   10MOL    H36 1314   4.736   5.171   7.199  1.3926  0.2393  1.6422
   10MOL    C37 1315   4.623   5.141   7.392 -0.2685  0.1457 -0.6512
   10MOL    C38 1316   4.603   5.000   7.334  0.2252  0.3332  0.4786
   10MOL    O39 1317   4.708   4.985   7.234  0.0316  0.1121  0.2469
   10MOL    H40 1318   4.719   5.129   7.441  0.5103  0.9637 -1.9435
   10MOL    H41 1319   4.543   5.157   7.463  1.2121 -2.2436  1.6635
   10MOL    H42 1320   4.511   4.994   7.277  0.0228 -1.1577  0.9511
   10MOL    H43 1321   4.687   4.907   7.185 -2.0626  1.0857 -0.4804
   10MOL    C44 1322   4.611   4.886   7.440 -0.2166 -0.2074 -0.9512
   10MOL    C45 1323   4.497   4.887   0.020  0.5907  0.9845 -0.4250
   10MOL    O46 1324   4.376   4.883   7.479 -0.2884 -0.4456  0.0759
   10MOL    H47 1325   4.606   4.787   7.394 -0.5682 -1.7216  2.2614
   10MOL    H48 1326   4.711   4.897   7.481 -0.3893  2.2445 -1.1088
   10MOL    H49 1327   4.499   4.974   0.085 -2.4010 -0.1887  1.3754
   10MOL    H50 1328   4.317   4.843   0.021 -1.1885 -0.2874 -0.6762
   10MOL    C51 1329   4.506   4.760   0.105 -0.4455  0.0882 -0.1195
   10MOL    C52 1330   4.420   4.747   0.230 -0.1984  0.1118  1.0143
   10MOL    O53 1331   4.279   4.740   0.205 -0.3244  0.0768 -0.0203
   10MOL    H54 1332   4.495   4.675   0.038 -1.2167  0.5618 -0.5983
   10MOL    H55 1333   4.611   4.744   0.128 -0.6055 -1.3760 -0.3559
   10MOL    H56 1334   4.440   4.826   0.303  1.6601  0.3599  0.2573
   10MOL    H57 1335   4.263   4.653   0.171 -0.9497 -0.3009  1.2178
   10MOL    C58 1336   4.463   4.617   0.304 -0.2002 -0.0552 -0.2690
   10MOL    C59 1337   4.602   4.602   0.355  0.2978  0.4526  0.3044
   10MOL    O60 1338   4.632   4.709   0.452 -0.1929 -0.4279 -0.3780
   10MOL    H61 1339   4.394   4.594   0.386 -0.4963  1.2144 -0.1453
   10MOL    H62 1340   4.445   4.535   0.235 -0.6370  0.1326 -0.3790
   10MOL    H63 1341   4.679   4.620   0.279 -2.1322  3.6097 -1.5272
   10MOL    H64 1342   4.726   4.721   0.452 -0.1866 -0.4231 -1.4683
   10MOL    C65 1343   4.623   4.468   0.410 -0.2596  0.5486  0.4754
   10MOL    C66 1344   4.759   4.441   0.467 -0.5106 -0.0050  0.2607
   10MOL    O67 1345   4.871   4.480   0.384  0.6431 -0.7454 -0.2806
   10MOL    H68 1346   4.547   4.443   0.483  0.6125  0.0852  1.2272
   10MOL    H69 1347   4.614   4.391   0.333 -5.4351  0.4251  1.0480
   10MOL    H70 1348   4.772   4.333   0.469 -1.7266 -0.1790 -0.7100
   10MOL    H71 1349   4.869   4.427   0.307  0.7371 -0.2496 -0.6253
   10MOL    C72 1350   4.779   4.474   0.617  0.8946  0.6972  0.8322
   10MOL    C73 1351   4.925   4.449   0.685  0.0646 -0.5039 -0.0687
   10MOL    O74 1352   4.922   4.493   0.823 -1.0398 -0.4551  0.0651
   10MOL    H75 1353   4.747   4.574   0.643 -1.4120  0.8535 -2.3952
   10MOL    H76 1354   4.707   4.412   0.670  3.2647 -2.1622  0.8777
   10MOL    H77 1355   5.002   4.507   0.634 -1.6978  1.8110 -0.1984
   10MOL    H78 1356   5.001   4.459   0.862  0.1703  1.3569 -0.7052
   10MOL    C79 1357   4.954   4.300   0.683  0.2153 -0.2357 -0.0086
   10MOL    C80 1358   5.078   4.234   0.762  0.0091  0.0346  0.3651
   10MOL    O81 1359   5.041   4.113   0.833 -0.2694  0.2104 -0.1625
   10MOL    H82 1360   4.860   4.251   0.708 -0.5030  1.2923  0.3558
   10MOL    H83 1361   4.977   4.267   0.582 -0.7865  1.8646 -0.9569
   10MOL    H84 1362   5.097   4.306   0.842  1.8778  1.1357 -1.0454
   10MOL    H85 1363   5.009   4.047   0.774 -0.3144 -2.0604  2.2926
   10MOL    C86 1364   5.208   4.216   0.676  0.5081  1.0551  0.1501
   10MOL    C87 1365   5.340   4.149   0.737  0.1485  0.5018  0.2420
   10MOL    O88 1366   5.419   4.118   0.620  0.8350 -0.6609 -0.4450
   10MOL    H89 1367   5.185   4.167   0.582  1.6868  2.6484 -0.9942
   10MOL    H90 1368   5.230   4.312   0.629  0.8744 -0.3332 -2.6222
   10MOL    H91 1369   5.305   4.055   0.781 -0.7149  1.3485  1.4110
   10MOL    H92 1370   5.353   4.095   0.557  0.8519  0.4959 -0.8995
   10MOL    C93 1371   5.423   4.235   0.838 -0.6249 -0.1755 -0.1635
   10MOL    C94 1372   5.374   4.242   0.986  0.5693 -0.7063 -0.4138
   10MOL    O95 1373   5.360   4.114   1.035  0.1605 -0.2917  0.5791
   10MOL    H96 1374   5.527   4.204   0.839 -0.5973 -0.1361 -1.3214
   10MOL    H97 1375   5.442   4.336   0.802 -1.5186  0.0159 -0.1201
   10MOL    H98 1376   5.273   4.284   0.991  0.8670 -0.0616  0.1412
   10MOL    H99 1377   5.297   4.113   1.105  0.1577 -2.4853  0.5894
   10MOL   C100 1378   5.470   4.315   1.079  0.0820 -0.3146  0.2190
   10MOL   C101 1379   5.501   4.463   1.046 -0.1654  0.2119  0.6325
   10MOL   O102 1380   5.387   4.548   1.039  0.1825  0.2078  0.0744
   10MOL   H103 1381   5.431   4.311   1.181  2.0834  0.3843  1.0460
   10MOL   H104 1382   5.567   4.265   1.079  0.1767 -0.1991 -2.1063
   10MOL   H105 1383   5.537   4.462   0.943  0.0044 -1.1833  0.6884
   10MOL   H106 1384   5.418   4.620   0.986 -0.2879  1.1826  1.1118
   10MOL   C107 1385   5.594   4.542   1.143 -0.1016 -0.1685 -0.3472
   10MOL   C108 1386   5.750   4.524   1.120  0.2370  0.4625  0.5582
   10MOL   O109 1387   5.769   4.567   0.985 -0.2786  0.5115 -0.5077
   10MOL   H110 1388   5.583   4.650   1.145  1.0464 -0.0615  0.6495
   10MOL   H111 1389   5.567   4.507   1.243  0.8902 -1.8411 -0.6384
   10MOL   H112 1390   5.775   4.418   1.115  0.1200  0.5073 -1.3081
   10MOL   H113 1391   5.862   4.581   0.970 -0.1745  1.6022  1.0565
   10MOL   C114 1392   5.836   4.615   1.217 -0.5984 -0.1904 -0.0821
   10MOL   C115 1393   5.883   4.541   1.347  0.3836  0.4684  0.3757
   10MOL   O116 1394   5.983   4.624   1.405  0.8322 -0.2842 -0.6925
   10MOL   H117 1395   5.922   4.653   1.161 -0.4824 -1.0316 -0.4861
   10MOL   H118 1396   5.769   4.694   1.251  0.1336 -0.2382  1.4826
   10MOL   H119 1397   5.943   4.451   1.331 -0.3295  0.1877 -0.7114
   10MOL   H120 1398   5.945   4.708   1.424  1.8853  0.6246 -2.5722
   10MOL   C121 1399   5.768   4.507   1.446 -0.6025 -0.4365  0.1139
   10MOL   C122 1400   5.813   4.460   1.587 -0.9435  0.6912  0.8622
   10MOL   O123 1401   5.861   4.568   1.664 -0.1955  0.6525 -0.4150
   10MOL   H124 1402   5.696   4.589   1.443 -1.6256 -1.2030  2.9112
   10MOL   H125 1403   5.716   4.425   1.396 -2.1718  1.1597 -0.9494
   10MOL   H126 1404   5.893   4.386   1.582 -0.2528  1.3237  2.2282
   10MOL   H127 1405   5.932   4.609   1.618  0.4878  0.5772  0.5559
   10MOL   C128 1406   5.690   4.404   1.659  0.1868 -0.0927  0.1550
   10MOL   C129 1407   5.665   4.251   1.616 -0.0191  0.6470 -0.1772
   10MOL   O130 1408   5.776   4.175   1.654 -0.4345  0.2383 -0.9578
   10MOL   H131 1409   5.715   4.407   1.766  0.6308 -1.3131  0.0913
   10MOL   H132 1410   5.604   4.468   1.643  0.4114 -0.4146 -2.5401
   10MOL   H133 1411   5.654   4.237   1.508  1.2147 -3.1972  0.1334
   10MOL   H134 1412   5.772   4.084   1.629  0.6540  0.1453 -0.7976
   10MOL   C135 1413   5.541   4.181   1.679 -0.2106 -0.0865  0.2109
   10MOL   C136 1414   5.410   4.240   1.637  0.1591 -0.1712 -0.2768
   10MOL   O137 1415   5.299   4.182   1.710 -0.4116  0.0876  0.1153
   10MOL   H138 1416   5.542   4.073   1.667 -1.6663 -0.0600 -0.2336
   10MOL   H139 1417   5.559   4.177   1.787  1.0520  0.4537  0.0260
   10MOL   H140 1418   5.403   4.231   1.529  0.9215 -0.6184 -0.2926
   10MOL   H141 1419   5.293   4.223   1.795 -0.2634  2.3855 -0.9305
   10MOL   H142 1420   5.401   4.348   1.646 -0.9857 -0.2288 -0.5930
   11MOL     C1 1421   3.826   2.469   2.314 -0.1745 -0.1698  0.2623
   11MOL     C2 1422   3.694   2.455   2.256 -0.5060 -0.4505  1.0698
   11MOL     O3 1423   3.627   2.579   2.285 -0.7943 -0.2037  0.3867
   11MOL     H4 1424   3.878   2.373   2.314 -2.1177 -1.2600 -0.8314
   11MOL     H5 1425   3.817   2.503   2.417 -1.1871  1.5320 -0.3780
   11MOL     H6 1426   3.637   2.376   2.305  0.8767 -2.0904  0.0596
   11MOL     H7 1427   3.535   2.558   2.280 -1.1191  1.0151  1.0594
   11MOL     H8 1428   3.892   2.533   2.256 -2.0907  0.7476 -0.9605
   11MOL     C9 1429   3.695   2.438   2.097 -0.4347 -0.6183  0.7985
   11MOL    C10 1430   3.755   2.310   2.046 -1.0948 -0.9214 -0.5717
   11MOL    O11 1431   3.671   2.206   2.092 -0.5880  0.2476 -0.2787
   11MOL    H12 1432   3.590   2.428   2.070 -0.1099 -0.9013 -0.3997
   11MOL    H13 1433   3.731   2.531   2.053 -1.6367 -0.9200 -0.8839
   11MOL    H14 1434   3.858   2.310   2.082 -0.9121 -1.5056 -1.0882
   11MOL    H15 1435   3.708   2.168   2.170  2.1100 -0.1836 -1.6958
   11MOL    C16 1436   3.766   2.291   1.894 -0.9758 -0.3999  0.1927
   11MOL    C17 1437   3.869   2.389   1.828 -0.0574 -0.1017 -0.6458
   11MOL    O18 1438   3.993   2.357   1.889 -0.8699 -0.0244 -0.2057
   11MOL    H19 1439   3.794   2.186   1.879  3.0887  0.6141 -0.0228
   11MOL    H20 1440   3.673   2.306   1.840 -1.6449  1.7855  1.9030
   11MOL    H21 1441   3.859   2.496   1.846  1.1202 -0.3858  1.9415
   11MOL    H22 1442   4.015   2.273   1.853 -0.2873  0.4417 -0.9441
   11MOL    C23 1443   3.881   2.386   1.679 -0.4007 -0.8301  0.0462
   11MOL    C24 1444   3.753   2.399   1.605 -1.2725 -0.0646  0.1924
   11MOL    O25 1445   3.688   2.518   1.653 -0.6731  0.4665  0.0699
   11MOL    H26 1446   3.952   2.466   1.657 -1.8213  0.8036  1.1349
   11MOL    H27 1447   3.939   2.301   1.644 -0.2629 -1.6610  2.2097
   11MOL    H28 1448   3.702   2.307   1.634 -0.5095 -0.2743  0.8727
   11MOL    H29 1449   3.609   2.525   1.602  0.5677  1.3967 -1.7509
   11MOL    C30 1450   3.779   2.404   1.457 -0.5658 -0.4743 -0.1326
   11MOL    C31 1451   3.651   2.364   1.376 -0.2222  0.2516 -0.0999
   11MOL    O32 1452   3.667   2.414   1.240 -0.1020  0.4355 -0.3018
   11MOL    H33 1453   3.805   2.506   1.428 -1.4257 -0.8424 -2.3025
   11MOL    H34 1454   3.863   2.344   1.420 -0.0432  0.6395 -0.7822
   11MOL    H35 1455   3.559   2.407   1.416 -1.1599 -1.0309 -0.8246
   11MOL    H36 1456   3.579   2.416   1.207  0.6155  0.5240 -2.2614
   11MOL    C37 1457   3.631   2.207   1.369 -0.2100  0.1726  0.3527
   11MOL    C38 1458   3.502   2.147   1.417  0.0978  0.8294 -0.4938
   11MOL    O39 1459   3.517   2.007   1.417 -0.3840  0.1687  0.1082
   11MOL    H40 1460   3.646   2.170   1.268 -3.1711 -0.4524  0.1070
   11MOL    H41 1461   3.713   2.174   1.433  0.5883 -0.6952 -1.0988
   11MOL    H42 1462   3.417   2.172   1.354  0.9673  2.5811 -1.0193
   11MOL    H43 1463   3.513   1.965   1.332 -2.4567  1.4056 -0.4287
   11MOL    C44 1464   3.470   2.173   1.572 -0.1366  0.1227 -0.0964
   11MOL    C45 1465   3.324   2.135   1.603  0.0012 -0.0578 -0.1309
   11MOL    O46 1466   3.316   2.148   1.744  0.4023  0.3219  0.1029
   11MOL    H47 1467   3.533   2.112   1.636 -0.1095 -0.4060 -0.6250
   11MOL    H48 1468   3.478   2.279   1.598  0.7856  0.3154 -1.1157
   11MOL    H49 1469   3.287   2.035   1.578 -0.7066  0.2217 -0.2140
   11MOL    H50 1470   3.384   2.097   1.786 -0.6714 -0.5224  0.8433
   11MOL    C51 1471   3.223   2.239   1.547 -0.3635  0.3745 -0.0991
   11MOL    C52 1472   3.078   2.208   1.509 -0.7793  0.7659 -1.3363
   11MOL    O53 1473   3.000   2.335   1.507  0.1727  0.6554  0.1923
   11MOL    H54 1474   3.216   2.324   1.615 -2.7935 -0.8049  1.1917
   11MOL    H55 1475   3.263   2.296   1.463 -1.0156  4.1178  2.0232
   11MOL    H56 1476   3.050   2.136   1.586  3.8107  0.1440 -0.0792
   11MOL    H57 1477   3.007   2.377   1.591 -1.3267  0.0146  0.6765
   11MOL    C58 1478   3.063   2.150   1.367 -0.1488  0.1802 -0.9977
   11MOL    C59 1479   3.132   2.010   1.352 -0.7278  0.0132 -0.4281
   11MOL    O60 1480   3.085   1.920   1.451 -0.1223  0.5205 -0.6021
   11MOL    H61 1481   2.956   2.143   1.348 -0.3096  0.3318 -0.1909
   11MOL    H62 1482   3.112   2.224   1.304  0.9019  0.9067  0.6178
   11MOL    H63 1483   3.239   2.023   1.367 -0.7358 -0.6710  0.1998
   11MOL    H64 1484   3.002   1.885   1.422  0.8376 -0.9980 -1.5663
   11MOL    C65 1485   3.116   1.938   1.214 -0.4023 -0.5083  0.6505
   11MOL    C66 1486   3.209   1.817   1.203  0.7761 -0.1532  0.2736
   11MOL    O67 1487   3.138   1.702   1.191 -0.0207  0.3717  0.3964
   11MOL    H68 1488   3.013   1.907   1.197 -0.1463 -1.2535  0.4798
   11MOL    H69 1489   3.129   2.019   1.141  0.7857 -1.7805 -0.5828
   11MOL    H70 1490   3.261   1.795   1.296  0.9765 -0.9392 -0.0192
   11MOL    H71 1491   3.178   1.638   1.249 -0.9415  0.6593  1.3736
   11MOL    C72 1492   3.290   1.816   1.073 -0.3990 -0.3679  0.7114
   11MOL    C73 1493   3.402   1.922   1.064 -0.8702 -0.1662 -0.5024
   11MOL    O74 1494   3.492   1.890   1.170 -0.3895 -0.4039  0.1608
   11MOL    H75 1495   3.344   1.723   1.056 -0.7795 -0.4998  0.2117
   11MOL    H76 1496   3.221   1.826   0.990  2.6005  1.5667 -1.6950
   11MOL    H77 1497   3.370   2.026   1.068 -0.2560 -0.0345  1.4964
   11MOL    H78 1498   3.575   1.925   1.142  0.6259 -2.2742  0.7895
   11MOL    C79 1499   3.478   1.896   0.936  0.0146 -0.1806  0.7817
   11MOL    C80 1500   3.601   1.992   0.909  0.0064  0.1859  0.7874
   11MOL    O81 1501   3.705   1.982   1.003  0.4663  0.0791 -0.0422
   11MOL    H82 1502   3.518   1.796   0.927  3.2105  1.2080 -1.4563
   11MOL    H83 1503   3.412   1.916   0.852  0.8564 -2.2861 -0.4026
   11MOL    H84 1504   3.559   2.092   0.897 -2.0978 -0.6769  0.6720
   11MOL    H85 1505   3.767   1.914   0.983  0.8625  0.2911  0.4484
   11MOL    C86 1506   3.663   1.962   0.770 -0.3573 -0.8573 -0.1600
   11MOL    C87 1507   3.578   1.964   0.641 -0.3609  0.1028  0.0212
   11MOL    O88 1508   3.553   2.100   0.614 -0.0468  0.2098 -0.0647
   11MOL    H89 1509   3.747   2.030   0.756 -0.5066 -0.4528  0.8518
   11MOL    H90 1510   3.712   1.864   0.775 -0.9321 -1.3707 -3.5200
   11MOL    H91 1511   3.495   1.897   0.666 -0.1482  0.9109  3.0963
   11MOL    H92 1512   3.496   2.106   0.539  0.0950  1.0219 -0.1081
   11MOL    C93 1513   3.650   1.906   0.516  0.3273 -0.3159  0.1682
   11MOL    C94 1514   3.588   1.779   0.448 -0.2458  0.6355  0.2413
   11MOL    O95 1515   3.455   1.824   0.427  0.3898  0.1327  0.1608
   11MOL    H96 1516   3.647   1.988   0.444  2.5291 -1.4391 -1.2826
   11MOL    H97 1517   3.755   1.887   0.539  0.3075 -0.2283  0.3280
   11MOL    H98 1518   3.596   1.697   0.519  1.1239  0.5446 -0.0065
   11MOL    H99 1519   3.398   1.752   0.451 -0.9308  0.8049 -0.9240
   11MOL   C100 1520   3.634   1.750   0.303 -0.2040  0.2696  0.0806
   11MOL   C101 1521   3.768   1.699   0.291 -0.5205  1.0415 -0.6164
   11MOL   O102 1522   3.777   1.579   0.356  0.2290  0.0256  0.2511
   11MOL   H103 1523   3.569   1.676   0.256 -1.9838  0.3731  2.2649
   11MOL   H104 1524   3.614   1.838   0.242  2.2166  2.1120  1.8574
   11MOL   H105 1525   3.846   1.762   0.335  1.4181 -1.4735 -0.3147
   11MOL   H106 1526   3.867   1.552   0.365  0.5723  0.5227 -1.5841
   11MOL   C107 1527   3.830   1.677   0.153  0.1692  0.3802 -0.0125
   11MOL   C108 1528   3.803   1.795   0.060 -0.5402  0.8366 -0.6180
   11MOL   O109 1529   3.928   1.814   0.001  0.3465  0.2699 -0.1895
   11MOL   H110 1530   3.937   1.655   0.156 -0.1441 -1.2266 -0.4010
   11MOL   H111 1531   3.789   1.587   0.107  0.3448  0.1871  0.2087
   11MOL   H112 1532   3.794   1.887   0.118 -1.5911 -0.5649  1.4901
   11MOL   H113 1533   3.968   1.873   0.062 -0.9828  0.7375  0.2521
   11MOL   C114 1534   3.686   1.774   7.478  0.2975  0.3730 -0.3501
   11MOL   C115 1535   3.657   1.896   7.389 -0.8830  0.1361 -0.1253
   11MOL   O116 1536   3.765   1.902   7.293 -0.5891  0.1970  0.0443
   11MOL   H117 1537   3.713   1.693   7.411 -1.0338  1.0483 -1.7207
   11MOL   H118 1538   3.594   1.742   0.006  1.0480  0.2781  1.0870
   11MOL   H119 1539   3.676   1.983   7.452  1.7036 -2.8461  3.4114
   11MOL   H120 1540   3.842   1.905   7.347  0.1807 -1.2074 -0.9414
   11MOL   C121 1541   3.524   1.884   7.310 -0.0328  0.1395  0.2907
   11MOL   C122 1542   3.396   1.909   7.398 -0.2435 -0.3191  0.5855
   11MOL   O123 1543   3.328   2.027   7.373  0.0471  0.1836 -0.5468
   11MOL   H124 1544   3.523   1.955   7.228 -0.6768  1.0251  1.0601
   11MOL   H125 1545   3.521   1.782   7.272  3.2949 -0.5124  1.5710
   11MOL   H126 1546   3.432   1.932   7.498 -0.7390  0.0885  0.6787
   11MOL   H127 1547   3.291   2.018   7.286  0.2496  0.7155 -0.6886
   11MOL   C128 1548   3.289   1.796   7.386  0.3003  0.2406  0.3527
   11MOL   C129 1549   3.320   1.656   7.439 -0.1492  0.4877 -0.5950
   11MOL   O130 1550   3.357   1.649   0.060  0.2613  0.0091 -0.4019
   11MOL   H131 1551   3.204   1.826   7.447 -1.7678 -3.6840 -0.4271
   11MOL   H132 1552   3.238   1.800   7.290 -0.4524  3.2470  0.8394
   11MOL   H133 1553   3.402   1.604   7.390 -0.5434 -1.8157  1.1009
   11MOL   H134 1554   3.423   1.584   0.076  0.4974  0.6296  1.2193
   11MOL   C135 1555   3.198   1.565   7.433 -0.1417  0.2892 -0.1390
   11MOL   C136 1556   3.151   1.504   7.298 -0.1666 -0.3083  0.2160
   11MOL   O137 1557   3.022   1.446   7.312  0.1711 -0.5321 -0.3326
   11MOL   H138 1558   3.220   1.482   7.500 -0.9401 -1.2893 -1.8163
   11MOL   H139 1559   3.110   1.606   7.484 -0.8731  0.2602 -1.3625
   11MOL   H140 1560   3.220   1.436   7.249 -0.4329  1.1051 -2.2220
   11MOL   H141 1561   2.962   1.519   7.313  1.0713  0.2185 -0.1248
   11MOL   H142 1562   3.161   1.595   7.238 -0.5501  1.0602  2.1670
   12MOL     C1 1563   2.829   0.912   1.608  0.2582  0.3782  0.4976
   12MOL     C2 1564   2.900   0.854   1.731  0.1645 -0.2637  0.4904
   12MOL     O3 1565   3.031   0.844   1.687 -0.2999  0.2026 -0.2132
   12MOL     H4 1566   2.839   0.845   1.523 -0.7494 -0.1826  0.8185
   12MOL     H5 1567   2.869   1.006   1.570 -2.7819  0.4105 -2.9366
   12MOL     H6 1568   2.861   0.753   1.731 -2.7186  0.7957  1.1926
   12MOL     H7 1569   3.031   0.780   1.617 -3.3589  1.2076 -1.2005
   12MOL     H8 1570   2.721   0.925   1.616  0.0233 -0.2875 -1.2170
   12MOL     C9 1571   2.899   0.927   1.865  0.1994  0.5004  0.6621
   12MOL    C10 1572   2.764   0.919   1.943  0.0529 -0.0011 -0.0977
   12MOL    O11 1573   2.715   0.780   1.938 -0.3454 -0.3473 -0.4019
   12MOL    H12 1574   2.975   0.883   1.931  1.3324  0.7985 -0.4263
   12MOL    H13 1575   2.932   1.031   1.865 -0.7318  0.8089 -0.6486
   12MOL    H14 1576   2.688   0.970   1.883  0.4102 -0.7302 -1.1781
   12MOL    H15 1577   2.781   0.722   1.974 -1.5043 -1.0222  0.6662
   12MOL    C16 1578   2.760   0.967   2.084 -0.1531  0.6960  0.2676
   12MOL    C17 1579   2.654   1.068   2.114  0.4359  0.1441  0.0141
   12MOL    O18 1580   2.675   1.204   2.066 -0.2063 -0.3631  0.8292
   12MOL    H19 1581   2.753   0.888   2.159  1.1692  1.3613  1.1174
   12MOL    H20 1582   2.857   1.013   2.104 -0.1382  1.3633 -1.2842
   12MOL    H21 1583   2.648   1.077   2.222 -0.2761 -2.1174  0.1759
   12MOL    H22 1584   2.595   1.251   2.081  0.6297  2.3797 -2.7129
   12MOL    C23 1585   2.511   1.020   2.079 -0.1883 -0.1457 -0.0675
   12MOL    C24 1586   2.446   0.902   2.161  0.2613  1.0819  0.2781
   12MOL    O25 1587   2.479   0.773   2.103 -0.1930 -0.0550  0.3447
   12MOL    H26 1588   2.445   1.105   2.099 -0.2135 -0.2088  0.1273
   12MOL    H27 1589   2.496   1.001   1.973  0.0217 -1.3976  0.1280
   12MOL    H28 1590   2.338   0.899   2.146  0.1736 -1.6340  1.2919
   12MOL    H29 1591   2.554   0.789   2.047  0.6349  0.2230  1.5314
   12MOL    C30 1592   2.478   0.897   2.311 -0.0287 -0.3396  0.5792
   12MOL    C31 1593   2.385   0.806   2.387  0.5072 -0.9033  0.2222
   12MOL    O32 1594   2.433   0.791   2.517  0.8103  0.2248 -0.2657
   12MOL    H33 1595   2.581   0.863   2.321 -0.0667 -0.7216 -0.2490
   12MOL    H34 1596   2.463   0.999   2.346 -1.3522  0.6995 -2.7710
   12MOL    H35 1597   2.391   0.709   2.339 -1.4431 -0.1292 -1.7273
   12MOL    H36 1598   2.442   0.878   2.553 -2.3615  0.6525 -0.3256
   12MOL    C37 1599   2.231   0.844   2.401  0.2803 -1.0291 -0.1682
   12MOL    C38 1600   2.137   0.745   2.471 -0.6240 -0.3021 -0.1130
   12MOL    O39 1601   2.018   0.806   2.510  0.4181  0.4540  0.3998
   12MOL    H40 1602   2.237   0.939   2.454  1.0329 -1.2534  0.1497
   12MOL    H41 1603   2.194   0.865   2.300  0.5134  1.5971  0.2346
   12MOL    H42 1604   2.180   0.719   2.568  0.6188  1.0472 -0.2869
   12MOL    H43 1605   1.956   0.800   2.439 -0.0486 -0.0928  0.8455
   12MOL    C44 1606   2.106   0.617   2.390  0.1270 -0.2380 -0.2850
   12MOL    C45 1607   2.033   0.498   2.458 -0.1273  0.5621  0.3196
   12MOL    O46 1608   1.923   0.473   2.376  0.5850 -0.4166 -0.7611
   12MOL    H47 1609   2.037   0.643   2.310  1.1903  1.2236 -0.7495
   12MOL    H48 1610   2.196   0.587   2.336  1.2708  2.0090  0.3088
   12MOL    H49 1611   1.993   0.524   2.556 -0.2854  1.4570  0.0215
   12MOL    H50 1612   1.972   0.440   2.302  0.4300 -1.6393 -0.3291
   12MOL    C51 1613   2.116   0.372   2.486 -0.1942 -0.8727 -0.1428
   12MOL    C52 1614   2.228   0.390   2.594 -0.6596  0.8923  0.3217
   12MOL    O53 1615   2.177   0.429   2.723 -0.3236  0.3536 -0.6052
   12MOL    H54 1616   2.047   0.299   2.529  0.4752 -1.2018  0.3819
   12MOL    H55 1617   2.158   0.339   2.391  0.9858  2.1341 -0.7137
   12MOL    H56 1618   2.293   0.470   2.558 -0.3390  1.5956  2.3914
   12MOL    H57 1619   2.097   0.383   2.746  0.9494 -1.1427  1.0176
   12MOL    C58 1620   2.301   0.267   2.634 -0.0603 -0.6190 -0.3343
   12MOL    C59 1621   2.393   0.200   2.523  0.5655  0.1107 -0.1238
   12MOL    O60 1622   2.506   0.127   2.578 -0.8345  0.5064  0.3278
   12MOL    H61 1623   2.357   0.286   2.726  0.2703  1.6018 -0.9825
   12MOL    H62 1624   2.225   0.191   2.654  0.1125 -0.6455  0.2478
   12MOL    H63 1625   2.436   0.283   2.467  1.2245 -0.8331 -1.0391
   12MOL    H64 1626   2.474   0.055   2.631  1.7676 -1.3278 -0.4731
   12MOL    C65 1627   2.318   0.114   2.423 -0.0818 -0.4493  0.0890
   12MOL    C66 1628   2.387   0.089   2.293  0.3004 -0.3702 -0.0722
   12MOL    O67 1629   2.326   7.495   2.238 -0.0882 -0.6943 -0.1297
   12MOL    H68 1630   2.294   0.019   2.471  0.8076 -1.3941 -1.3131
   12MOL    H69 1631   2.214   0.147   2.416 -0.2217 -1.1954 -1.5450
   12MOL    H70 1632   2.495   0.079   2.303  0.7763  3.7585  0.1648
   12MOL    H71 1633   2.296   0.003   2.152 -2.0052 -0.9307  0.4426
   12MOL    C72 1634   2.364   0.207   2.195 -0.8033  0.2327  0.0015
   12MOL    C73 1635   2.392   0.182   2.041  0.0562 -1.1044 -0.1655
   12MOL    O74 1636   2.309   0.081   1.994 -0.1247  0.4142 -0.2467
   12MOL    H75 1637   2.270   0.258   2.214 -1.0220  0.5254 -1.7597
   12MOL    H76 1638   2.446   0.276   2.216 -0.1101 -1.2153  2.1674
   12MOL    H77 1639   2.497   0.164   2.017 -0.4909 -0.5874 -3.1180
   12MOL    H78 1640   2.337   0.046   1.912 -1.6163 -0.9665 -0.1825
   12MOL    C79 1641   2.360   0.302   1.949  0.3587 -0.4131 -0.1226
   12MOL    C80 1642   2.423   0.441   1.971  0.5938  0.3422  0.2513
   12MOL    O81 1643   2.376   0.497   2.093  0.3487  0.0709  0.7411
   12MOL    H82 1644   2.388   0.274   1.847  1.1376 -0.8484  0.2101
   12MOL    H83 1645   2.252   0.314   1.937  0.4157  0.8872  0.6491
   12MOL    H84 1646   2.389   0.507   1.892  0.9222 -0.1063 -0.2614
   12MOL    H85 1647   2.421   0.578   2.108  0.7437  0.1419 -0.7050
   12MOL    C86 1648   2.575   0.452   1.970 -0.2805 -0.4112 -0.1903
   12MOL    C87 1649   2.641   0.452   1.822  0.7040 -0.1105  0.1323
   12MOL    O88 1650   2.613   0.579   1.767  0.6945 -0.0253  0.5854
   12MOL    H89 1651   2.615   0.531   2.033 -0.4676 -0.8357  0.4619
   12MOL    H90 1652   2.620   0.375   2.033 -0.9013 -0.6371 -0.0201
   12MOL    H91 1653   2.598   0.368   1.767 -0.5280  0.2821  0.4827
   12MOL    H92 1654   2.643   0.638   1.834  1.4433  0.7454 -0.4419
   12MOL    C93 1655   2.790   0.432   1.816  0.0743  0.7729  0.3273
   12MOL    C94 1656   2.834   0.293   1.841  0.3265 -0.1743 -0.4471
   12MOL    O95 1657   2.900   0.256   1.721  0.3193  0.5465 -0.4801
   12MOL    H96 1658   2.822   0.472   1.720 -0.1487 -1.1384 -0.5633
   12MOL    H97 1659   2.846   0.499   1.881 -0.4462  0.6017  0.9570
   12MOL    H98 1660   2.754   0.219   1.842  0.9329 -0.8356 -0.7462
   12MOL    H99 1661   2.957   0.184   1.745 -0.6211  0.7094  2.4186
   12MOL   C100 1662   2.923   0.267   1.965  0.9358 -0.0586  0.6436
   12MOL   C101 1663   2.909   0.133   2.042 -0.3380 -0.5468 -0.5494
   12MOL   O102 1664   2.951   0.037   1.950 -0.0445  0.6095 -0.3481
   12MOL   H103 1665   3.027   0.286   1.940  0.9266 -1.3555 -0.4516
   12MOL   H104 1666   2.902   0.346   2.037 -0.4275 -0.3600  0.5989
   12MOL   H105 1667   2.808   0.117   2.080  0.3552 -0.6538  1.2852
   12MOL   H106 1668   2.920   7.474   1.984  0.4307  1.2521  1.7055
   12MOL   C107 1669   3.009   0.135   2.165 -0.1188 -0.0534 -0.5296
   12MOL   C108 1670   2.979   0.034   2.274  0.6342 -0.3144 -0.7158
   12MOL   O109 1671   2.964   7.420   2.231  0.3155  0.3977  0.5765
   12MOL   H110 1672   3.108   0.117   2.125  0.7116  0.6769  1.1524
   12MOL   H111 1673   3.005   0.235   2.208  2.0343 -0.4934  0.7370
   12MOL   H112 1674   2.882   0.056   2.317  1.4059 -0.3452  1.0733
   12MOL   H113 1675   3.043   7.377   2.202 -0.6098 -1.9744  1.4679
   12MOL   C114 1676   3.087   0.031   2.381  0.0757  0.1127 -0.4082
   12MOL   C115 1677   3.079   0.157   2.468  0.3982 -0.8368 -0.1728
   12MOL   O116 1678   3.022   0.139   2.592  0.0088 -0.1685  0.4712
   12MOL   H117 1679   3.081   7.460   2.441  0.1020  0.4329  0.0821
   12MOL   H118 1680   3.180   0.028   2.324 -1.0932 -2.0049 -2.2588
   12MOL   H119 1681   3.019   0.239   2.431  1.5065  0.4626  0.8767
   12MOL   H120 1682   2.928   0.135   2.580  0.0088  0.9253 -0.0115
   12MOL   C121 1683   3.223   0.216   2.495  0.2664  0.2124  0.2006
   12MOL   C122 1684   3.296   0.268   2.377  0.8585 -0.5914  0.0043
   12MOL   O123 1685   3.207   0.373   2.331 -0.1605  0.5502 -0.1509
   12MOL   H124 1686   3.214   0.289   2.575  0.8067  1.0152 -0.4588
   12MOL   H125 1687   3.290   0.140   2.535  1.7204  0.5527 -1.4750
   12MOL   H126 1688   3.299   0.193   2.297  1.5132  0.7977 -1.3036
   12MOL   H127 1689   3.249   0.456   2.345  2.1861 -0.4678 -0.8573
   12MOL   C128 1690   3.433   0.323   2.405 -0.1045  0.1249 -0.1324
   12MOL   C129 1691   3.541   0.221   2.431 -0.4683  0.2731 -0.5060
   12MOL   O130 1692   3.541   0.117   2.332  0.0494  0.3346 -0.0048
   12MOL   H131 1693   3.460   0.380   2.316  0.5487 -0.9488 -0.6295
   12MOL   H132 1694   3.447   0.391   2.489  1.6927 -2.4804  1.7531
   12MOL   H133 1695   3.520   0.164   2.522  1.3291  0.2236 -0.1013
   12MOL   H134 1696   3.602   0.054   2.368 -0.1006 -0.1744 -0.6209
   12MOL   C135 1697   3.685   0.271   2.418  1.2013 -0.2066 -0.3382
   12MOL   C136 1698   3.720   0.384   2.513  0.5371 -0.0575 -0.3592
   12MOL   O137 1699   3.855   0.428   2.513  0.1504  0.7689  0.2133
   12MOL   H138 1700   3.755   0.194   2.449  1.7277 -0.0909 -1.2275
   12MOL   H139 1701   3.705   0.311   2.319  1.0913  2.6273  0.7384
   12MOL   H140 1702   3.699   0.353   2.615 -0.0976 -1.0668 -0.7966
   12MOL   H141 1703   3.903   0.347   2.520 -2.4028 -0.7619  0.8213
   12MOL   H142 1704   3.649   0.464   2.492  1.0255  1.2772  2.8408
   13MOL     C1 1705   6.819   5.732   5.771  0.3359  0.0155  0.2949
   13MOL     C2 1706   6.945   5.738   5.861  0.8413 -0.4062 -0.1006
   13MOL     O3 1707   7.038   5.824   5.805 -0.2929  0.0160  0.2661
   13MOL     H4 1708   6.770   5.829   5.758 -3.5006 -1.7858  0.6854
   13MOL     H5 1709   6.751   5.657   5.812 -0.1841  0.4007  0.1408
   13MOL     H6 1710   6.983   5.637   5.878 -0.5767 -0.7221  1.3649
   13MOL     H7 1711   7.000   5.911   5.802 -2.6819 -1.0001 -1.0186
   13MOL     H8 1712   6.844   5.708   5.668  0.3369  0.6255  0.1498
   13MOL     C9 1713   6.912   5.795   6.001  0.1607 -0.3068 -0.6924
   13MOL    C10 1714   6.814   5.710   6.098  0.1259 -0.0691 -0.0797
   13MOL    O11 1715   6.881   5.586   6.110 -0.1302 -0.6349  0.6941
   13MOL    H12 1716   7.010   5.803   6.048  0.3008  2.1045 -1.3355
   13MOL    H13 1717   6.857   5.889   5.998  0.0567 -0.3951 -1.5004
   13MOL    H14 1718   6.724   5.693   6.039  0.4885  0.8364 -0.8950
   13MOL    H15 1719   6.875   5.530   6.034 -0.3266  0.4905 -0.1371
   13MOL    C16 1720   6.771   5.776   6.229  0.2995 -0.5953 -0.1484
   13MOL    C17 1721   6.891   5.835   6.316 -0.5133 -0.1164  0.5823
   13MOL    O18 1722   6.876   5.977   6.306  0.7182  0.0594  0.6946
   13MOL    H19 1723   6.713   5.864   6.199 -1.6712 -1.5598  0.7253
   13MOL    H20 1724   6.698   5.711   6.277  0.3151 -1.0973 -0.8041
   13MOL    H21 1725   6.981   5.797   6.268 -0.3639 -0.4139  1.0964
   13MOL    H22 1726   6.934   6.006   6.237  0.3381  0.1513  0.4129
   13MOL    C23 1727   6.887   5.788   6.462  0.6571  0.4688  0.9685
   13MOL    C24 1728   7.012   5.809   6.552  0.3451 -0.2128  0.3286
   13MOL    O25 1729   7.118   5.729   6.515  0.0805 -0.0832 -0.1113
   13MOL    H26 1730   6.799   5.829   6.511 -0.7377 -0.8813 -0.3198
   13MOL    H27 1731   6.873   5.680   6.458  2.6619  0.1856  0.7618
   13MOL    H28 1732   6.992   5.782   6.656 -1.4380  0.2781  0.1305
   13MOL    H29 1733   7.115   5.650   6.568  2.4712 -0.2971 -0.2310
   13MOL    C30 1734   7.055   5.950   6.555 -0.3212 -0.1063 -0.7461
   13MOL    C31 1735   6.973   6.051   6.641  0.5656  0.2801 -0.1958
   13MOL    O32 1736   6.859   6.086   6.569  0.1985 -0.3531 -0.0932
   13MOL    H33 1737   7.153   5.945   6.604 -0.3839 -0.7985 -0.6847
   13MOL    H34 1738   7.077   5.992   6.457 -0.1878 -0.6778 -0.9641
   13MOL    H35 1739   7.027   6.144   6.656 -0.6739  0.2801  5.7625
   13MOL    H36 1740   6.865   6.058   6.479 -0.3331 -0.0442 -0.2245
   13MOL    C37 1741   6.932   6.009   6.779  0.3582 -0.3494 -0.5342
   13MOL    C38 1742   7.058   5.998   6.874  0.2631  0.1077 -0.5226
   13MOL    O39 1743   7.111   6.122   6.925 -0.0015  0.5265 -0.0280
   13MOL    H40 1744   6.863   6.083   6.819  1.9170  1.3058 -0.8163
   13MOL    H41 1745   6.885   5.911   6.768  0.7052 -0.6747  0.7842
   13MOL    H42 1746   7.143   5.954   6.822 -0.7054 -1.2951 -0.9235
   13MOL    H43 1747   7.050   6.155   6.990 -1.0606  1.3822 -1.4318
   13MOL    C44 1748   7.041   5.905   6.993 -0.0529 -0.1061  0.3037
   13MOL    C45 1749   7.168   5.868   7.059  0.3456 -0.1006 -0.1900
   13MOL    O46 1750   7.237   5.984   7.108  0.3202 -0.5600 -0.2887
   13MOL    H47 1751   6.959   5.940   7.055 -1.2460  0.3482 -1.4886
   13MOL    H48 1752   7.010   5.809   6.951  4.8127 -0.7453 -2.1893
   13MOL    H49 1753   7.240   5.835   6.984 -1.7801 -2.8551 -1.1083
   13MOL    H50 1754   7.245   6.045   7.036  1.2133 -0.0354  0.2474
   13MOL    C51 1755   7.151   5.771   7.180  0.0015  0.4607 -0.5217
   13MOL    C52 1756   7.150   5.620   7.150  0.3137  0.0707  0.6103
   13MOL    O53 1757   7.269   5.581   7.092  0.1505  0.3195 -0.0482
   13MOL    H54 1758   7.226   5.785   7.258 -2.0095  1.9090  1.2237
   13MOL    H55 1759   7.056   5.808   7.220 -0.0274  1.8189 -1.8431
   13MOL    H56 1760   7.071   5.610   7.076  1.5833  2.0418 -1.0896
   13MOL    H57 1761   7.260   5.493   7.060 -3.5400  0.5973  0.0671
   13MOL    C58 1762   7.105   5.547   7.278  0.1381 -0.8972  0.1809
   13MOL    C59 1763   7.073   5.395   7.266  0.2573 -0.1083 -0.2757
   13MOL    O60 1764   7.195   5.316   7.251  0.4270 -0.0224  0.1685
   13MOL    H61 1765   7.188   5.558   7.348 -2.7474 -1.7044  3.8204
   13MOL    H62 1766   7.024   5.600   7.327  0.6600 -0.0478  0.1406
   13MOL    H63 1767   7.030   5.381   7.167  1.2483  0.3202 -0.7792
   13MOL    H64 1768   7.263   5.372   7.216 -1.3759  1.7592 -0.6467
   13MOL    C65 1769   6.995   5.348   7.397  0.2848  0.6766  0.7065
   13MOL    C66 1770   6.852   5.413   7.412  0.2174 -0.0029 -0.2906
   13MOL    O67 1771   6.781   5.389   7.287 -0.4100  0.1878 -0.4218
   13MOL    H68 1772   6.986   5.240   7.388  1.7078  0.7171 -1.8210
   13MOL    H69 1773   7.059   5.357   7.485  1.0630  1.1110  0.1027
   13MOL    H70 1774   6.857   5.519   7.434 -0.4856  0.6218 -2.9036
   13MOL    H71 1775   6.786   5.296   7.269  3.1093  0.5774 -1.8160
   13MOL    C72 1776   6.774   5.339   0.003  0.0288  0.1495  0.1934
   13MOL    C73 1777   6.643   5.399   0.057 -0.5430  0.4646 -0.0874
   13MOL    O74 1778   6.594   5.302   0.143 -0.1728 -0.4212  0.3946
   13MOL    H75 1779   6.747   5.242   7.483 -1.9047  1.3916 -1.6560
   13MOL    H76 1780   6.841   5.325   0.088  1.3662 -1.8911 -1.1784
   13MOL    H77 1781   6.574   5.399   7.492 -1.1007  0.0969  0.3614
   13MOL    H78 1782   6.665   5.290   0.205 -0.6273 -0.8978  0.8310
   13MOL    C79 1783   6.659   5.534   0.123  0.1514  0.0096 -0.1534
   13MOL    C80 1784   6.533   5.593   0.179  0.9006  0.1295 -0.5444
   13MOL    O81 1785   6.562   5.718   0.238  0.5020  0.0044  0.0700
   13MOL    H82 1786   6.732   5.516   0.202 -0.5630 -0.3487  0.4389
   13MOL    H83 1787   6.704   5.595   0.045 -1.5721 -1.0203 -1.9866
   13MOL    H84 1788   6.494   5.522   0.252  0.9341 -1.4033 -2.0120
   13MOL    H85 1789   6.601   5.758   0.162 -0.2614 -0.0195 -0.3387
   13MOL    C86 1790   6.417   5.609   0.075 -1.0740  0.5332  0.0980
   13MOL    C87 1791   6.287   5.677   0.110  0.4352 -0.0147  0.5176
   13MOL    O88 1792   6.218   5.718   7.511  0.3300 -0.3115 -0.6181
   13MOL    H89 1793   6.463   5.657   7.508 -0.6512 -0.3661 -0.1811
   13MOL    H90 1794   6.394   5.511   0.032  1.5748  0.3872 -1.0610
   13MOL    H91 1795   6.315   5.769   0.160  0.6549  0.3116 -0.2001
   13MOL    H92 1796   6.230   5.647   7.449 -0.5448 -1.0618  0.0517
   13MOL    C93 1797   6.200   5.579   0.193 -0.6878  0.2647 -0.1719
   13MOL    C94 1798   6.096   5.658   0.275 -0.1703  0.0800  0.0197
   13MOL    O95 1799   5.984   5.572   0.297  0.3333 -0.0566 -0.4744
   13MOL    H96 1800   6.156   5.504   0.127 -1.0637 -1.5167  2.0480
   13MOL    H97 1801   6.258   5.517   0.261 -0.3509  0.5681 -0.1856
   13MOL    H98 1802   6.057   5.744   0.221  1.2091  0.2078 -0.7977
   13MOL    H99 1803   5.919   5.595   0.232 -1.6024  1.0336  1.7554
   13MOL   C100 1804   6.164   5.701   0.405  0.1833 -0.1700  0.5454
   13MOL   C101 1805   6.079   5.800   0.491  0.5063  0.9442  0.1864
   13MOL   O102 1806   5.968   5.722   0.543  0.1451  0.4291  0.2321
   13MOL   H103 1807   6.207   5.621   0.465 -0.1350 -0.3636  0.5168
   13MOL   H104 1808   6.252   5.756   0.373 -0.0842  0.4036  0.7751
   13MOL   H105 1809   6.033   5.883   0.437  1.2719  1.9255  1.0508
   13MOL   H106 1810   5.936   5.656   0.483  0.0162  2.0281 -1.5005
   13MOL   C107 1811   6.157   5.847   0.615  0.2769 -0.0689  0.1541
   13MOL   C108 1812   6.079   5.946   0.708  0.1935 -0.3913 -1.1279
   13MOL   O109 1813   6.133   5.942   0.837  0.5734 -0.5356  0.7033
   13MOL   H110 1814   6.182   5.748   0.655 -1.6930 -0.6947 -0.1058
   13MOL   H111 1815   6.253   5.889   0.585 -1.2136  1.5060 -2.6162
   13MOL   H112 1816   5.973   5.919   0.707  0.2882 -0.7761 -0.6562
   13MOL   H113 1817   6.227   5.938   0.828  0.5571 -0.9105  0.7016
   13MOL   C114 1818   6.095   6.091   0.651 -0.3142 -0.1581  0.1207
   13MOL   C115 1819   5.984   6.192   0.690 -0.5906  0.4563 -0.2244
   13MOL   O116 1820   6.016   6.328   0.659  0.1359 -0.2090  0.1781
   13MOL   H117 1821   6.189   6.142   0.672 -0.4774  0.5913 -0.8902
   13MOL   H118 1822   6.100   6.080   0.543  0.0067 -2.7663  0.3756
   13MOL   H119 1823   5.984   6.183   0.799  1.0129 -1.1748 -0.3176
   13MOL   H120 1824   5.996   6.380   0.735 -0.4394  0.1520 -0.2115
   13MOL   C121 1825   5.849   6.162   0.632  0.3651  0.3676  0.1212
   13MOL   C122 1826   5.734   6.261   0.675 -0.3495  0.2697 -0.3556
   13MOL   O123 1827   5.625   6.206   0.605 -0.2775 -0.2239  0.6592
   13MOL   H124 1828   5.859   6.169   0.524 -0.8496 -1.8611 -0.1556
   13MOL   H125 1829   5.819   6.061   0.658  1.6226 -0.1602 -0.4467
   13MOL   H126 1830   5.753   6.368   0.660 -1.3611  0.7473  1.5910
   13MOL   H127 1831   5.647   6.199   0.514 -1.5033 -0.6122  0.3870
   13MOL   C128 1832   5.703   6.243   0.826  0.4684  0.9797  0.4628
   13MOL   C129 1833   5.596   6.333   0.879  0.3046  0.7078  0.6038
   13MOL   O130 1834   5.465   6.281   0.846  0.0870 -0.0733  0.3527
   13MOL   H131 1835   5.686   6.139   0.852  2.0289  0.8367  0.9383
   13MOL   H132 1836   5.791   6.252   0.890 -0.6547 -1.9479  2.5150
   13MOL   H133 1837   5.600   6.424   0.819  1.2781  0.0769 -0.2741
   13MOL   H134 1838   5.466   6.284   0.752  1.2668  0.8201  0.3816
   13MOL   C135 1839   5.599   6.356   1.033  0.5892 -0.7045  0.1981
   13MOL   C136 1840   5.717   6.448   1.084  0.0977 -0.2814  0.0006
   13MOL   O137 1841   5.692   6.516   1.208  0.5451 -0.1131 -0.0221
   13MOL   H138 1842   5.508   6.407   1.063  1.4082 -0.2621  2.0163
   13MOL   H139 1843   5.592   6.263   1.088  0.3575 -1.2539 -0.7386
   13MOL   H140 1844   5.771   6.508   1.010  2.1831 -2.9507 -0.7457
   13MOL   H141 1845   5.750   6.589   1.217  1.9346 -1.3320  1.2353
   13MOL   H142 1846   5.798   6.380   1.112  0.9205  0.0772 -1.4280
   14MOL     C1 1847   6.478   4.111   5.618 -0.0348  0.9960 -0.0245
   14MOL     C2 1848   6.615   4.145   5.692 -0.0236  0.4527  0.0641
   14MOL     O3 1849   6.644   4.030   5.770 -0.0930  0.0943 -0.4331
   14MOL     H4 1850   6.407   4.054   5.678 -0.8141  1.1468 -0.7982
   14MOL     H5 1851   6.499   4.058   5.525  1.5979  1.2963  0.1590
   14MOL     H6 1852   6.599   4.234   5.753 -1.6794 -1.1781  2.1183
   14MOL     H7 1853   6.728   4.048   5.808 -0.3267 -0.9210  0.5782
   14MOL     H8 1854   6.431   4.206   5.595 -2.1102 -0.3438 -1.5000
   14MOL     C9 1855   6.729   4.170   5.595  0.3216  0.3484 -0.8021
   14MOL    C10 1856   6.860   4.213   5.665 -0.1739 -0.3242 -0.3098
   14MOL    O11 1857   6.895   4.122   5.771  0.4306 -0.3886  0.5136
   14MOL    H12 1858   6.753   4.081   5.537  1.0837  0.1133 -0.1310
   14MOL    H13 1859   6.709   4.256   5.530 -1.4868  0.2793 -0.3657
   14MOL    H14 1860   6.847   4.312   5.710  0.3410 -0.5335  0.3136
   14MOL    H15 1861   6.988   4.127   5.784  0.7867  0.0021 -1.9338
   14MOL    C16 1862   6.985   4.225   5.569  0.5324 -0.0366 -0.1533
   14MOL    C17 1863   6.979   4.327   5.448 -0.4204 -0.0549 -0.0493
   14MOL    O18 1864   7.036   4.446   5.484 -0.3603 -0.5282 -0.2196
   14MOL    H19 1865   7.084   4.231   5.613 -0.0594 -1.5679  1.4275
   14MOL    H20 1866   6.997   4.126   5.526  1.9214  0.1065 -0.1151
   14MOL    H21 1867   6.882   4.355   5.407 -1.9583 -1.8673  2.2737
   14MOL    H22 1868   7.129   4.442   5.467  0.6131  1.4427  3.9193
   14MOL    C23 1869   7.066   4.265   5.330 -0.0114 -0.0855 -0.0530
   14MOL    C24 1870   6.980   4.156   5.258 -0.0056 -0.1421  0.3196
   14MOL    O25 1871   6.876   4.226   5.200 -0.2703 -0.1940  0.3936
   14MOL    H26 1872   7.092   4.335   5.250 -1.4096 -0.2760 -0.6889
   14MOL    H27 1873   7.163   4.228   5.363 -0.4723  0.6337  2.2199
   14MOL    H28 1874   6.952   4.073   5.323 -0.6254 -0.2858 -0.1242
   14MOL    H29 1875   6.841   4.172   5.130  0.7542 -0.2322 -0.0962
   14MOL    C30 1876   7.067   4.092   5.143  0.7675 -0.7239  0.2212
   14MOL    C31 1877   7.024   3.948   5.098  0.4118  0.0296  0.3030
   14MOL    O32 1878   6.896   3.954   5.021 -0.0353 -0.0234  0.1152
   14MOL    H33 1879   7.081   4.161   5.060 -0.0820 -0.7681  0.0323
   14MOL    H34 1880   7.168   4.086   5.183  0.1810  2.6491  2.3672
   14MOL    H35 1881   7.004   3.888   5.187  1.1661  0.6901  0.9288
   14MOL    H36 1882   6.849   3.873   5.036 -1.4283  0.8596  0.6028
   14MOL    C37 1883   7.121   3.878   5.001 -0.3559  0.4039 -0.5570
   14MOL    C38 1884   7.241   3.807   5.071 -0.2657 -0.3802  0.0898
   14MOL    O39 1885   7.190   3.714   5.165  0.3217 -0.4368 -0.3251
   14MOL    H40 1886   7.082   3.801   4.934 -0.7950 -0.7615  1.0069
   14MOL    H41 1887   7.150   3.953   4.927 -0.7541  1.3724  0.2576
   14MOL    H42 1888   7.306   3.872   5.130 -1.1035 -0.3576  1.0068
   14MOL    H43 1889   7.257   3.698   5.231  0.7642  1.3790 -0.3149
   14MOL    C44 1890   7.340   3.741   4.967 -0.3220  0.7666 -0.0338
   14MOL    C45 1891   7.446   3.644   5.023  0.2702  0.6627  0.0524
   14MOL    O46 1892   7.478   3.557   4.915  0.5309 -0.1569 -0.2727
   14MOL    H47 1893   7.274   3.684   4.901  0.0055  0.2872  0.0505
   14MOL    H48 1894   7.378   3.817   4.900  1.0195  0.7421  0.6925
   14MOL    H49 1895   7.410   3.569   5.093  0.6002  0.6684  0.2306
   14MOL    H50 1896   0.015   3.486   4.942  0.4514  0.1576  0.7116
   14MOL    C51 1897   0.057   3.712   5.063  0.1779 -0.1176  0.2495
   14MOL    C52 1898   0.054   3.793   5.186  0.0388  0.1128 -0.2157
   14MOL    O53 1899   7.518   3.715   5.294 -0.2672 -0.0358 -0.2088
   14MOL    H54 1900   0.122   3.626   5.083  1.5452  0.8913  0.2597
   14MOL    H55 1901   0.088   3.767   4.974  0.0774 -0.6373 -0.1071
   14MOL    H56 1902   7.500   3.867   5.156 -0.1569  0.1751  0.4052
   14MOL    H57 1903   7.491   3.781   5.355  0.1287  1.2238 -1.3643
   14MOL    C58 1904   0.189   3.841   5.235  0.3979  0.3092 -0.9328
   14MOL    C59 1905   0.184   3.950   5.351  0.1477 -0.2955  0.0198
   14MOL    O60 1906   0.315   3.967   5.403 -0.6960 -0.0707 -0.0076
   14MOL    H61 1907   0.250   3.758   5.271  0.8836  0.3429 -1.6671
   14MOL    H62 1908   0.238   3.885   5.148  0.8137  2.3528  0.3149
   14MOL    H63 1909   0.119   3.917   5.432  1.9510 -1.4531  1.0228
   14MOL    H64 1910   0.356   4.026   5.342 -0.9164  1.4257  1.2552
   14MOL    C65 1911   0.143   4.095   5.308 -0.1439 -0.0800 -0.5440
   14MOL    C66 1912   0.074   4.185   5.421  0.0617  0.6853  0.0979
   14MOL    O67 1913   0.101   4.313   5.375 -0.3961 -0.5175  0.6013
   14MOL    H68 1914   0.228   4.151   5.268 -0.7276  0.3729 -1.1715
   14MOL    H69 1915   0.076   4.089   5.222 -1.3449  2.1652  0.1775
   14MOL    H70 1916   0.134   4.162   5.510  0.1075  0.1518 -0.0688
   14MOL    H71 1917   0.188   4.338   5.401  0.5008  0.0607 -2.7874
   14MOL    C72 1918   7.438   4.172   5.445  0.0350 -0.1266 -1.1485
   14MOL    C73 1919   7.378   4.046   5.517  0.3059  0.7059 -0.1231
   14MOL    O74 1920   7.376   3.938   5.429  0.3770  0.2793  0.3951
   14MOL    H75 1921   7.411   4.259   5.504 -0.3838 -0.6387 -0.5735
   14MOL    H76 1922   7.378   4.190   5.356 -2.3050 -0.5616  0.3050
   14MOL    H77 1923   7.273   4.066   5.537 -0.3689 -2.9259  0.3561
   14MOL    H78 1924   7.323   3.879   5.480  0.6459 -0.4647 -0.1831
   14MOL    C79 1925   7.452   4.005   5.645  0.5079  0.3281  0.5633
   14MOL    C80 1926   7.472   4.117   5.753 -0.2418  0.5884 -0.5124
   14MOL    O81 1927   7.351   4.181   5.768  0.0854 -0.0238  0.1281
   14MOL    H82 1928   7.399   3.918   5.683  2.7015 -1.2598  0.1227
   14MOL    H83 1929   0.027   3.958   5.617  0.1047  0.1512 -0.4850
   14MOL    H84 1930   0.028   4.186   5.715 -0.2599  1.6983  1.3760
   14MOL    H85 1931   7.287   4.135   5.820  0.0860  0.2059  0.3359
   14MOL    C86 1932   7.496   4.052   5.889 -0.5793  0.2408 -0.1929
   14MOL    C87 1933   0.126   4.003   5.908 -0.2728 -0.8338  0.3015
   14MOL    O88 1934   0.189   4.109   5.987 -0.6665  1.0970 -0.0355
   14MOL    H89 1935   7.464   4.121   5.968 -1.2756  0.0125 -0.2671
   14MOL    H90 1936   7.419   3.975   5.898  0.2377 -0.8022 -2.0271
   14MOL    H91 1937   0.183   3.996   5.815 -0.6797  0.4325 -0.0533
   14MOL    H92 1938   0.277   4.106   5.952 -1.3057 -0.4930 -1.5987
   14MOL    C93 1939   0.133   3.872   5.989 -0.0481 -0.0512 -0.0864
   14MOL    C94 1940   0.097   3.747   5.905 -0.3816 -1.1360  0.3447
   14MOL    O95 1941   0.217   3.704   5.841  0.8321  0.3485  0.0826
   14MOL    H96 1942   0.231   3.847   6.031  0.3496 -2.1793 -2.1781
   14MOL    H97 1943   0.075   3.888   6.080 -0.7362  1.7795 -0.8199
   14MOL    H98 1944   0.024   3.772   5.829  1.3538 -1.2490 -1.4133
   14MOL    H99 1945   0.261   3.756   5.776  0.6692 -1.2349 -1.3341
   14MOL   C100 1946   0.046   3.631   5.995 -0.0716  0.1019 -1.1803
   14MOL   C101 1947   7.511   3.501   5.926  0.3895  0.4806  0.8543
   14MOL   O102 1948   7.395   3.535   5.846 -0.8403 -0.2321 -0.0073
   14MOL   H103 1949   0.126   3.602   6.064 -1.3326 -0.0024  0.2502
   14MOL   H104 1950   7.485   3.662   6.062  0.6911  0.4268 -0.3920
   14MOL   H105 1951   7.474   3.434   6.003 -1.4561 -0.1958 -0.5619
   14MOL   H106 1952   7.321   3.548   5.904  1.0626  0.2485  2.4375
   14MOL   C107 1953   0.094   3.434   5.826 -0.5337 -0.4513 -0.7907
   14MOL   C108 1954   0.223   3.370   5.896 -0.6236  0.2280  0.2189
   14MOL   O109 1955   0.316   3.467   5.957  0.5119 -0.0673 -1.1959
   14MOL   H110 1956   0.041   3.350   5.781 -0.1359  0.1415 -2.4009
   14MOL   H111 1957   0.115   3.497   5.740 -0.2428 -1.0019 -1.1192
   14MOL   H112 1958   0.276   3.333   5.808  0.5318 -2.2316  1.9029
   14MOL   H113 1959   0.302   3.546   5.907  2.0690  0.4259 -0.8712
   14MOL   C114 1960   0.199   3.257   5.993 -0.2867 -0.0136 -0.3016
   14MOL   C115 1961   0.313   3.176   6.066  0.1586 -0.1257 -0.4229
   14MOL   O116 1962   0.263   3.055   6.135  0.2792 -0.7630  0.4083
   14MOL   H117 1963   0.123   3.290   6.064  1.1517  0.7078  0.9490
   14MOL   H118 1964   0.157   3.184   5.924 -1.3319  1.4559 -1.2589
   14MOL   H119 1965   0.368   3.232   6.142  1.9734 -0.3423 -1.5494
   14MOL   H120 1966   0.335   2.995   6.143 -1.3744 -2.7192  1.0183
   14MOL   C121 1967   0.419   3.127   5.963  0.3691 -0.4837  0.2128
   14MOL   C122 1968   0.545   3.057   6.022  0.7425  0.2442  0.3196
   14MOL   O123 1969   0.508   2.939   6.077 -0.3622  0.4659  0.4852
   14MOL   H124 1970   0.359   3.070   5.893 -0.4780 -2.8939  2.8363
   14MOL   H125 1971   0.450   3.216   5.907  0.5559  0.4687  1.7829
   14MOL   H126 1972   0.585   3.127   6.096 -0.8193  1.4373  0.0667
   14MOL   H127 1973   0.579   2.877   6.076 -1.1005 -0.4022 -0.7171
   14MOL   C128 1974   0.652   3.039   5.910 -0.0297  0.3067  0.1030
   14MOL   C129 1975   0.781   2.968   5.958  0.1427  0.0525  0.0684
   14MOL   O130 1976   0.747   2.838   5.986 -0.1963  0.4725 -0.1645
   14MOL   H131 1977   0.610   2.979   5.829  0.6328 -0.5864  0.4156
   14MOL   H132 1978   0.683   3.134   5.868  1.9281 -0.2592  0.2047
   14MOL   H133 1979   0.809   3.031   6.043  1.2476  1.0170 -0.9821
   14MOL   H134 1980   0.738   2.800   5.899  1.3524  0.4579 -0.3385
   14MOL   C135 1981   0.895   2.984   5.854  0.3173 -0.3429 -0.8451
   14MOL   C136 1982   1.033   2.965   5.905  0.4398  0.1542 -0.5580
   14MOL   O137 1983   1.129   2.975   5.805 -0.0157  0.9347  0.4491
   14MOL   H138 1984   0.884   2.916   5.769 -2.2226  0.6100 -1.3219
   14MOL   H139 1985   0.884   3.087   5.819  0.1884 -0.2334 -0.4812
   14MOL   H140 1986   1.038   2.869   5.956 -1.0903 -0.1052 -0.8928
   14MOL   H141 1987   1.201   2.917   5.827 -0.5308  0.7793  1.7631
   14MOL   H142 1988   1.050   3.039   5.983 -1.1724  0.3492 -0.3848
   15MOL     C1 1989   7.299   1.132   0.043 -0.8844  0.1567 -0.3391
   15MOL     C2 1990   7.238   0.993   0.083  0.1561 -0.5747  0.6425
   15MOL     O3 1991   7.112   1.029   0.136 -0.0074  0.9789  0.1199
   15MOL     H4 1992   7.314   1.203   0.123  0.4917 -0.9534  0.4166
   15MOL     H5 1993   7.245   1.179   7.480 -1.4447 -0.1504 -0.1511
   15MOL     H6 1994   7.298   0.946   0.161 -0.2922  1.8320  2.4742
   15MOL     H7 1995   7.124   1.009   0.228  0.0591 -1.0598 -0.3089
   15MOL     H8 1996   7.399   1.106   0.009 -2.1271 -4.0009 -1.1342
   15MOL     C9 1997   7.225   0.895   7.479 -0.4072 -0.1744 -0.3237
   15MOL    C10 1998   7.146   0.768   0.004  0.1313 -0.4820  0.5427
   15MOL    O11 1999   7.116   0.699   7.396 -0.1475  0.4426 -0.2076
   15MOL    H12 2000   7.182   0.959   7.403  0.5093  1.1887  0.2783
   15MOL    H13 2001   7.325   0.867   7.446  0.4636  1.0166  1.2227
   15MOL    H14 2002   7.051   0.795   0.049 -0.3745  1.4253 -1.5299
   15MOL    H15 2003   7.067   0.756   7.339  0.6437  1.0686 -0.2639
   15MOL    C16 2004   7.229   0.675   0.092  0.7055 -0.4022  1.6698
   15MOL    C17 2005   7.146   0.564   0.134  0.3223  0.0548 -0.9598
   15MOL    O18 2006   7.232   0.456   0.149 -0.1104 -0.0112 -0.3112
   15MOL    H19 2007   7.304   0.636   0.024 -0.7814  1.3352 -1.0951
   15MOL    H20 2008   7.270   0.729   0.177 -0.6194  2.0732  0.7771
   15MOL    H21 2009   7.077   0.529   0.057 -0.8638 -1.1041  0.5889
   15MOL    H22 2010   7.319   0.490   0.162  0.4253 -1.1288 -0.8906
   15MOL    C23 2011   7.096   0.571   0.286 -0.0013 -0.1092  0.1017
   15MOL    C24 2012   7.019   0.701   0.328 -0.2772 -0.2582 -0.1673
   15MOL    O25 2013   6.895   0.699   0.264 -0.5768  0.4283 -0.9404
   15MOL    H26 2014   7.051   0.474   0.305 -0.7727  0.2629  0.2185
   15MOL    H27 2015   7.183   0.578   0.351 -1.6972  0.4549  2.3880
   15MOL    H28 2016   7.072   0.790   0.294  0.0431 -1.2762 -2.4241
   15MOL    H29 2017   6.854   0.780   0.290 -0.4081  0.2989 -0.2639
   15MOL    C30 2018   6.988   0.702   0.482  0.1558  0.4220  0.7108
   15MOL    C31 2019   7.022   0.829   0.572  0.1421  0.5995  0.2158
   15MOL    O32 2020   6.943   0.818   0.691  0.3073 -0.5886 -0.1491
   15MOL    H33 2021   6.879   0.695   0.487  0.3136 -1.4459  2.0163
   15MOL    H34 2022   7.027   0.607   0.518 -0.5113 -0.2997 -0.4793
   15MOL    H35 2023   6.976   0.920   0.535 -0.0216 -0.0037 -1.0862
   15MOL    H36 2024   6.858   0.782   0.672 -0.5744  0.2894  1.9837
   15MOL    C37 2025   7.166   0.842   0.607 -0.2780  0.4416  0.2053
   15MOL    C38 2026   7.270   0.898   0.494  0.2206  0.4524 -0.5320
   15MOL    O39 2027   7.210   0.993   0.407 -0.3881 -0.2254  0.2167
   15MOL    H40 2028   7.152   0.909   0.691 -0.3564 -2.2118  2.3933
   15MOL    H41 2029   7.200   0.748   0.650  1.1171  1.6725  1.8615
   15MOL    H42 2030   7.297   0.818   0.426  1.9667 -0.2863  1.0027
   15MOL    H43 2031   7.242   1.081   0.419 -2.0947  0.6636 -1.5121
   15MOL    C44 2032   7.405   0.951   0.542 -0.1674  0.3386 -0.2138
   15MOL    C45 2033   0.003   0.853   0.563 -1.2550  0.5444  0.1193
   15MOL    O46 2034   7.464   0.735   0.625 -0.2805 -0.2706 -0.3241
   15MOL    H47 2035   7.441   1.036   0.484 -0.9457  0.4458 -0.5453
   15MOL    H48 2036   7.390   1.000   0.638  1.5506 -2.5975  1.6427
   15MOL    H49 2037   0.063   0.908   0.636  0.9120  1.1170 -2.0108
   15MOL    H50 2038   7.450   0.753   0.717 -0.4112 -0.0493 -0.3871
   15MOL    C51 2039   0.075   0.799   0.440  0.2876  0.3401 -0.5579
   15MOL    C52 2040   0.224   0.752   0.456 -0.4188  0.2950 -0.0709
   15MOL    O53 2041   0.279   0.724   0.331 -0.4390  0.3903 -0.0106
   15MOL    H54 2042   0.015   0.731   0.381  0.9881 -1.5352  0.8384
   15MOL    H55 2043   0.095   0.889   0.381 -0.0332 -0.7156 -2.3085
   15MOL    H56 2044   0.225   0.662   0.518 -3.2916 -0.3446 -0.8869
   15MOL    H57 2045   0.369   0.699   0.347 -0.7823 -0.9757 -0.1302
   15MOL    C58 2046   0.328   0.850   0.526 -0.6301  0.2121 -0.0939
   15MOL    C59 2047   0.437   0.764   0.596 -0.4120 -0.1152 -0.7863
   15MOL    O60 2048   0.497   0.671   0.518 -0.2743  0.3725  0.5148
   15MOL    H61 2049   0.381   0.914   0.456 -0.6313  0.3693  0.0493
   15MOL    H62 2050   0.271   0.906   0.599  0.5045 -0.0786  1.0269
   15MOL    H63 2051   0.379   0.714   0.673 -0.4778  1.8154  0.4448
   15MOL    H64 2052   0.554   0.611   0.564  2.6412  1.9637 -0.8976
   15MOL    C65 2053   0.545   0.844   0.659  0.0031  0.5120  0.2416
   15MOL    C66 2054   0.602   0.789   0.789 -0.5318 -0.1377 -0.0655
   15MOL    O67 2055   0.737   0.832   0.780  0.2438  0.7197 -0.4052
   15MOL    H68 2056   0.619   0.870   0.584 -0.6116 -0.2415 -0.6419
   15MOL    H69 2057   0.498   0.933   0.702  0.2136  1.1942 -0.9253
   15MOL    H70 2058   0.605   0.680   0.786  0.8827 -0.0673 -1.5235
   15MOL    H71 2059   0.741   0.925   0.760  3.7260  1.1951  2.0928
   15MOL    C72 2060   0.547   0.834   0.931 -0.6834  0.1712 -0.2100
   15MOL    C73 2061   0.408   0.775   0.968 -0.2934  0.3589 -0.4176
   15MOL    O74 2062   0.413   0.768   1.108 -0.4102  0.1113  0.0379
   15MOL    H75 2063   0.618   0.787   0.999 -3.1636 -2.1558  0.8517
   15MOL    H76 2064   0.558   0.942   0.948  1.4921 -0.1069  0.2048
   15MOL    H77 2065   0.391   0.673   0.934  0.6761 -0.5380  1.6962
   15MOL    H78 2066   0.459   0.688   1.128  1.2643  1.0169 -0.1007
   15MOL    C79 2067   0.296   0.881   0.932  0.2624  0.0273 -0.4804
   15MOL    C80 2068   0.148   0.852   0.956 -0.2015  0.0667  0.0194
   15MOL    O81 2069   0.074   0.955   0.892  0.3186 -0.2283 -0.4670
   15MOL    H82 2070   0.317   0.983   0.962 -0.2160  0.0843 -0.3316
   15MOL    H83 2071   0.295   0.887   0.823 -1.1725  3.1776 -0.3544
   15MOL    H84 2072   0.140   0.872   1.063 -2.1949 -1.3223  0.1586
   15MOL    H85 2073   0.125   1.034   0.886 -0.3484  0.4287  1.8460
   15MOL    C86 2074   0.086   0.721   0.907  0.6277 -0.0492 -0.0762
   15MOL    C87 2075   7.463   0.702   0.961  0.7248  0.0408 -0.6221
   15MOL    O88 2076   7.380   0.786   0.882  0.0509  0.4680  0.0490
   15MOL    H89 2077   0.090   0.694   0.802 -2.9882 -2.5883  0.3448
   15MOL    H90 2078   0.141   0.646   0.964 -1.3251 -0.4085  1.3773
   15MOL    H91 2079   7.456   0.729   1.066 -0.5084  0.0294 -0.6977
   15MOL    H92 2080   7.428   0.868   0.879 -1.4239  1.3348 -0.7796
   15MOL    C93 2081   7.428   0.555   0.941  1.0389 -0.2751 -0.0004
   15MOL    C94 2082   7.314   0.508   1.032  0.4008 -0.0096 -0.1708
   15MOL    O95 2083   7.193   0.575   0.997  0.2276  0.0451  0.2508
   15MOL    H96 2084   7.405   0.537   0.836 -1.4761  0.0830  0.4750
   15MOL    H97 2085   7.513   0.493   0.972  0.4347 -0.0162  2.2363
   15MOL    H98 2086   7.345   0.537   1.132 -3.5454  2.3662  0.4927
   15MOL    H99 2087   7.217   0.657   0.957  0.6725  0.0742  0.5739
   15MOL   C100 2088   7.282   0.360   1.016 -0.0257  0.2209  0.1386
   15MOL   C101 2089   7.394   0.257   1.056 -0.5386 -0.1547  0.0374
   15MOL   O102 2090   7.425   0.250   1.192 -0.6024 -0.0195  0.3198
   15MOL   H103 2091   7.191   0.336   1.071 -0.4717 -0.9282 -1.0780
   15MOL   H104 2092   7.253   0.344   0.913 -1.0500 -1.5660  0.6772
   15MOL   H105 2093   7.488   0.292   1.014 -1.0141  0.5396 -0.4675
   15MOL   H106 2094   7.479   0.173   1.204 -0.3919  0.2622  1.2461
   15MOL   C107 2095   7.359   0.117   0.994  0.0831 -0.1954 -0.2839
   15MOL   C108 2096   7.471   0.022   0.969 -0.0195 -1.3174  0.5040
   15MOL   O109 2097   0.006   0.008   1.099  0.3056 -0.7585 -0.0936
   15MOL   H110 2098   7.278   0.082   1.058  0.3679 -0.6382 -0.1665
   15MOL   H111 2099   7.315   0.123   0.895  0.7808  0.6391 -0.5488
   15MOL   H112 2100   0.030   0.061   0.904 -1.6681 -1.3502 -1.5679
   15MOL   H113 2101   0.086   7.477   1.089  0.3442 -0.7947  0.3852
   15MOL   C114 2102   7.417   7.400   0.925 -0.1088  0.1912 -0.4359
   15MOL   C115 2103   0.000   7.310   0.857  0.6745 -0.0230 -0.1723
   15MOL   O116 2104   0.106   7.272   0.943 -0.1026 -0.1362  0.0949
   15MOL   H117 2105   7.383   7.349   1.016 -2.5361  2.3136 -0.0893
   15MOL   H118 2106   7.324   7.406   0.869 -0.1634 -1.3159 -0.5385
   15MOL   H119 2107   0.039   7.370   0.774 -0.5150 -2.0669 -2.2641
   15MOL   H120 2108   0.058   7.243   1.019 -1.5880 -0.7430 -1.0523
   15MOL   C121 2109   7.452   7.189   0.791  0.3299  0.0180 -0.1013
   15MOL   C122 2110   7.484   7.168   0.641 -0.1548  1.2929 -0.8268
   15MOL   O123 2111   7.446   7.036   0.596  0.4405  0.1098 -0.1937
   15MOL   H124 2112   7.488   7.101   0.845 -1.5652 -1.5564 -1.3348
   15MOL   H125 2113   7.345   7.184   0.811  0.2301  1.1365 -0.3758
   15MOL   H126 2114   0.070   7.175   0.615 -0.2151  0.8783 -1.1774
   15MOL   H127 2115   7.419   7.052   0.507 -3.2882  1.2964  1.0394
   15MOL   C128 2116   7.404   7.263   0.557  0.2089 -0.5392  1.3926
   15MOL   C129 2117   7.430   7.237   0.405 -0.0019  1.2661 -0.9844
   15MOL   O130 2118   7.354   7.128   0.357 -0.0822  0.1923 -0.2674
   15MOL   H131 2119   7.296   7.262   0.572 -0.1006  1.4775 -0.4833
   15MOL   H132 2120   7.432   7.364   0.588 -0.0685 -0.7624  2.3940
   15MOL   H133 2121   0.013   7.221   0.373 -0.5518 -1.7599 -1.3813
   15MOL   H134 2122   7.262   7.146   0.372  0.0421  0.0159  0.7105
   15MOL   C135 2123   7.381   7.361   0.315 -0.0963  0.2828 -0.3024
   15MOL   C136 2124   7.489   7.469   0.298 -0.3196 -0.1305  0.0853
   15MOL   O137 2125   0.005   0.009   0.419 -0.0024  0.0843  0.1398
   15MOL   H138 2126   7.368   7.329   0.212 -0.4816 -2.4707  0.5620
   15MOL   H139 2127   7.291   7.409   0.354 -1.8297 -1.7840 -1.6808
   15MOL   H140 2128   7.445   0.020   0.228 -1.0237 -0.7746 -0.1317
   15MOL   H141 2129   0.070   7.478   0.466 -0.7134  1.2058  2.3808
   15MOL   H142 2130   0.056   7.430   0.245 -1.8290 -0.2997 -2.3293
   16MOL     C1 2131   1.783   3.890   3.267 -0.1360  0.2122  0.6716
   16MOL     C2 2132   1.753   3.810   3.146  0.0741  0.3753  0.3608
   16MOL     O3 2133   1.754   3.678   3.186  0.2745  0.2010 -0.4614
   16MOL     H4 2134   1.796   3.997   3.251 -0.2647  0.1085 -0.1464
   16MOL     H5 2135   1.877   3.861   3.314 -1.7269 -3.1314  1.9405
   16MOL     H6 2136   1.830   3.823   3.070  0.6741  1.1708  1.1014
   16MOL     H7 2137   1.845   3.653   3.179  0.3972 -0.0097  1.6156
   16MOL     H8 2138   1.709   3.870   3.345  2.9417  0.7129  3.8755
   16MOL     C9 2139   1.621   3.833   3.083  0.4291 -0.0010 -0.2302
   16MOL    C10 2140   1.594   3.971   3.024 -0.5902 -0.4914  0.4436
   16MOL    O11 2141   1.644   3.981   2.889  0.0276 -0.1542 -0.0761
   16MOL    H12 2142   1.601   3.753   3.012 -0.0613 -0.1374  0.0611
   16MOL    H13 2143   1.546   3.803   3.156  0.4516  3.5830  1.3870
   16MOL    H14 2144   1.647   4.053   3.074  1.2328 -0.4348 -1.5044
   16MOL    H15 2145   1.736   4.002   2.893 -0.0540  0.4968 -1.4212
   16MOL    C16 2146   1.455   4.015   3.028  0.3829  0.2219  0.0259
   16MOL    C17 2147   1.403   4.036   3.179 -0.0186 -0.0477  0.2854
   16MOL    O18 2148   1.439   4.166   3.213 -0.1569  0.5276  0.3021
   16MOL    H19 2149   1.446   4.108   2.972  0.3178  0.1610 -0.0636
   16MOL    H20 2150   1.395   3.937   2.981  1.0205 -0.7004  0.7255
   16MOL    H21 2151   1.458   3.975   3.252 -0.1789  0.7985  1.1201
   16MOL    H22 2152   1.367   4.225   3.198 -0.8230 -0.1356  0.8535
   16MOL    C23 2153   1.252   4.010   3.194  0.1628 -0.9673  0.7289
   16MOL    C24 2154   1.219   3.861   3.170  0.4833 -0.2123  0.1360
   16MOL    O25 2155   1.270   3.786   3.282  0.4235  0.4727  0.7273
   16MOL    H26 2156   1.210   4.052   3.285 -0.9449 -0.1354 -0.1367
   16MOL    H27 2157   1.199   4.077   3.126  0.6791 -2.5063 -1.2344
   16MOL    H28 2158   1.266   3.823   3.079  0.8299  2.9668 -1.1110
   16MOL    H29 2159   1.271   3.694   3.259 -2.3349  0.4841  0.3266
   16MOL    C30 2160   1.072   3.835   3.159  0.1485 -0.2232 -0.1330
   16MOL    C31 2161   0.971   3.905   3.261 -0.4432  0.2640  0.3861
   16MOL    O32 2162   0.839   3.906   3.217 -0.5260 -0.1555 -0.0071
   16MOL    H33 2163   1.040   3.866   3.059 -1.5823 -2.0749 -0.1704
   16MOL    H34 2164   1.047   3.729   3.161 -0.0240 -0.2215 -1.6314
   16MOL    H35 2165   1.009   4.008   3.258  2.5320 -0.8076 -0.7029
   16MOL    H36 2166   0.825   3.970   3.149  0.6325  1.3607  1.1274
   16MOL    C37 2167   0.974   3.843   3.401  0.3472  0.5298  0.4330
   16MOL    C38 2168   1.065   3.909   3.514 -0.3799 -0.4709  0.0159
   16MOL    O39 2169   0.985   4.006   3.568 -0.0802  0.4007 -0.1128
   16MOL    H40 2170   0.870   3.828   3.432  0.0369  0.9115 -0.4003
   16MOL    H41 2171   0.997   3.737   3.390 -2.4568 -0.2087  1.2202
   16MOL    H42 2172   1.161   3.943   3.473 -0.6543  0.2360 -0.0550
   16MOL    H43 2173   0.962   4.070   3.502 -0.0444 -1.5502 -2.0554
   16MOL    C44 2174   1.102   3.809   3.625 -0.0194 -0.0144 -0.4172
   16MOL    C45 2175   1.219   3.715   3.592  0.2891 -0.2816  0.2961
   16MOL    O46 2176   1.338   3.782   3.570  0.6604 -0.4532  0.0937
   16MOL    H47 2177   1.120   3.877   3.708 -0.2289  1.8335 -1.8626
   16MOL    H48 2178   1.011   3.756   3.653 -0.7637  0.3299 -2.1107
   16MOL    H49 2179   1.207   3.669   3.493 -0.3971 -2.0753  1.1864
   16MOL    H50 2180   1.346   3.807   3.479 -2.1647  1.1809  0.2330
   16MOL    C51 2181   1.239   3.592   3.689 -0.9348  0.1199 -0.1462
   16MOL    C52 2182   1.298   3.616   3.824  0.0092  0.5136  0.2336
   16MOL    O53 2183   1.197   3.621   3.918  0.2631 -0.3625 -0.2434
   16MOL    H54 2184   1.147   3.533   3.690 -0.3100 -0.8556  0.9995
   16MOL    H55 2185   1.307   3.527   3.634  0.5894  2.8182 -1.5203
   16MOL    H56 2186   1.335   3.718   3.835 -1.9025  1.2902 -0.3790
   16MOL    H57 2187   1.227   3.684   3.982 -3.2058  1.8542 -0.6530
   16MOL    C58 2188   1.404   3.508   3.865  0.6062  0.3182 -0.0672
   16MOL    C59 2189   1.528   3.530   3.778  0.7520 -0.4216 -0.2837
   16MOL    O60 2190   1.639   3.555   3.861  0.5834 -0.0153  0.2175
   16MOL    H61 2191   1.433   3.531   3.967  0.3759  0.4908 -0.0387
   16MOL    H62 2192   1.357   3.409   3.862  0.7996  0.2522 -1.0742
   16MOL    H63 2193   1.502   3.617   3.717  0.1306 -0.3193  0.1250
   16MOL    H64 2194   1.698   3.614   3.816 -0.1255  0.7433  0.2831
   16MOL    C65 2195   1.549   3.405   3.682  0.0194 -0.3310  0.2601
   16MOL    C66 2196   1.652   3.429   3.572  0.1429  0.2772 -0.6133
   16MOL    O67 2197   1.734   3.308   3.567  0.2466 -0.4065  0.4636
   16MOL    H68 2198   1.575   3.320   3.744 -0.9613  0.7771  2.2319
   16MOL    H69 2199   1.459   3.379   3.627 -1.4110 -0.4537  2.6321
   16MOL    H70 2200   1.713   3.516   3.594  1.2495 -0.8604  0.8940
   16MOL    H71 2201   1.796   3.329   3.636 -1.2458 -1.8721  2.2844
   16MOL    C72 2202   1.605   3.442   3.422 -0.0525 -0.3622 -0.3510
   16MOL    C73 2203   1.502   3.543   3.380 -0.2344  0.5013  1.0024
   16MOL    O74 2204   1.567   3.666   3.371  0.1027 -0.4469  0.1680
   16MOL    H75 2205   1.697   3.453   3.365 -0.0559  1.9282  0.0405
   16MOL    H76 2206   1.580   3.336   3.409  2.8491 -1.2387  0.6919
   16MOL    H77 2207   1.417   3.547   3.449 -2.2107 -2.6888 -1.0785
   16MOL    H78 2208   1.629   3.671   3.300  2.5774  2.3065  2.3951
   16MOL    C79 2209   1.445   3.514   3.231 -0.6427  0.5203 -0.0951
   16MOL    C80 2210   1.312   3.434   3.220 -0.4178 -0.4583 -0.2549
   16MOL    O81 2211   1.205   3.528   3.193 -0.0951  0.3162 -0.3705
   16MOL    H82 2212   1.441   3.607   3.173 -0.1104 -0.2774 -1.4245
   16MOL    H83 2213   1.508   3.454   3.166 -0.2015 -0.3403  1.1078
   16MOL    H84 2214   1.291   3.394   3.319  0.6554  1.9058  0.9490
   16MOL    H85 2215   1.127   3.480   3.172 -1.4996  3.4597 -2.7630
   16MOL    C86 2216   1.305   3.331   3.115  0.0974  0.2185  0.8864
   16MOL    C87 2217   1.385   3.204   3.138  0.3739  0.4818  0.2756
   16MOL    O88 2218   1.315   3.118   3.224 -0.4613  0.4103 -0.2280
   16MOL    H89 2219   1.202   3.303   3.093 -0.4985  1.9474  1.3636
   16MOL    H90 2220   1.335   3.376   3.020  0.4770  0.7309  1.2417
   16MOL    H91 2221   1.478   3.233   3.187 -0.9662  4.3827  0.6530
   16MOL    H92 2222   1.239   3.086   3.179  0.4689 -2.8230  0.3971
   16MOL    C93 2223   1.417   3.124   3.002 -0.6800 -0.8160 -0.0800
   16MOL    C94 2224   1.559   3.149   2.938 -0.0042  0.0846  0.0606
   16MOL    O95 2225   1.591   3.040   2.848  0.2318 -0.4844 -0.7236
   16MOL    H96 2226   1.417   3.019   3.031  0.0300 -0.9146 -0.4219
   16MOL    H97 2227   1.336   3.131   2.930  0.5790 -3.2263 -1.8087
   16MOL    H98 2228   1.626   3.137   3.024 -1.2213 -3.0077  0.6341
   16MOL    H99 2229   1.682   3.017   2.851  0.6628  1.1696 -0.3211
   16MOL   C100 2230   1.570   3.286   2.868 -0.2220  0.5176  0.6150
   16MOL   C101 2231   1.705   3.321   2.813  0.0070  0.3379  0.0815
   16MOL   O102 2232   1.699   3.446   2.760  0.9303  0.2269  0.3187
   16MOL   H103 2233   1.499   3.295   2.785  0.3113 -3.1294 -0.3225
   16MOL   H104 2234   1.541   3.360   2.943  0.8167  1.4669  0.0927
   16MOL   H105 2235   1.722   3.248   2.734 -2.7162 -1.0151  0.6772
   16MOL   H106 2236   1.612   3.471   2.734  0.5640 -1.4143 -0.0767
   16MOL   C107 2237   1.815   3.329   2.922  0.7588 -0.7895  0.7405
   16MOL   C108 2238   1.957   3.305   2.867 -0.2617 -0.4585  0.2943
   16MOL   O109 2239   1.960   3.189   2.784  0.3194 -0.5601 -0.5318
   16MOL   H110 2240   1.812   3.424   2.976  1.1746 -0.9479  1.0437
   16MOL   H111 2241   1.809   3.247   2.994  2.2534 -1.2273  0.3956
   16MOL   H112 2242   2.020   3.280   2.952  0.4424  0.6014  0.0838
   16MOL   H113 2243   2.050   3.175   2.762  1.0023  0.7421  1.3265
   16MOL   C114 2244   2.011   3.414   2.774 -0.0763 -0.4956 -0.1251
   16MOL   C115 2245   2.033   3.548   2.841  0.1400 -0.0843  0.1504
   16MOL   O116 2246   2.133   3.538   2.940  0.1394  0.3035  0.8360
   16MOL   H117 2247   2.107   3.385   2.731 -0.0840  1.3640 -1.4948
   16MOL   H118 2248   1.951   3.432   2.685 -0.4654 -0.3656  0.1659
   16MOL   H119 2249   1.933   3.575   2.875  0.3688  1.2820 -0.2192
   16MOL   H120 2250   2.094   3.560   3.024 -0.7556  1.7041  0.0609
   16MOL   C121 2251   2.091   3.639   2.741 -0.3342  0.7372 -0.4941
   16MOL   C122 2252   2.131   3.780   2.785  0.0403  0.1080 -0.3683
   16MOL   O123 2253   2.201   3.837   2.673  0.3230  0.1183 -0.1142
   16MOL   H124 2254   2.181   3.594   2.699  0.0746  1.0533  0.0261
   16MOL   H125 2255   2.024   3.651   2.657  0.1455 -0.7633 -1.1113
   16MOL   H126 2256   2.197   3.771   2.871 -0.4551  0.1962  0.0235
   16MOL   H127 2257   2.244   3.770   2.622  1.3424  0.4862  0.2429
   16MOL   C128 2258   2.017   3.878   2.834  0.3308 -0.6785 -0.5849
   16MOL   C129 2259   2.049   4.004   2.933 -0.2657  0.3402  0.0591
   16MOL   O130 2260   1.924   4.062   2.972 -0.6673 -0.5213 -0.5628
   16MOL   H131 2261   1.955   3.915   2.752  1.7138  1.3879 -0.7318
   16MOL   H132 2262   1.951   3.812   2.890  1.1101 -1.0429 -0.0886
   16MOL   H133 2263   2.117   4.075   2.885 -2.4283  1.4617 -1.4660
   16MOL   H134 2264   1.945   4.153   2.986  0.0331 -0.7710  0.0403
   16MOL   C135 2265   2.116   3.953   3.069  0.1283  0.3732 -0.4597
   16MOL   C136 2266   2.134   4.059   3.178 -0.0195 -0.8698  0.2897
   16MOL   O137 2267   2.186   3.996   3.292 -0.0613 -0.1021  0.0999
   16MOL   H138 2268   2.038   3.886   3.107 -0.2224  0.7848 -0.4440
   16MOL   H139 2269   2.208   3.898   3.056  0.0634  0.4531 -1.2404
   16MOL   H140 2270   2.051   4.126   3.198  0.0446 -0.0874 -1.8883
   16MOL   H141 2271   2.218   4.063   3.351 -0.2414 -0.7879  0.9919
   16MOL   H142 2272   2.210   4.130   3.144 -0.5035  0.3870  1.7954
   17MOL     C1 2273   1.226   5.137   0.321  0.1373  0.1538 -0.0062
   17MOL     C2 2274   1.251   5.283   0.372 -0.2182 -0.0070 -0.1729
   17MOL     O3 2275   1.184   5.302   0.492  0.2813 -0.4041  0.6138
   17MOL     H4 2276   1.238   5.130   0.213 -1.7723  0.6897 -0.2842
   17MOL     H5 2277   1.125   5.103   0.344  0.3793  0.4185  1.5020
   17MOL     H6 2278   1.203   5.354   0.304  0.4730  1.3537  0.7409
   17MOL     H7 2279   1.162   5.390   0.517 -1.7488 -0.6268 -0.2722
   17MOL     H8 2280   1.279   5.059   0.377  1.5456  0.3731 -1.0109
   17MOL     C9 2281   1.400   5.327   0.390  0.2500  0.2199  0.9488
   17MOL    C10 2282   1.483   5.337   0.264  0.4278 -0.5136  0.3470
   17MOL    O11 2283   1.500   5.472   0.220  0.4256 -0.4755  0.3979
   17MOL    H12 2284   1.410   5.424   0.440 -0.6382  1.0718 -0.4666
   17MOL    H13 2285   1.444   5.265   0.468 -0.0196 -2.3680 -0.9045
   17MOL    H14 2286   1.449   5.292   0.170  0.8334  2.2796 -1.1909
   17MOL    H15 2287   1.526   5.522   0.296  2.4821  0.8839 -1.1280
   17MOL    C16 2288   1.628   5.281   0.279  0.3110  0.0383 -0.6556
   17MOL    C17 2289   1.627   5.125   0.278  0.2325 -0.6550 -0.2461
   17MOL    O18 2290   1.653   5.081   0.147 -0.1694  0.1759  0.3550
   17MOL    H19 2291   1.701   5.313   0.204 -0.0644  3.8615  0.5413
   17MOL    H20 2292   1.671   5.324   0.369  1.6564 -1.4725 -0.5456
   17MOL    H21 2293   1.531   5.079   0.302 -0.8188  1.1433 -0.9412
   17MOL    H22 2294   1.744   5.057   0.142  0.2078  1.0562  2.2768
   17MOL    C23 2295   1.721   5.065   0.388  0.4075  0.0740 -0.5201
   17MOL    C24 2296   1.671   5.045   0.531 -0.0325  0.4633 -0.1606
   17MOL    O25 2297   1.654   5.170   0.582 -0.0386  0.3592  0.0690
   17MOL    H26 2298   1.759   4.973   0.345 -0.1684 -0.7995  0.7854
   17MOL    H27 2299   1.806   5.133   0.394 -1.7447  2.7572  1.2659
   17MOL    H28 2300   1.754   5.007   0.590  1.4993  1.7073 -1.4757
   17MOL    H29 2301   1.626   5.160   0.672  0.6458 -1.2047  0.1205
   17MOL    C30 2302   1.542   4.958   0.547  0.2546 -0.5402 -0.2506
   17MOL    C31 2303   1.553   4.806   0.541  0.0297 -0.3732 -0.5006
   17MOL    O32 2304   1.458   4.762   0.641 -0.6053 -0.2865  0.0118
   17MOL    H33 2305   1.512   4.991   0.646  2.2272 -0.3841  0.3190
   17MOL    H34 2306   1.451   4.989   0.495 -1.2165 -2.2458  1.2563
   17MOL    H35 2307   1.649   4.767   0.574 -1.1942 -1.6157  1.6979
   17MOL    H36 2308   1.504   4.773   0.723  0.1786 -0.4534 -0.3995
   17MOL    C37 2309   1.498   4.731   0.415  0.0488 -0.4661 -0.1991
   17MOL    C38 2310   1.602   4.697   0.300  1.0219  0.1989 -0.8727
   17MOL    O39 2311   1.711   4.629   0.355  0.7443 -0.2234  0.3009
   17MOL    H40 2312   1.454   4.634   0.438  0.0158 -0.5154 -0.4712
   17MOL    H41 2313   1.407   4.783   0.386 -0.7665 -2.2965 -1.0488
   17MOL    H42 2314   1.643   4.789   0.257  0.9277 -0.0950 -1.5985
   17MOL    H43 2315   1.779   4.683   0.392  1.9950 -1.5222 -0.0805
   17MOL    C44 2316   1.539   4.618   0.192 -0.0305 -0.0905 -0.1955
   17MOL    C45 2317   1.464   4.695   0.080 -0.3889  0.9971  0.2180
   17MOL    O46 2318   1.546   4.699   7.491 -0.5894  0.0889 -0.4957
   17MOL    H47 2319   1.629   4.570   0.153  1.7845  1.1312  2.3674
   17MOL    H48 2320   1.482   4.534   0.230 -0.9616  0.4904 -0.2822
   17MOL    H49 2321   1.440   4.789   0.130 -1.4697  0.3025  0.9951
   17MOL    H50 2322   1.496   4.739   7.422 -1.9029 -1.0816 -0.2397
   17MOL    C51 2323   1.328   4.612   0.052  1.2226 -0.0277  0.0245
   17MOL    C52 2324   1.230   4.665   7.465 -0.1013 -1.0966 -0.3112
   17MOL    O53 2325   1.110   4.582   7.456  0.9394  0.2300  0.1256
   17MOL    H54 2326   1.344   4.506   0.037 -1.3066 -0.9305  3.2334
   17MOL    H55 2327   1.272   4.601   0.145  0.4528  1.4762 -0.2456
   17MOL    H56 2328   1.274   4.695   7.370 -3.3629  3.3192 -0.5754
   17MOL    H57 2329   1.049   4.589   0.008 -0.9153  1.6183 -1.5493
   17MOL    C58 2330   1.181   4.799   7.514  0.0101  0.0269 -0.6119
   17MOL    C59 2331   1.087   4.871   7.413 -0.1290  0.1712  0.1305
   17MOL    O60 2332   0.958   4.829   7.455  0.0822 -0.2035 -0.1443
   17MOL    H61 2333   1.145   4.793   0.097  0.2197 -0.0456 -0.5431
   17MOL    H62 2334   1.263   4.870   7.519 -0.7747  1.0857 -2.0931
   17MOL    H63 2335   1.084   4.825   7.314  0.4395  1.5080 -0.5263
   17MOL    H64 2336   0.968   4.742   7.492  1.6444 -0.3917 -0.9186
   17MOL    C65 2337   1.105   5.022   7.413 -0.3096  0.5623  0.0266
   17MOL    C66 2338   1.003   5.106   7.336  0.0278 -1.0034 -0.0897
   17MOL    O67 2339   0.879   5.104   7.412  0.0864 -0.2112 -0.6959
   17MOL    H68 2340   1.107   5.052   7.518 -2.0584 -0.1039  0.2712
   17MOL    H69 2341   1.203   5.044   7.372  0.7269 -1.7448  1.1175
   17MOL    H70 2342   0.978   5.055   7.243  1.7584 -0.0165 -1.1323
   17MOL    H71 2343   0.887   5.016   7.444  1.0362  0.5823  1.3293
   17MOL    C72 2344   1.043   5.249   7.312 -0.5932 -0.9591  0.6402
   17MOL    C73 2345   1.072   5.291   7.162 -0.3014 -0.6413 -0.4584
   17MOL    O74 2346   0.969   5.382   7.125  0.0081 -0.1338  0.2071
   17MOL    H75 2347   0.969   5.314   7.360  1.5164 -0.2718  3.0289
   17MOL    H76 2348   1.122   5.281   7.380 -0.1883 -2.4299  0.8750
   17MOL    H77 2349   1.054   5.202   7.103 -0.7907 -0.6760 -0.2565
   17MOL    H78 2350   0.941   5.368   7.036  0.9899 -0.9008  0.0084
   17MOL    C79 2351   1.215   5.335   7.126  0.0135 -0.6300 -0.4817
   17MOL    C80 2352   1.310   5.223   7.111 -0.1872  0.2166 -0.5611
   17MOL    O81 2353   1.318   5.193   6.973 -0.0186  0.6184 -0.4914
   17MOL    H82 2354   1.227   5.409   7.048  0.1041 -1.9724 -1.7516
   17MOL    H83 2355   1.245   5.397   7.211 -1.5139  0.7731 -0.9205
   17MOL    H84 2356   1.275   5.135   7.165  0.5138  0.4802  0.3397
   17MOL    H85 2357   1.266   5.115   6.958  2.2857 -1.0537 -0.0512
   17MOL    C86 2358   1.444   5.258   7.162 -0.0095  0.8122 -0.5937
   17MOL    C87 2359   1.465   5.257   7.319  0.2926 -0.1523 -0.2863
   17MOL    O88 2360   1.470   5.127   7.363 -0.5473 -0.3711  0.3748
   17MOL    H89 2361   1.514   5.194   7.109 -2.2089  0.0310 -2.6173
   17MOL    H90 2362   1.469   5.357   7.124  0.4313  0.4711 -1.1951
   17MOL    H91 2363   1.373   5.284   7.371 -0.5409 -5.2131  1.1555
   17MOL    H92 2364   1.508   5.139   7.449 -0.4349  1.8443  0.0325
   17MOL    C93 2365   1.578   5.342   7.380 -0.0870  0.6931 -0.4022
   17MOL    C94 2366   1.561   5.495   7.393  0.0902 -0.2487 -0.3031
   17MOL    O95 2367   1.448   5.528   7.479  0.1798 -0.1401 -1.0124
   17MOL    H96 2368   1.591   5.301   7.480 -2.1816  0.7732 -0.0866
   17MOL    H97 2369   1.665   5.309   7.323  0.6321  0.3943  0.8728
   17MOL    H98 2370   1.526   5.514   7.292  2.1576  3.2205 -0.4402
   17MOL    H99 2371   1.475   5.512   0.049 -0.8433  1.2728 -0.4218
   17MOL   C100 2372   1.683   5.589   7.439 -0.5327  0.0710  1.8692
   17MOL   C101 2373   1.825   5.550   7.391 -0.4431  0.5580  0.7966
   17MOL   O102 2374   1.867   5.428   7.449 -1.0098  0.3392 -0.3293
   17MOL   H103 2375   1.665   5.688   7.397 -2.7136 -0.9742  0.2353
   17MOL   H104 2376   1.679   5.610   0.027 -1.6228 -2.0150  2.2567
   17MOL   H105 2377   1.893   5.626   7.431  0.0468  0.4425  0.1921
   17MOL   H106 2378   1.907   5.452   0.012 -0.1743 -0.7539 -0.4105
   17MOL   C107 2379   1.838   5.551   7.227  0.6823 -0.1680  0.3945
   17MOL   C108 2380   1.972   5.531   7.160 -0.0394  0.0197 -0.5074
   17MOL   O109 2381   1.962   5.556   7.014  0.1723  0.1607  0.4145
   17MOL   H110 2382   1.768   5.472   7.201 -0.8382  1.2298  0.1339
   17MOL   H111 2383   1.793   5.640   7.183 -0.0292 -1.1518 -0.8939
   17MOL   H112 2384   2.017   5.432   7.175 -1.5197 -0.6447 -0.3387
   17MOL   H113 2385   2.056   5.555   6.998  0.1686  2.1933  0.0946
   17MOL   C114 2386   2.073   5.639   7.211  0.0904  0.2980  0.3823
   17MOL   C115 2387   2.219   5.592   7.197  0.1573  0.3399 -0.3302
   17MOL   O116 2388   2.267   5.621   7.065  0.1110  0.5857  0.7400
   17MOL   H117 2389   2.062   5.737   7.165 -2.2232  0.1404  0.5462
   17MOL   H118 2390   2.066   5.657   7.318 -2.3672  0.2023  0.2794
   17MOL   H119 2391   2.219   5.483   7.207 -0.9164  0.2838 -0.8463
   17MOL   H120 2392   2.360   5.607   7.055 -0.1355 -0.1914 -0.5903
   17MOL   C121 2393   2.308   5.669   7.297  0.3728 -0.3553 -0.0451
   17MOL   C122 2394   2.436   5.599   7.346 -0.0329 -0.5901 -0.3505
   17MOL   O123 2395   2.506   5.701   7.423  0.3972 -0.7134  0.1937
   17MOL   H124 2396   2.335   5.767   7.258  0.0348 -0.8055 -1.4510
   17MOL   H125 2397   2.245   5.691   7.383 -2.3815 -2.9887 -1.2675
   17MOL   H126 2398   2.500   5.566   7.264  0.6140 -1.0533  0.3381
   17MOL   H127 2399   2.464   5.704   7.507  0.0197 -0.6215 -0.0005
   17MOL   C128 2400   2.416   5.478   7.429 -0.0203  0.8650 -0.0227
   17MOL   C129 2401   2.538   5.384   7.457 -0.0355  0.4685  0.1552
   17MOL   O130 2402   2.515   5.305   0.046  0.0252  0.5824  0.4303
   17MOL   H131 2403   2.367   5.501   0.005  0.1287 -0.5279  0.4101
   17MOL   H132 2404   2.345   5.414   7.377 -0.2429  2.2982 -1.5241
   17MOL   H133 2405   2.632   5.433   7.480  1.0065 -0.2527 -2.2996
   17MOL   H134 2406   2.590   5.248   0.048  0.4809  1.2009  1.1482
   17MOL   C135 2407   2.565   5.286   7.340  0.5903  0.5759  0.1854
   17MOL   C136 2408   2.705   5.216   7.343 -0.1936 -0.0228  0.0737
   17MOL   O137 2409   2.713   5.128   7.230 -0.0181 -0.0637 -0.1636
   17MOL   H138 2410   2.499   5.200   7.342  0.6765  0.5198  0.8664
   17MOL   H139 2411   2.555   5.334   7.243  0.8283 -0.2018 -0.2275
   17MOL   H140 2412   2.715   5.154   7.431 -0.7564 -1.3168 -0.7590
   17MOL   H141 2413   2.787   5.070   7.234 -2.0501 -2.6298  1.7769
   17MOL   H142 2414   2.783   5.292   7.345  0.1811 -0.3722 -0.8156
   18MOL     C1 2415   1.906   0.196   0.558 -0.1197 -0.1701 -0.1171
   18MOL     C2 2416   2.010   0.254   0.463 -0.4156 -0.2334 -0.3557
   18MOL     O3 2417   2.016   0.392   0.492 -0.2177  0.4969 -0.4269
   18MOL     H4 2418   1.810   0.249   0.558  0.9947  1.9027  0.7399
   18MOL     H5 2419   1.937   0.196   0.662 -0.7523 -1.9439  0.0969
   18MOL     H6 2420   1.979   0.237   0.360  1.3388 -0.2626 -0.8849
   18MOL     H7 2421   2.031   0.416   0.582  1.5445 -1.7070 -0.0912
   18MOL     H8 2422   1.878   0.096   0.525 -0.0961  0.4101 -1.9903
   18MOL     C9 2423   2.154   0.206   0.468  0.0052  0.2897 -0.1487
   18MOL    C10 2424   2.173   0.060   0.411  0.1702  0.1368  0.7603
   18MOL    O11 2425   2.140   0.061   0.272  0.2796  0.8465  0.3861
   18MOL    H12 2426   2.220   0.265   0.405  2.2986 -1.8256  0.2048
   18MOL    H13 2427   2.193   0.216   0.569 -0.2927 -1.3295  0.1409
   18MOL    H14 2428   2.105   7.515   0.466  2.7355 -2.6349  0.7978
   18MOL    H15 2429   2.170   0.140   0.230 -2.0878  1.9653  0.7192
   18MOL    C16 2430   2.314   0.009   0.421 -0.5767 -0.6664  0.0725
   18MOL    C17 2431   2.368   7.519   0.564 -0.0487  0.3020 -0.3008
   18MOL    O18 2432   2.311   7.399   0.623  0.6235 -0.1507  0.2037
   18MOL    H19 2433   2.345   7.446   0.357 -2.1249 -1.4183  0.2755
   18MOL    H20 2434   2.367   0.088   0.368 -0.4556 -0.9585 -0.2429
   18MOL    H21 2435   2.350   0.089   0.624 -0.7383  0.1769 -0.3157
   18MOL    H22 2436   2.218   7.396   0.609  0.9835  1.0827 -2.8383
   18MOL    C23 2437   2.527   0.002   0.574  0.7076 -0.8110 -0.8661
   18MOL    C24 2438   2.603   0.115   0.501 -0.2881  0.4355  0.9947
   18MOL    O25 2439   2.719   0.135   0.571  0.2804 -0.1378  0.0948
   18MOL    H26 2440   2.542   0.011   0.681 -0.4450  0.4153 -0.7928
   18MOL    H27 2441   2.572   7.426   0.547  1.4768 -2.0997  4.3863
   18MOL    H28 2442   2.544   0.206   0.501  1.0237  1.3506 -1.6213
   18MOL    H29 2443   2.775   0.059   0.576  0.9924  0.5193  2.7673
   18MOL    C30 2444   2.640   0.079   0.355  0.0476  0.0051  0.3924
   18MOL    C31 2445   2.706   0.188   0.270 -0.0991  0.6419  0.1775
   18MOL    O32 2446   2.709   0.127   0.140 -0.1881 -0.5284  0.1035
   18MOL    H33 2447   2.700   7.508   0.363 -0.6303 -0.4702  0.0853
   18MOL    H34 2448   2.556   0.044   0.294  0.2539  0.6716 -0.2837
   18MOL    H35 2449   2.808   0.201   0.306  0.5238  1.8501 -1.9572
   18MOL    H36 2450   2.767   0.174   0.082  0.3677  1.4431  2.1842
   18MOL    C37 2451   2.626   0.320   0.272  0.0366  0.2101  0.6159
   18MOL    C38 2452   2.671   0.424   0.379 -0.2605 -0.9078 -0.6398
   18MOL    O39 2453   2.797   0.490   0.340 -0.0419 -0.0152 -0.3281
   18MOL    H40 2454   2.651   0.377   0.182 -2.3855  2.0016  1.0344
   18MOL    H41 2455   2.520   0.296   0.283 -0.7897  2.6056 -1.5153
   18MOL    H42 2456   2.708   0.375   0.469  1.3804  1.4751  0.0142
   18MOL    H43 2457   2.780   0.527   0.255 -2.6520  0.4603  0.3632
   18MOL    C44 2458   2.582   0.538   0.412  0.2420  0.4546  0.2491
   18MOL    C45 2459   2.427   0.500   0.449  0.8340 -0.0757  0.7260
   18MOL    O46 2460   2.434   0.462   0.579  0.1883 -0.6673 -0.0201
   18MOL    H47 2461   2.628   0.605   0.485  2.7044 -1.1147  0.2107
   18MOL    H48 2462   2.575   0.607   0.329  1.8595  2.1588  1.4962
   18MOL    H49 2463   2.400   0.412   0.391  0.5249  0.5574 -0.0991
   18MOL    H50 2464   2.445   0.533   0.640 -0.5960  0.5795 -1.3130
   18MOL    C51 2465   2.329   0.613   0.436 -0.2772  0.4417 -0.2508
   18MOL    C52 2466   2.271   0.629   0.295  0.1283 -0.2211  0.8217
   18MOL    O53 2467   2.188   0.518   0.265 -0.0101  0.0442  0.6785
   18MOL    H54 2468   2.249   0.615   0.510  0.6512 -0.9790  0.8170
   18MOL    H55 2469   2.380   0.706   0.459 -1.1656  0.7674  0.4094
   18MOL    H56 2470   2.344   0.630   0.214  0.0859 -1.5837  0.7581
   18MOL    H57 2471   2.139   0.493   0.342  1.0828  1.5644  1.9213
   18MOL    C58 2472   2.174   0.756   0.275  0.2315  0.2879  0.2029
   18MOL    C59 2473   2.226   0.898   0.321  0.2263  0.9898  0.1917
   18MOL    O60 2474   2.355   0.903   0.259  0.4799 -0.6159 -0.0398
   18MOL    H61 2475   2.149   0.761   0.168 -1.0502 -1.0021  0.4340
   18MOL    H62 2476   2.090   0.722   0.336  0.0944 -2.0132 -1.1986
   18MOL    H63 2477   2.238   0.908   0.428  1.2665 -0.2806  0.2067
   18MOL    H64 2478   2.353   0.891   0.166  0.4672 -0.7423 -0.0234
   18MOL    C65 2479   2.132   1.007   0.270 -0.3010  0.3244  0.0667
   18MOL    C66 2480   2.168   1.148   0.308  0.6112 -0.7611  0.7637
   18MOL    O67 2481   2.092   1.240   0.222  0.1558  0.5143 -0.1285
   18MOL    H68 2482   2.122   0.994   0.162  1.9814  0.4151 -0.1786
   18MOL    H69 2483   2.036   0.987   0.317 -0.6288  0.1963 -0.6457
   18MOL    H70 2484   2.274   1.159   0.286 -0.0282  1.1277 -1.5589
   18MOL    H71 2485   2.149   1.312   0.198  0.2788 -0.3480 -2.5196
   18MOL    C72 2486   2.137   1.186   0.458 -0.4625  0.0916 -0.4429
   18MOL    C73 2487   2.145   1.336   0.497 -0.5757  0.4375  0.4408
   18MOL    O74 2488   2.045   1.406   0.430  0.2918  0.1679  0.2728
   18MOL    H75 2489   2.033   1.160   0.481 -1.9225  3.5380 -2.6725
   18MOL    H76 2490   2.208   1.136   0.523 -2.0708 -0.4103  0.9635
   18MOL    H77 2491   2.233   1.383   0.455  0.1252  1.5084  3.0258
   18MOL    H78 2492   2.067   1.412   0.338  2.8246  0.3137  0.8655
   18MOL    C79 2493   2.131   1.360   0.652 -0.4188 -0.3156  0.6039
   18MOL    C80 2494   2.259   1.305   0.730  0.4266  0.4214  0.2482
   18MOL    O81 2495   2.367   1.398   0.721 -0.1069  0.4174  0.0671
   18MOL    H82 2496   2.109   1.464   0.672  2.4274  0.1919  1.4176
   18MOL    H83 2497   2.043   1.299   0.672 -1.1547 -0.1689 -2.0194
   18MOL    H84 2498   2.305   1.220   0.680  1.0713  1.1951 -0.5073
   18MOL    H85 2499   2.339   1.463   0.784  0.4206  0.6359  0.0719
   18MOL    C86 2500   2.241   1.275   0.880  0.3702 -0.5371 -0.7553
   18MOL    C87 2501   2.330   1.177   0.948  0.3582 -0.0458 -0.2261
   18MOL    O88 2502   2.300   1.168   1.088 -0.7807  0.0470 -0.2105
   18MOL    H89 2503   2.251   1.363   0.942  0.0549  0.0084 -1.4676
   18MOL    H90 2504   2.142   1.232   0.898  0.9186 -0.2060  3.4514
   18MOL    H91 2505   2.428   1.223   0.954  1.4104 -1.8950 -2.5247
   18MOL    H92 2506   2.219   1.213   1.106 -0.1661  0.2425  2.4088
   18MOL    C93 2507   2.335   1.034   0.884  0.0566 -0.0621 -0.2724
   18MOL    C94 2508   2.200   0.959   0.887 -0.1390 -0.2561 -0.1032
   18MOL    O95 2509   2.120   0.995   0.776  0.0813  0.1718  0.2891
   18MOL    H96 2510   2.370   1.037   0.781 -0.3971 -1.4582 -0.4745
   18MOL    H97 2511   2.399   0.973   0.947 -0.9197 -0.8410 -0.0219
   18MOL    H98 2512   2.141   1.003   0.968 -1.1203  0.4780 -1.2108
   18MOL    H99 2513   2.031   0.992   0.807  0.3684  1.5554  1.3029
   18MOL   C100 2514   2.195   0.810   0.888  0.9977  0.4422 -0.1912
   18MOL   C101 2515   2.251   0.742   1.020 -0.2327  0.2186  0.1839
   18MOL   O102 2516   2.176   0.784   1.133  0.0043 -0.3424 -0.1492
   18MOL   H103 2517   2.095   0.768   0.881  1.3892 -0.6320  0.5138
   18MOL   H104 2518   2.256   0.765   0.810  0.9863 -2.0808  1.2063
   18MOL   H105 2519   2.352   0.781   1.030  0.2950 -1.2057  0.4864
   18MOL   H106 2520   2.217   0.863   1.164  2.2890 -1.9052  0.9334
   18MOL   C107 2521   2.233   0.590   1.012  0.4936 -1.0335 -0.2903
   18MOL   C108 2522   2.367   0.512   0.989 -0.2246  0.0046  0.2408
   18MOL   O109 2523   2.460   0.536   1.093  0.5617 -0.7470  0.0937
   18MOL   H110 2524   2.173   0.558   1.097 -0.9267 -0.3461 -1.0172
   18MOL   H111 2525   2.170   0.556   0.930 -1.2554  1.8705 -0.2060
   18MOL   H112 2526   2.414   0.549   0.898 -0.4319  0.8162  0.4631
   18MOL   H113 2527   2.440   0.480   1.167  0.7060 -1.0053 -0.0651
   18MOL   C114 2528   2.329   0.367   0.969 -0.1857  0.2132 -0.9348
   18MOL   C115 2529   2.450   0.266   0.977 -0.1492  0.4570  0.1480
   18MOL   O116 2530   2.396   0.135   0.951 -0.0487 -0.1525  0.2203
   18MOL   H117 2531   2.269   0.336   1.054  4.6963  3.4370  4.0175
   18MOL   H118 2532   2.284   0.357   0.870 -0.4040  0.2777 -0.8406
   18MOL   H119 2533   2.483   0.258   1.080  1.7438 -2.4427 -0.6015
   18MOL   H120 2534   2.333   0.135   0.880  0.8533 -1.0018 -0.5879
   18MOL   C121 2535   2.572   0.276   0.875  0.3519 -0.2148 -0.9921
   18MOL   C122 2536   2.714   0.244   0.934 -0.0339  0.5307 -0.0978
   18MOL   O123 2537   2.796   0.274   0.825  0.1674 -0.1409  0.2378
   18MOL   H124 2538   2.545   0.240   0.776  1.1601 -0.1156 -1.2481
   18MOL   H125 2539   2.574   0.384   0.863 -0.4594 -0.1994 -1.0070
   18MOL   H126 2540   2.723   0.138   0.956 -0.4861  0.6249  0.5690
   18MOL   H127 2541   2.764   0.218   0.755 -0.9105 -0.5410  1.0382
   18MOL   C128 2542   2.759   0.336   1.049 -0.1002  0.0545 -0.6965
   18MOL   C129 2543   2.891   0.297   1.106  0.3376 -0.6647 -0.7737
   18MOL   O130 2544   2.998   0.315   1.016 -0.6361  0.7119  0.2093
   18MOL   H131 2545   2.762   0.438   1.009 -0.6142  0.3437 -0.0084
   18MOL   H132 2546   2.681   0.341   1.125  0.1599  1.2799 -0.4969
   18MOL   H133 2547   2.887   0.193   1.140  0.7987 -0.3857  0.1659
   18MOL   H134 2548   2.968   0.282   0.932  2.3089 -1.8303  0.0654
   18MOL   C135 2549   2.916   0.390   1.231  0.4229  0.0761 -0.7241
   18MOL   C136 2550   2.917   0.318   1.367  0.1655 -0.1415 -0.3636
   18MOL   O137 2551   2.929   0.410   1.478 -0.0324  0.2884 -0.4078
   18MOL   H138 2552   3.014   0.437   1.223 -0.2693  1.4530 -1.3563
   18MOL   H139 2553   2.842   0.471   1.235  0.3082 -0.1301  2.3066
   18MOL   H140 2554   3.009   0.260   1.367  1.3435  1.6420 -2.5168
   18MOL   H141 2555   2.899   0.370   1.558 -1.1152 -0.8817 -1.3771
   18MOL   H142 2556   2.839   0.245   1.386  1.0696 -0.6527  1.4775
   19MOL     C1 2557   6.062   4.592   6.522 -0.1040  0.1472  0.7327
   19MOL     C2 2558   6.056   4.696   6.631  0.2001 -0.2459  0.4680
   19MOL     O3 2559   6.178   4.692   6.693 -0.7049  0.0048  0.4322
   19MOL     H4 2560   6.128   4.621   6.441 -0.1826  1.3994  1.1172
   19MOL     H5 2561   5.966   4.565   6.478  0.7575 -1.5750 -0.1390
   19MOL     H6 2562   5.978   4.663   6.701  1.1462 -0.7531  1.3055
   19MOL     H7 2563   6.164   4.747   6.769 -1.9050  1.0301 -0.5004
   19MOL     H8 2564   6.104   4.500   6.564  1.3054  1.4018  2.1114
   19MOL     C9 2565   6.015   4.836   6.573  0.0833 -0.4839 -0.6079
   19MOL    C10 2566   5.883   4.846   6.487 -0.4791 -0.1581  0.0422
   19MOL    O11 2567   5.778   4.776   6.557 -0.3852 -0.2680 -0.2598
   19MOL    H12 2568   6.020   4.909   6.653 -1.5753  0.2447 -1.1472
   19MOL    H13 2569   6.087   4.874   6.502 -0.1635  0.6368 -0.2609
   19MOL    H14 2570   5.899   4.800   6.390 -1.9450  0.9368 -0.7494
   19MOL    H15 2571   5.766   4.699   6.505  0.7531 -1.1057  0.6667
   19MOL    C16 2572   5.834   4.993   6.475 -0.3202  0.4547  0.0259
   19MOL    C17 2573   5.931   5.090   6.403 -0.3323  0.2008 -0.1198
   19MOL    O18 2574   5.917   5.075   6.265 -0.0075 -0.4400 -0.0671
   19MOL    H19 2575   5.732   4.999   6.437 -0.2808 -1.8788 -0.5459
   19MOL    H20 2576   5.830   5.033   6.577 -0.8054  1.6229 -0.4392
   19MOL    H21 2577   6.036   5.084   6.432  0.4313  2.1412 -2.2684
   19MOL    H22 2578   5.917   5.162   6.227 -0.5213 -0.7093 -0.6899
   19MOL    C23 2579   5.884   5.243   6.426  0.4739 -0.3388 -0.2189
   19MOL    C24 2580   5.956   5.344   6.342 -0.3250  0.4521  0.2063
   19MOL    O25 2581   5.937   5.332   6.198 -0.1679 -0.2328 -0.2822
   19MOL    H26 2582   5.778   5.247   6.399  0.2477 -1.3871  0.4886
   19MOL    H27 2583   5.882   5.273   6.531 -1.7372 -0.9477 -0.0445
   19MOL    H28 2584   6.063   5.326   6.360 -0.1761  0.4933 -0.6565
   19MOL    H29 2585   6.000   5.395   6.166 -2.8790  1.9821 -1.4406
   19MOL    C30 2586   5.927   5.494   6.372 -0.5851  0.7102  0.0446
   19MOL    C31 2587   5.968   5.540   6.507 -0.2267 -0.3834 -0.1513
   19MOL    O32 2588   6.102   5.507   6.533  0.1441  0.0460  0.9547
   19MOL    H33 2589   5.968   5.564   6.300  1.7647  1.3612  1.9638
   19MOL    H34 2590   5.819   5.505   6.360 -1.0347 -2.4556  0.7199
   19MOL    H35 2591   5.909   5.485   6.580  0.9313 -1.1268  0.2449
   19MOL    H36 2592   6.161   5.573   6.502  2.4552 -3.0140 -1.4973
   19MOL    C37 2593   5.962   5.692   6.523  0.1730 -1.1047  0.2861
   19MOL    C38 2594   6.000   5.759   6.659 -0.0677 -0.2029  0.2864
   19MOL    O39 2595   5.977   5.901   6.659 -0.1299 -0.1785 -0.3339
   19MOL    H40 2596   6.010   5.745   6.440  1.4616  0.0791  1.7668
   19MOL    H41 2597   5.860   5.730   6.514  0.3297 -0.5692  0.7028
   19MOL    H42 2598   6.108   5.764   6.668  0.2058 -1.4244 -2.0129
   19MOL    H43 2599   5.985   5.921   6.567 -0.9404 -2.0936 -0.8395
   19MOL    C44 2600   5.931   5.694   6.785 -0.3143  0.5809  0.0430
   19MOL    C45 2601   6.015   5.703   6.910 -0.5863 -0.0038  0.2365
   19MOL    O46 2602   5.933   5.670   7.022  0.3200 -0.5730 -0.2527
   19MOL    H47 2603   5.835   5.739   6.814 -0.1484  2.7469 -2.5847
   19MOL    H48 2604   5.911   5.588   6.769  0.3447  0.6637 -1.3390
   19MOL    H49 2605   6.050   5.806   6.925  1.0284 -0.5152  0.0636
   19MOL    H50 2606   5.922   5.577   7.035 -0.7616 -0.4310 -0.0824
   19MOL    C51 2607   6.144   5.619   6.907  0.3034 -0.1288  0.4333
   19MOL    C52 2608   6.253   5.673   7.009  0.5089  0.2934  0.1238
   19MOL    O53 2609   6.324   5.563   7.066 -0.4978 -0.2759 -0.7340
   19MOL    H54 2610   6.115   5.520   6.941 -0.4637  0.0291  0.2426
   19MOL    H55 2611   6.180   5.612   6.804  0.9714  0.0709  0.6489
   19MOL    H56 2612   6.199   5.723   7.089  1.2350 -0.0059  0.8023
   19MOL    H57 2613   6.362   5.511   6.996 -0.3580  0.8274 -1.4821
   19MOL    C58 2614   6.348   5.768   6.926  0.3409 -0.2256 -0.3950
   19MOL    C59 2615   6.435   5.863   7.022 -0.6791 -0.1707 -0.0126
   19MOL    O60 2616   6.527   5.938   6.939  0.3990  0.2262  0.0915
   19MOL    H61 2617   6.413   5.712   6.859  1.1901 -0.7376  0.8292
   19MOL    H62 2618   6.280   5.834   6.872 -1.2322 -0.5259  1.1780
   19MOL    H63 2619   6.486   5.795   7.090 -0.8377  0.4933  0.7656
   19MOL    H64 2620   6.576   5.882   6.881  0.0044 -0.5252  0.4694
   19MOL    C65 2621   6.363   5.973   7.099 -0.3387  0.3852 -0.7221
   19MOL    C66 2622   6.305   5.932   7.237  0.0600  0.3888 -0.5823
   19MOL    O67 2623   6.391   5.970   7.340  0.3786 -0.4681  0.1805
   19MOL    H68 2624   6.429   6.058   7.118 -1.7226  1.4094 -0.3970
   19MOL    H69 2625   6.278   5.999   7.036 -0.7457  0.0024 -0.3299
   19MOL    H70 2626   6.311   5.824   7.242  0.3603  0.3827 -0.9882
   19MOL    H71 2627   6.344   5.982   7.421 -1.9973 -1.8195 -0.9457
   19MOL    C72 2628   6.158   5.985   7.249 -0.0463  0.3167 -0.0705
   19MOL    C73 2629   6.056   5.919   7.339 -0.3733 -0.1350 -0.0548
   19MOL    O74 2630   6.100   5.948   7.470  0.1899  0.1555  0.4275
   19MOL    H75 2631   6.157   6.088   7.286  1.4564  0.6297 -0.8411
   19MOL    H76 2632   6.106   5.986   7.153  1.0814 -1.0964 -0.7148
   19MOL    H77 2633   6.053   5.811   7.323  0.0481 -0.2732  0.8111
   19MOL    H78 2634   6.152   5.872   7.493  0.2467 -0.0223 -0.2780
   19MOL    C79 2635   5.917   5.987   7.323 -0.0496  0.3502  0.1678
   19MOL    C80 2636   5.831   5.948   7.202  0.2300  0.4375 -0.8932
   19MOL    O81 2637   5.798   5.812   7.228  1.0250 -0.1569  0.1351
   19MOL    H82 2638   5.859   5.957   7.411  0.1343 -0.2409  0.0899
   19MOL    H83 2639   5.931   6.095   7.323  0.9436  0.2486 -2.3837
   19MOL    H84 2640   5.895   5.944   7.114  0.8604  1.5656 -0.4913
   19MOL    H85 2641   5.829   5.761   7.156 -1.9640 -0.5933 -0.9062
   19MOL    C86 2642   5.718   6.042   7.181 -0.8621 -0.6422 -0.2656
   19MOL    C87 2643   5.625   6.003   7.058 -0.0120  0.2357  0.4262
   19MOL    O88 2644   5.510   6.085   7.071  0.4256 -0.0066  0.0287
   19MOL    H89 2645   5.653   6.042   7.268  1.5272  0.3673  1.5565
   19MOL    H90 2646   5.755   6.143   7.160  2.5971 -2.2068 -2.1509
   19MOL    H91 2647   5.587   5.901   7.068  0.4903  0.1273  1.3147
   19MOL    H92 2648   5.463   6.054   7.147  3.3113 -0.1733  1.8339
   19MOL    C93 2649   5.686   6.025   6.911  0.3648  0.1582 -0.2145
   19MOL    C94 2650   5.591   5.974   6.805 -0.7609 -0.3877  0.2660
   19MOL    O95 2651   5.473   6.055   6.812 -0.2210  0.0450 -0.5511
   19MOL    H96 2652   5.694   6.133   6.900  2.1920  0.1075  0.4536
   19MOL    H97 2653   5.787   5.986   6.898  1.7344  2.7273  2.1694
   19MOL    H98 2654   5.583   5.870   6.838  0.5966 -0.4952  0.3052
   19MOL    H99 2655   5.470   6.087   6.901 -0.9879  0.1378 -0.6036
   19MOL   C100 2656   5.649   5.972   6.658 -0.1592  0.4276  1.1020
   19MOL   C101 2657   5.554   5.904   6.555  0.7136 -0.4195 -0.5468
   19MOL   O102 2658   5.434   5.974   6.560  0.1638  0.3193 -0.1118
   19MOL   H103 2659   5.661   6.076   6.626 -0.4112 -0.1238 -0.8066
   19MOL   H104 2660   5.750   5.932   6.647 -0.8631 -0.6094 -2.0733
   19MOL   H105 2661   5.536   5.803   6.591 -2.0474  0.5881  0.9856
   19MOL   H106 2662   5.442   6.009   6.648  0.9614 -0.3481  0.0973
   19MOL   C107 2663   5.602   5.897   6.409 -0.9444 -0.3960 -0.2338
   19MOL   C108 2664   5.545   5.776   6.334 -0.2603 -0.1409 -0.0947
   19MOL   O109 2665   5.623   5.664   6.373 -0.3207  0.1880  0.0136
   19MOL   H110 2666   5.584   5.992   6.358  0.1041  0.1139  0.3265
   19MOL   H111 2667   5.711   5.898   6.403 -0.9340 -1.1097 -0.1420
   19MOL   H112 2668   5.554   5.786   6.226 -3.1881 -1.9564 -0.5525
   19MOL   H113 2669   5.711   5.693   6.354 -0.6696  1.2630  0.0008
   19MOL   C114 2670   5.401   5.724   6.374  0.0597 -0.0578  0.0965
   19MOL   C115 2671   5.344   5.631   6.263  0.3233 -0.6246  0.6836
   19MOL   O116 2672   5.307   5.514   6.322  0.0737  0.6298  0.0115
   19MOL   H117 2673   5.413   5.684   6.475 -0.7141 -3.7489 -1.1733
   19MOL   H118 2674   5.351   5.821   6.369 -0.7475 -0.4175  1.0281
   19MOL   H119 2675   5.423   5.618   6.189 -1.1776 -1.3153 -0.8292
   19MOL   H120 2676   5.386   5.466   6.342 -0.8789 -1.1243 -0.2562
   19MOL   C121 2677   5.214   5.695   6.204 -0.2670 -0.6067 -0.0162
   19MOL   C122 2678   5.176   5.652   6.062 -0.2756  1.1359  0.1481
   19MOL   O123 2679   5.278   5.688   5.971 -0.3897 -0.0769  0.4981
   19MOL   H124 2680   5.122   5.663   6.252 -0.0895 -1.3348 -0.1572
   19MOL   H125 2681   5.227   5.803   6.195 -0.7868 -0.5486 -0.0696
   19MOL   H126 2682   5.086   5.700   6.024 -1.0764  0.3270  0.9827
   19MOL   H127 2683   5.349   5.632   5.999 -0.7720 -1.0406 -0.4447
   19MOL   C128 2684   5.155   5.496   6.046 -0.7346 -0.9113  0.2302
   19MOL   C129 2685   5.154   5.419   5.912  0.5992  0.0458  0.2950
   19MOL   O130 2686   5.170   5.279   5.939  0.3776  0.1058 -0.0731
   19MOL   H131 2687   5.222   5.443   6.114  0.2190  1.9154  1.5637
   19MOL   H132 2688   5.053   5.482   6.083 -2.1291  1.9949 -2.2341
   19MOL   H133 2689   5.243   5.450   5.858  1.1292 -1.5134  0.2557
   19MOL   H134 2690   5.097   5.254   5.993  0.3143 -1.8267 -1.0231
   19MOL   C135 2691   5.027   5.438   5.823 -0.3193 -0.2422 -0.9809
   19MOL   C136 2692   5.053   5.539   5.710  0.2192  0.9942  0.2763
   19MOL   O137 2693   4.953   5.528   5.609  0.2463  0.4448 -0.4499
   19MOL   H138 2694   5.024   5.340   5.773 -0.9490 -1.2212  0.9307
   19MOL   H139 2695   4.938   5.464   5.881 -0.5054 -2.9895  0.0675
   19MOL   H140 2696   5.150   5.516   5.665 -1.0722 -1.1031 -1.5785
   19MOL   H141 2697   5.000   5.528   5.527  1.7878 -2.0867  0.3784
   19MOL   H142 2698   5.056   5.643   5.740  2.8560  0.8454  0.5783
   20MOL     C1 2699   3.965   1.090   7.323  0.2971 -0.3994  0.2729
   20MOL     C2 2700   3.832   1.011   7.341 -0.6577 -0.4016  0.5312
   20MOL     O3 2701   3.763   1.065   7.457  0.1746 -0.4784 -0.2162
   20MOL     H4 2702   4.041   1.030   7.274 -1.1404 -0.9127 -1.4124
   20MOL     H5 2703   4.001   1.112   7.423  0.2373 -0.3403  0.2820
   20MOL     H6 2704   3.843   0.906   7.370  1.1037 -0.3988 -0.0582
   20MOL     H7 2705   3.669   1.051   7.449  0.0216  0.2589  0.2096
   20MOL     H8 2706   3.957   1.188   7.276 -1.2198 -1.4594 -1.7621
   20MOL     C9 2707   3.747   1.003   7.215  0.0846 -0.2028 -0.6880
   20MOL    C10 2708   3.827   0.963   7.091 -0.9498 -0.2100 -1.1142
   20MOL    O11 2709   3.742   0.865   7.019 -0.1141 -0.8989 -0.3631
   20MOL    H12 2710   3.668   0.930   7.236  2.0050 -2.3212 -0.5744
   20MOL    H13 2711   3.698   1.099   7.200  0.7229  0.6655  2.5361
   20MOL    H14 2712   3.914   0.904   7.118 -1.0332 -1.4562 -3.4346
   20MOL    H15 2713   3.670   0.918   6.987  1.2200 -0.0429 -1.9511
   20MOL    C16 2714   3.861   1.094   7.010  0.5555  0.0091  0.0649
   20MOL    C17 2715   3.917   1.082   6.865 -0.1913  0.3509  0.3007
   20MOL    O18 2716   3.917   1.218   6.820 -0.4072 -0.6184  0.2985
   20MOL    H19 2717   3.765   1.145   7.008 -0.7381 -1.9798  4.0580
   20MOL    H20 2718   3.925   1.159   7.069  0.7038 -2.2267  2.5094
   20MOL    H21 2719   3.852   1.029   6.796 -0.9321 -0.1590  1.3740
   20MOL    H22 2720   3.963   1.214   6.737 -1.1341 -2.9242 -0.0315
   20MOL    C23 2721   4.052   1.021   6.851  0.5600 -0.0269  0.5805
   20MOL    C24 2722   4.080   0.976   6.697 -1.1585  0.0141  0.2041
   20MOL    O25 2723   4.081   1.087   6.605  0.6796 -0.2205  0.0417
   20MOL    H26 2724   4.133   1.088   6.881  1.3167 -1.2318  1.2934
   20MOL    H27 2725   4.068   0.930   6.909  0.5754  1.0502  2.3037
   20MOL    H28 2726   4.004   0.907   6.662 -0.4446  0.9288 -3.3623
   20MOL    H29 2727   4.024   1.064   6.533  0.7257  0.6681 -0.2888
   20MOL    C30 2728   4.225   0.907   6.693 -0.6073 -0.5912  0.4322
   20MOL    C31 2729   4.207   0.755   6.728 -0.8698 -0.1585  0.5732
   20MOL    O32 2730   4.106   0.702   6.640  0.5254 -0.2455 -0.1534
   20MOL    H33 2731   4.250   0.912   6.587 -0.9546 -0.3338  0.3624
   20MOL    H34 2732   4.310   0.954   6.743 -0.5176 -1.4776  1.1159
   20MOL    H35 2733   4.176   0.751   6.833  3.1371 -0.8251  1.8330
   20MOL    H36 2734   4.080   0.618   6.674 -1.6049  1.0494  1.6620
   20MOL    C37 2735   4.331   0.674   6.701  0.2244 -0.0557  0.2713
   20MOL    C38 2736   4.452   0.694   6.802  0.3119  0.0118 -0.1089
   20MOL    O39 2737   4.406   0.667   6.928  0.0384 -0.7204 -0.0602
   20MOL    H40 2738   4.293   0.573   6.718 -0.7595  0.3683  0.6492
   20MOL    H41 2739   4.364   0.682   6.597  1.0316 -2.5906  0.2959
   20MOL    H42 2740   4.492   0.795   6.802 -2.5647  1.1913  0.8502
   20MOL    H43 2741   4.474   0.693   6.988 -0.9365 -1.7334  1.5323
   20MOL    C44 2742   4.564   0.584   6.780 -0.0761 -0.1160 -1.2953
   20MOL    C45 2743   4.652   0.628   6.666  0.5529  0.9602 -0.0722
   20MOL    O46 2744   4.786   0.625   6.700  0.3144  0.2104  0.0204
   20MOL    H47 2745   4.616   0.579   6.876  1.9218 -0.1036 -2.3364
   20MOL    H48 2746   4.525   0.484   6.764 -0.4933  0.0244 -1.1613
   20MOL    H49 2747   4.630   0.732   6.642  0.0672  0.9319  0.2445
   20MOL    H50 2748   4.834   0.639   6.620 -0.3155  0.6605 -0.2810
   20MOL    C51 2749   4.649   0.535   6.546  0.4957  0.1921  0.2807
   20MOL    C52 2750   4.728   0.578   6.421 -0.0743  0.6139  0.2104
   20MOL    O53 2751   4.868   0.551   6.434  0.0618 -0.2013  0.1374
   20MOL    H54 2752   4.695   0.444   6.584 -1.3509 -1.2278 -0.8117
   20MOL    H55 2753   4.547   0.504   6.526 -0.6351  2.1253  2.8680
   20MOL    H56 2754   4.732   0.686   6.415 -0.3780  0.6566  0.8106
   20MOL    H57 2755   4.903   0.554   6.346  0.2371 -1.0139  0.1802
   20MOL    C58 2756   4.673   0.531   6.283  0.4747 -0.1239  0.1772
   20MOL    C59 2757   4.552   0.604   6.233  1.0872 -0.0138  0.1683
   20MOL    O60 2758   4.579   0.743   6.209 -0.0275 -0.0640 -0.0457
   20MOL    H61 2759   4.752   0.514   6.209 -2.7173 -3.2878 -2.6771
   20MOL    H62 2760   4.637   0.432   6.308 -2.5165  0.9427  0.2581
   20MOL    H63 2761   4.483   0.596   6.317  0.4156 -1.9433 -0.5476
   20MOL    H64 2762   4.633   0.755   6.132 -0.4381  1.9692 -0.0440
   20MOL    C65 2763   4.504   0.527   6.104  0.0714 -0.0892 -0.5471
   20MOL    C66 2764   4.357   0.560   6.057 -0.3054  0.7158  0.0351
   20MOL    O67 2765   4.320   0.455   5.968  0.0098  0.0402  0.9205
   20MOL    H68 2766   4.574   0.540   6.022 -0.4310 -1.5409 -1.2211
   20MOL    H69 2767   4.506   0.421   6.132  1.4881  1.0510  4.2276
   20MOL    H70 2768   4.373   0.650   5.997 -2.0723 -0.2808 -1.9437
   20MOL    H71 2769   4.346   0.486   5.883 -0.2317  3.1180  1.8985
   20MOL    C72 2770   4.245   0.582   6.162 -0.3998  0.5634 -0.2072
   20MOL    C73 2771   4.125   0.666   6.095  0.0200  0.3900 -0.4213
   20MOL    O74 2772   4.005   0.620   6.144  0.3283 -0.2756 -0.1140
   20MOL    H75 2773   4.217   0.481   6.192  0.1552  0.4005 -0.2376
   20MOL    H76 2774   4.270   0.627   6.258 -3.2726  1.1955  0.3170
   20MOL    H77 2775   4.129   0.666   5.986  0.5384 -2.5915 -0.4533
   20MOL    H78 2776   3.980   0.672   6.219 -0.6596 -1.5310  0.4479
   20MOL    C79 2777   4.122   0.815   6.143  0.1931 -0.2368  0.5180
   20MOL    C80 2778   4.241   0.897   6.105  0.3107  0.7825  0.8124
   20MOL    O81 2779   4.266   0.895   5.973  0.1256  0.3312 -0.2956
   20MOL    H82 2780   4.040   0.870   6.099  0.9878  0.0136 -0.6624
   20MOL    H83 2781   4.105   0.828   6.250 -0.4489  0.1395  0.3700
   20MOL    H84 2782   4.321   0.848   6.160 -0.2624 -0.3984  0.5962
   20MOL    H85 2783   4.198   0.948   5.935  0.2663  0.6561 -0.0966
   20MOL    C86 2784   4.242   1.046   6.166 -0.7228  0.3903  0.2844
   20MOL    C87 2785   4.377   1.089   6.222  0.0045  0.8179 -0.1899
   20MOL    O88 2786   4.377   1.235   6.223  0.0127  0.7462  0.3380
   20MOL    H89 2787   4.213   1.115   6.086 -2.6567 -0.8894 -0.1683
   20MOL    H90 2788   4.161   1.051   6.239 -1.0256 -1.1878  0.0829
   20MOL    H91 2789   4.455   1.052   6.155 -1.4533 -2.4447 -0.1782
   20MOL    H92 2790   4.325   1.257   6.299  1.6387 -0.2862  1.7785
   20MOL    C93 2791   4.410   1.041   6.366  0.4224 -0.5602 -0.0047
   20MOL    C94 2792   4.548   1.075   6.425  0.4733  0.5400 -0.5508
   20MOL    O95 2793   4.548   1.029   6.559 -0.0394  0.8158  0.1268
   20MOL    H96 2794   4.348   1.097   6.437  0.6335 -0.5978  0.2089
   20MOL    H97 2795   4.371   0.940   6.377 -1.5766  0.3751  1.7748
   20MOL    H98 2796   4.561   1.184   6.424 -1.3853  0.7816 -3.2678
   20MOL    H99 2797   4.636   1.034   6.595 -0.2542 -0.4245  0.8460
   20MOL   C100 2798   4.666   1.019   6.340 -0.6099 -0.3118  0.0737
   20MOL   C101 2799   4.804   1.082   6.372 -0.7302 -0.5111  0.3290
   20MOL   O102 2800   4.823   1.093   6.505  0.2014 -0.1259 -0.1868
   20MOL   H103 2801   4.668   0.910   6.346 -1.7942 -0.3951 -0.9451
   20MOL   H104 2802   4.651   1.041   6.234 -0.9448  0.3521  0.2609
   20MOL   H105 2803   4.799   1.190   6.356 -2.4077 -0.2009  2.6869
   20MOL   H106 2804   4.846   1.184   6.520 -3.0392  0.5180  1.2318
   20MOL   C107 2805   4.909   1.002   6.302  0.0396  0.6635 -0.4467
   20MOL   C108 2806   4.909   0.999   6.150 -0.1704  0.1954  0.1719
   20MOL   O109 2807   4.965   1.121   6.113  0.0526 -0.7524 -0.2031
   20MOL   H110 2808   5.004   1.038   6.342 -0.7582  2.6813 -0.2731
   20MOL   H111 2809   4.892   0.898   6.329 -1.9120  0.2825 -2.9617
   20MOL   H112 2810   4.809   0.989   6.108  0.4288 -1.1634 -0.9907
   20MOL   H113 2811   4.896   1.186   6.111 -0.4491 -1.2375  1.0416
   20MOL   C114 2812   5.000   0.890   6.093  0.8759  0.1484 -0.3750
   20MOL   C115 2813   4.937   0.750   6.075 -0.8569  0.1151 -0.4046
   20MOL   O116 2814   4.832   0.767   5.983  0.2790 -0.1154 -0.2898
   20MOL   H117 2815   5.045   0.925   6.000  1.9803 -1.9166 -0.6282
   20MOL   H118 2816   5.091   0.884   6.153  0.8858 -0.9562 -0.4883
   20MOL   H119 2817   4.892   0.708   6.165 -2.7877  0.9000 -0.9889
   20MOL   H120 2818   4.873   0.778   5.899  1.3184  1.1932  0.3585
   20MOL   C121 2819   5.044   0.662   6.016 -0.8815 -0.5972  0.1347
   20MOL   C122 2820   5.022   0.506   6.008  1.1159 -0.4750  0.2119
   20MOL   O123 2821   5.035   0.460   6.139 -0.8454  0.1892  0.2416
   20MOL   H124 2822   5.078   0.700   5.920 -0.7970  1.6210  1.0043
   20MOL   H125 2823   5.137   0.678   6.071 -0.8977  0.6762 -0.1974
   20MOL   H126 2824   5.105   0.462   5.953  0.7629  0.0519 -0.7472
   20MOL   H127 2825   5.080   0.377   6.133 -0.5384  0.4360 -0.9287
   20MOL   C128 2826   4.881   0.463   5.953 -0.3355  0.1027  0.5011
   20MOL   C129 2827   4.856   0.480   5.801  0.2280 -0.2340 -0.0278
   20MOL   O130 2828   4.971   0.429   5.727  0.0320 -0.3249 -0.9142
   20MOL   H131 2829   4.859   0.365   5.994 -2.5200  0.3896  0.0595
   20MOL   H132 2830   4.814   0.519   6.019 -0.9855 -0.1346  0.0456
   20MOL   H133 2831   4.829   0.584   5.778 -1.1078 -0.9755 -1.9483
   20MOL   H134 2832   4.976   0.466   5.640  3.5463 -1.7037 -1.3615
   20MOL   C135 2833   4.738   0.390   5.760  1.2117  0.1713  0.2653
   20MOL   C136 2834   4.686   0.434   5.614  0.2024  0.3799 -0.5628
   20MOL   O137 2835   4.581   0.349   5.581  0.4173  0.0195 -0.1491
   20MOL   H138 2836   4.772   0.288   5.774  0.1567 -0.2580 -0.2852
   20MOL   H139 2837   4.653   0.415   5.824  1.8880  1.1157  0.8121
   20MOL   H140 2838   4.762   0.417   5.539  1.0757 -1.7822  0.7597
   20MOL   H141 2839   4.603   0.258   5.593 -0.0796  0.2055  2.3935
   20MOL   H142 2840   4.657   0.539   5.610 -0.7182  0.1160 -0.9198
   21MOL     C1 2841   3.831   4.010   6.812 -0.0045 -0.3223 -0.0715
   21MOL     C2 2842   3.769   3.896   6.898 -0.7725  0.2469 -0.5870
   21MOL     O3 2843   3.765   3.942   7.031  0.3173  0.1077  0.3999
   21MOL     H4 2844   3.920   4.064   6.847 -0.2464 -0.6596  1.0886
   21MOL     H5 2845   3.759   4.091   6.798  0.2145 -0.3176 -1.1861
   21MOL     H6 2846   3.842   3.814   6.899  0.2086  1.1099 -0.7749
   21MOL     H7 2847   3.852   3.968   7.059 -0.3115  3.2561 -0.4140
   21MOL     H8 2848   3.850   3.973   6.712 -1.3959  1.1055 -0.8925
   21MOL     C9 2849   3.633   3.846   6.847  0.3632 -0.0806  0.3607
   21MOL    C10 2850   3.564   3.723   6.911 -0.1482  0.0775  0.8812
   21MOL    O11 2851   3.637   3.610   6.866 -0.2444 -0.4080  0.3080
   21MOL    H12 2852   3.570   3.934   6.844 -0.7757 -0.9008 -0.0182
   21MOL    H13 2853   3.647   3.811   6.744 -0.5958  1.9075 -0.4628
   21MOL    H14 2854   3.469   3.719   6.856 -1.7370  1.5562  3.4000
   21MOL    H15 2855   3.589   3.581   6.790  2.1496 -0.2409 -1.3164
   21MOL    C16 2856   3.528   3.724   7.061 -0.2059  0.6728  0.1904
   21MOL    C17 2857   3.436   3.838   7.109 -0.5352  0.7758  0.8410
   21MOL    O18 2858   3.312   3.817   7.028  0.3315 -0.0813  0.2522
   21MOL    H19 2859   3.468   3.637   7.089 -0.4943  1.2617  1.3903
   21MOL    H20 2860   3.619   3.726   7.121  1.9741 -0.3427 -2.9522
   21MOL    H21 2861   3.482   3.933   7.084 -0.6072  0.8925  1.1435
   21MOL    H22 2862   3.241   3.813   7.090 -0.2921 -1.2259 -0.5295
   21MOL    C23 2863   3.404   3.824   7.254 -0.0489 -0.5029 -0.4570
   21MOL    C24 2864   3.361   3.955   7.327  0.4466 -1.3750 -0.1971
   21MOL    O25 2865   3.453   4.064   7.309 -0.0207  0.1455 -0.1780
   21MOL    H26 2866   3.328   3.746   7.258  0.4190 -0.9291  0.2480
   21MOL    H27 2867   3.486   3.789   7.316 -0.6517 -0.1825  0.5335
   21MOL    H28 2868   3.346   3.932   7.433 -0.0175 -2.3209 -0.4676
   21MOL    H29 2869   3.514   4.057   7.381 -1.1166  0.1484  0.7672
   21MOL    C30 2870   3.226   4.016   7.281  0.2317  0.5664  0.2013
   21MOL    C31 2871   3.104   3.917   7.296  0.9957  0.2552 -0.5477
   21MOL    O32 2872   3.113   3.816   7.197 -0.1961 -0.3452 -0.1061
   21MOL    H33 2873   3.203   4.091   7.356 -2.2793  0.2209 -0.1801
   21MOL    H34 2874   3.224   4.064   7.183 -0.6429  0.0983 -0.0155
   21MOL    H35 2875   3.011   3.969   7.276  0.3723 -1.5643 -2.6212
   21MOL    H36 2876   3.040   3.758   7.214 -0.2311 -0.2226  0.1676
   21MOL    C37 2877   3.087   3.839   7.424  0.8943  0.3784 -0.0003
   21MOL    C38 2878   3.046   3.909   0.041  0.4386 -0.3332 -0.1610
   21MOL    O39 2879   2.921   3.975   0.017 -0.4130 -0.9152  0.2141
   21MOL    H40 2880   3.022   3.757   7.393  2.4375 -0.2504 -1.6976
   21MOL    H41 2881   3.179   3.785   7.451  0.7763  0.9049  1.5047
   21MOL    H42 2882   3.106   3.997   0.061 -0.3423  0.1149  0.2412
   21MOL    H43 2883   2.918   4.056   0.065  2.5417 -1.9228  2.2487
   21MOL    C44 2884   3.016   3.809   0.154  0.0854  0.3459  0.3005
   21MOL    C45 2885   3.144   3.748   0.213  0.0625 -0.8512  0.3384
   21MOL    O46 2886   3.250   3.845   0.228 -0.0161 -0.2764 -0.2822
   21MOL    H47 2887   2.954   3.856   0.230  0.6826  1.2806  0.2262
   21MOL    H48 2888   2.961   3.735   0.096  2.7438 -3.2732  2.1411
   21MOL    H49 2889   3.190   3.673   0.149  0.2200 -0.9046  0.5134
   21MOL    H50 2890   3.321   3.797   0.269 -0.4656  0.9783  2.1020
   21MOL    C51 2891   3.114   3.682   0.354 -0.6753  0.2494  1.0595
   21MOL    C52 2892   3.028   3.549   0.341  0.7957 -0.2907 -0.3202
   21MOL    O53 2893   3.107   3.460   0.269 -0.0020 -0.0173 -0.8424
   21MOL    H54 2894   3.206   3.651   0.402 -1.6384  0.7627  3.3024
   21MOL    H55 2895   3.073   3.750   0.429 -1.4244  1.7658 -0.6607
   21MOL    H56 2896   2.932   3.571   0.295  0.5899 -0.8438 -0.1537
   21MOL    H57 2897   3.064   3.421   0.195 -1.8672  0.6548 -0.1723
   21MOL    C58 2898   3.008   3.490   0.479 -0.6755 -0.1783 -0.3613
   21MOL    C59 2899   2.937   3.352   0.488  0.1972  0.1982 -0.3197
   21MOL    O60 2900   2.992   3.287   0.600  0.4175 -0.0650  0.7035
   21MOL    H61 2901   3.111   3.467   0.504 -0.8437  0.0165  0.5304
   21MOL    H62 2902   2.984   3.557   0.562 -0.2089  0.8590 -1.0507
   21MOL    H63 2903   2.962   3.292   0.400 -0.7238  0.7709 -0.9829
   21MOL    H64 2904   3.077   3.249   0.581  0.0342 -0.1563 -0.8613
   21MOL    C65 2905   2.783   3.363   0.514 -0.0537  0.1855 -1.1958
   21MOL    C66 2906   2.709   3.462   0.420 -0.1118  0.1118  0.8938
   21MOL    O67 2907   2.712   3.410   0.286 -0.0697  0.3061 -0.3409
   21MOL    H68 2908   2.734   3.266   0.515  2.6711 -1.2311 -0.4110
   21MOL    H69 2909   2.785   3.406   0.615 -3.2076  0.6223 -1.2605
   21MOL    H70 2910   2.762   3.557   0.420  2.1861 -1.1391  0.0499
   21MOL    H71 2911   2.649   3.340   0.276  0.8466 -0.2397 -2.4182
   21MOL    C72 2912   2.559   3.484   0.447 -0.0132  0.3360  0.5808
   21MOL    C73 2913   2.519   3.485   0.598  0.2097  0.1244  0.1110
   21MOL    O74 2914   2.597   3.585   0.664 -0.6475 -0.3326 -0.0207
   21MOL    H75 2915   2.515   3.564   0.386  4.1840  0.8307 -2.0519
   21MOL    H76 2916   2.508   3.399   0.403  1.4516  0.2911 -1.0779
   21MOL    H77 2917   2.543   3.388   0.640  1.1863 -0.2294 -1.2275
   21MOL    H78 2918   2.583   3.574   0.757  1.9442  3.6446  0.9766
   21MOL    C79 2919   2.368   3.528   0.630  0.2317  0.1057  0.2733
   21MOL    C80 2920   2.254   3.432   0.582 -0.2440 -0.5101 -0.5586
   21MOL    O81 2921   2.215   3.480   0.457  0.8664  0.1669  0.0295
   21MOL    H82 2922   2.355   3.548   0.736 -1.7812 -1.7412  0.4096
   21MOL    H83 2923   2.361   3.629   0.590  2.6423  0.3379  0.3459
   21MOL    H84 2924   2.169   3.453   0.647 -0.4417  0.9239 -1.2595
   21MOL    H85 2925   2.182   3.568   0.450 -0.2133 -0.1910  0.5104
   21MOL    C86 2926   2.290   3.284   0.574 -0.1247  0.5311  0.7464
   21MOL    C87 2927   2.173   3.189   0.531  0.2826 -0.3947  0.3602
   21MOL    O88 2928   2.222   3.079   0.450  0.5313  0.5915  0.0168
   21MOL    H89 2929   2.363   3.275   0.494  0.5343  2.2931  1.1284
   21MOL    H90 2930   2.326   3.250   0.671 -1.5632  0.2678  1.2007
   21MOL    H91 2931   2.103   3.245   0.469  0.8762  0.2482  0.2606
   21MOL    H92 2932   2.153   3.026   0.413 -0.3742  0.3661  1.9532
   21MOL    C93 2933   2.095   3.115   0.644  0.4257  0.0777  0.0220
   21MOL    C94 2934   1.952   3.070   0.620 -0.3135  0.4623 -0.2653
   21MOL    O95 2935   1.934   2.972   0.717 -0.6566  0.1553  0.0579
   21MOL    H96 2936   2.149   3.025   0.673  2.1309  1.1247  0.2026
   21MOL    H97 2937   2.090   3.175   0.735  0.3305  1.0649 -0.6187
   21MOL    H98 2938   1.936   3.034   0.518 -0.0708 -1.9735  0.5167
   21MOL    H99 2939   1.859   2.923   0.687 -2.9276  2.4137  1.8414
   21MOL   C100 2940   1.860   3.184   0.653 -0.0495  0.1785 -0.0771
   21MOL   C101 2941   1.884   3.320   0.588  0.7348  0.5831 -0.8619
   21MOL   O102 2942   1.873   3.319   0.443  0.1526 -0.5675  0.2366
   21MOL   H103 2943   1.757   3.161   0.626 -0.1544 -0.1326  0.5743
   21MOL   H104 2944   1.873   3.208   0.759  0.2091 -0.5396  0.0508
   21MOL   H105 2945   1.972   3.366   0.632 -1.1426  2.6574  0.8427
   21MOL   H106 2946   1.798   3.266   0.420 -2.3338  3.3635 -1.2581
   21MOL   C107 2947   1.776   3.422   0.643  0.0381 -0.1422 -0.5810
   21MOL   C108 2948   1.788   3.562   0.589 -0.6637  0.0389  0.2635
   21MOL   O109 2949   1.754   3.557   0.449  0.2067 -0.5641 -0.2485
   21MOL   H110 2950   1.679   3.372   0.634  0.3439 -0.2254 -4.1167
   21MOL   H111 2951   1.788   3.425   0.751 -0.8768 -2.9563 -0.3672
   21MOL   H112 2952   1.894   3.589   0.599 -0.5863  0.0092 -0.4379
   21MOL   H113 2953   1.800   3.482   0.413 -0.6210 -1.4449  0.5032
   21MOL   C114 2954   1.712   3.663   0.662  0.2505  0.6652 -0.0086
   21MOL   C115 2955   1.732   3.804   0.614 -0.3569 -0.6529  0.5049
   21MOL   O116 2956   1.677   3.807   0.484  0.3352  0.7769  0.1237
   21MOL   H117 2957   1.608   3.632   0.669  0.7430 -1.0802 -0.1754
   21MOL   H118 2958   1.742   3.666   0.767  1.1641 -0.9734 -0.2176
   21MOL   H119 2959   1.839   3.819   0.606 -0.1104 -2.2686  0.7857
   21MOL   H120 2960   1.698   3.724   0.444  0.0598  0.5021  0.5466
   21MOL   C121 2961   1.661   3.912   0.700 -0.1032  0.4281  0.3761
   21MOL   C122 2962   1.760   3.957   0.820  0.1328  0.0845  0.3390
   21MOL   O123 2963   1.861   4.049   0.776 -0.0894  0.5274 -0.7367
   21MOL   H124 2964   1.623   3.990   0.635  1.7409  0.3802 -0.7975
   21MOL   H125 2965   1.565   3.881   0.740  0.9634 -0.0716  2.6187
   21MOL   H126 2966   1.807   3.875   0.874  0.6214 -0.0931 -0.3444
   21MOL   H127 2967   1.881   4.094   0.857 -1.3373 -1.8408  0.9422
   21MOL   C128 2968   1.674   4.028   0.924  0.1282 -0.5913  0.1440
   21MOL   C129 2969   1.750   4.065   1.058  0.6459 -0.3704 -0.2756
   21MOL   O130 2970   1.866   4.141   1.021  0.2628 -0.7381  0.1557
   21MOL   H131 2971   1.627   4.116   0.881  1.2855  0.0572  0.2105
   21MOL   H132 2972   1.586   3.966   0.945  0.8863 -2.2639 -1.4671
   21MOL   H133 2973   1.772   3.978   1.120 -1.3259 -0.8807 -0.2614
   21MOL   H134 2974   1.884   4.208   1.085  0.6630 -0.5295 -0.1724
   21MOL   C135 2975   1.661   4.151   1.153 -0.0809 -0.1189  0.3573
   21MOL   C136 2976   1.550   4.066   1.220 -0.4472  0.1215  0.4069
   21MOL   O137 2977   1.469   4.144   1.310  0.1926 -0.6477  0.2203
   21MOL   H138 2978   1.717   4.205   1.229 -2.1508 -2.5302  3.7337
   21MOL   H139 2979   1.609   4.231   1.100  0.9067  1.6914  2.0476
   21MOL   H140 2980   1.604   3.992   1.279 -1.9606 -0.9824  0.4363
   21MOL   H141 2981   1.518   4.225   1.319  1.3092 -0.8242 -3.5463
   21MOL   H142 2982   1.496   4.004   1.148  1.1145 -0.7420 -0.0509
   22MOL     C1 2983   1.361   5.877   7.380  0.6445 -0.3221  0.3311
   22MOL     C2 2984   1.286   5.802   7.265  0.7758 -0.4671 -0.2582
   22MOL     O3 2985   1.355   5.680   7.246  0.0272 -0.4616  0.0291
   22MOL     H4 2986   1.349   5.828   7.477  0.2061  0.5024  0.7001
   22MOL     H5 2987   1.323   5.979   7.388  1.3939 -0.0529  0.4939
   22MOL     H6 2988   1.282   5.856   7.171 -0.7981 -2.0100 -1.1101
   22MOL     H7 2989   1.374   5.645   7.332  0.0514 -1.0061 -0.1973
   22MOL     H8 2990   1.467   5.876   7.355  0.5006 -0.5954 -0.2532
   22MOL     C9 2991   1.150   5.763   7.309  0.6188  0.3362 -0.1800
   22MOL    C10 2992   1.068   5.699   7.197  0.3808  0.4342  0.1371
   22MOL    O11 2993   0.952   5.646   7.256 -1.2877 -0.4833  0.2422
   22MOL    H12 2994   1.153   5.688   7.388  0.7198  0.0986 -0.4082
   22MOL    H13 2995   1.095   5.845   7.355  2.9866  2.0607 -0.3428
   22MOL    H14 2996   1.129   5.618   7.158  1.9896  1.3668  0.6452
   22MOL    H15 2997   0.941   5.565   7.209 -2.0864 -0.7914  0.9427
   22MOL    C16 2998   1.020   5.791   7.078  0.8799  0.2725  0.0479
   22MOL    C17 2999   1.116   5.789   6.948  0.6919  0.6558  0.0045
   22MOL    O18 3000   1.113   5.661   6.896 -0.0499 -0.0925 -0.4171
   22MOL    H19 3001   0.921   5.757   7.048 -0.1241  1.4340  1.9303
   22MOL    H20 3002   1.001   5.885   7.130  0.3162  0.6118 -0.7695
   22MOL    H21 3003   1.219   5.809   6.978  0.7807 -2.1542  1.7427
   22MOL    H22 3004   1.190   5.625   6.937 -1.4299 -0.2200  2.1533
   22MOL    C23 3005   1.076   5.887   6.838  0.2833  0.6814  0.4206
   22MOL    C24 3006   1.156   6.021   6.832 -0.2329 -0.3993 -0.2419
   22MOL    O25 3007   1.107   6.091   6.723  0.3086 -0.0694  0.3921
   22MOL    H26 3008   1.106   5.839   6.745 -0.5426 -1.4069  1.2114
   22MOL    H27 3009   0.970   5.914   6.838  0.5992  1.9819  0.3344
   22MOL    H28 3010   1.258   5.996   6.804  0.4227 -1.7529  3.0775
   22MOL    H29 3011   1.178   6.150   6.705  1.0338 -0.9271  0.4122
   22MOL    C30 3012   1.133   6.118   6.953 -0.3528 -0.1179  0.2391
   22MOL    C31 3013   1.236   6.229   6.970  0.1368 -0.3849  0.0896
   22MOL    O32 3014   1.187   6.325   7.059  0.3916  0.0389  0.0426
   22MOL    H33 3015   1.030   6.150   6.938  0.2852  1.9712  0.1941
   22MOL    H34 3016   1.129   6.055   7.042 -0.5799  0.4438  0.6279
   22MOL    H35 3017   1.246   6.286   6.878 -0.2160 -0.3697  0.0608
   22MOL    H36 3018   1.186   6.406   7.010  3.6929  0.5269  0.6444
   22MOL    C37 3019   1.370   6.172   7.025  0.2044  0.2532 -0.0628
   22MOL    C38 3020   1.466   6.260   7.099 -0.2678  0.6191 -0.2721
   22MOL    O39 3021   1.557   6.171   7.162 -0.1422 -0.3567  0.0561
   22MOL    H40 3022   1.347   6.085   7.087 -1.3448  0.1949 -0.7019
   22MOL    H41 3023   1.431   6.121   6.950  0.0767  1.7212 -1.1763
   22MOL    H42 3024   1.409   6.323   7.167  1.7298  0.8218  1.2878
   22MOL    H43 3025   1.569   6.188   7.254  1.1565 -2.4277  0.3028
   22MOL    C44 3026   1.545   6.358   7.010 -0.3187 -0.5219 -0.2442
   22MOL    C45 3027   1.472   6.450   6.916 -0.1554 -0.5009  0.2617
   22MOL    O46 3028   1.375   6.522   6.985  0.2077  0.0359 -0.4814
   22MOL    H47 3029   1.608   6.421   7.074  1.1917 -0.2948 -1.8951
   22MOL    H48 3030   1.619   6.310   6.945  0.2982 -0.7617  0.6274
   22MOL    H49 3031   1.416   6.397   6.839 -0.9731 -1.0211  1.2005
   22MOL    H50 3032   1.422   6.570   7.051 -0.6433  1.7073 -1.0574
   22MOL    C51 3033   1.560   6.544   6.839 -0.1149 -0.3522  0.0994
   22MOL    C52 3034   1.486   6.623   6.729 -0.4551 -0.1982  0.3244
   22MOL    O53 3035   1.418   6.739   6.770 -0.0012  0.3072  0.3709
   22MOL    H54 3036   1.603   6.623   6.901  0.6090 -1.0946  0.5572
   22MOL    H55 3037   1.643   6.487   6.799  0.6689  0.3856  0.6411
   22MOL    H56 3038   1.422   6.554   6.674  0.5082  0.1404 -1.2662
   22MOL    H57 3039   1.346   6.760   6.712 -1.1582  2.0338  2.3739
   22MOL    C58 3040   1.577   6.666   6.606  0.3245  0.9907  0.7995
   22MOL    C59 3041   1.500   6.684   6.470 -0.0701 -0.2847 -1.0349
   22MOL    O60 3042   1.448   6.559   6.423  0.0610  0.6962 -0.0008
   22MOL    H61 3043   1.630   6.759   6.623  1.5665  0.6562 -1.0164
   22MOL    H62 3044   1.660   6.595   6.604  1.8689  2.7595  0.1656
   22MOL    H63 3045   1.579   6.686   6.395  0.8473  0.6513 -0.0699
   22MOL    H64 3046   1.363   6.537   6.457  1.1196 -0.4877  1.9668
   22MOL    C65 3047   1.412   6.816   6.452 -0.0658  0.2998 -0.4469
   22MOL    C66 3048   1.421   6.877   6.309 -0.5056 -0.3431 -0.0381
   22MOL    O67 3049   1.312   6.951   6.280 -0.6124  0.1975  0.1156
   22MOL    H68 3050   1.308   6.799   6.477  0.0657  1.9401  1.3020
   22MOL    H69 3051   1.451   6.890   6.522 -2.8241  1.7070 -0.3190
   22MOL    H70 3052   1.423   6.791   6.242  2.8075 -1.9639  1.9662
   22MOL    H71 3053   1.311   7.021   6.344  0.8266 -0.1062  0.4843
   22MOL    C72 3054   1.551   6.954   6.289 -0.2703 -0.5601  0.1041
   22MOL    C73 3055   1.599   6.989   6.152 -0.2473  0.5990  0.4416
   22MOL    O74 3056   1.715   7.084   6.173 -0.3861  0.2677  0.0320
   22MOL    H75 3057   1.545   7.044   6.350 -0.3489  0.0646 -0.8214
   22MOL    H76 3058   1.627   6.897   6.343 -1.4362 -0.1256  2.2809
   22MOL    H77 3059   1.531   7.057   6.100 -0.1831 -0.7066 -1.3982
   22MOL    H78 3060   1.687   7.169   6.203  2.5109  1.7573 -1.2463
   22MOL    C79 3061   1.638   6.872   6.059  0.4947  0.4330 -0.0841
   22MOL    C80 3062   1.702   6.917   5.926  0.7504  0.1430  0.3421
   22MOL    O81 3063   1.832   6.971   5.942  0.5573 -0.3143 -0.8649
   22MOL    H82 3064   1.703   6.806   6.117 -0.1682 -0.4515 -0.3297
   22MOL    H83 3065   1.547   6.814   6.041 -0.1477  0.6729  2.2268
   22MOL    H84 3066   1.641   6.999   5.887  2.2590  2.3805  2.5397
   22MOL    H85 3067   1.834   7.040   6.007 -2.0151  0.9583 -2.0556
   22MOL    C86 3068   1.702   6.810   5.812  0.1590 -0.6264 -0.0468
   22MOL    C87 3069   1.567   6.748   5.771 -0.1830 -0.3341  0.3331
   22MOL    O88 3070   1.473   6.840   5.713  0.6896  0.1027 -0.0599
   22MOL    H89 3071   1.740   6.872   5.730 -1.6964 -0.2242 -0.6252
   22MOL    H90 3072   1.783   6.740   5.831  1.4984  0.2555 -2.2800
   22MOL    H91 3073   1.507   6.708   5.853 -0.1724 -0.5342  0.2423
   22MOL    H92 3074   1.397   6.847   5.769 -0.7092  1.1528 -2.0197
   22MOL    C93 3075   1.582   6.626   5.681 -1.1290  0.4932 -0.0364
   22MOL    C94 3076   1.656   6.506   5.741 -0.3645 -0.7131  0.5128
   22MOL    O95 3077   1.555   6.418   5.789 -0.2499  0.3095  0.1947
   22MOL    H96 3078   1.491   6.600   5.627 -0.2223  0.9675 -1.8296
   22MOL    H97 3079   1.648   6.665   5.604 -1.7436  0.0160 -0.8159
   22MOL    H98 3080   1.729   6.531   5.817  2.2405 -0.1285 -2.1104
   22MOL    H99 3081   1.508   6.463   5.858  2.2868  2.1183  0.8039
   22MOL   C100 3082   1.737   6.438   5.628  0.2788 -0.0118  0.1383
   22MOL   C101 3083   1.884   6.478   5.607 -0.4469  0.4094 -0.7136
   22MOL   O102 3084   1.945   6.383   5.528  0.1174 -0.0401 -0.4365
   22MOL   H103 3085   1.746   6.332   5.651 -0.1618 -0.7684 -2.9418
   22MOL   H104 3086   1.673   6.434   5.540 -2.4528 -1.6121  2.1124
   22MOL   H105 3087   1.930   6.473   5.706  0.1267 -0.3551 -1.0106
   22MOL   H106 3088   1.958   6.305   5.580  2.8495 -1.0119 -2.4449
   22MOL   C107 3089   1.906   6.619   5.545 -0.4952  0.8897  0.8749
   22MOL   C108 3090   2.056   6.660   5.521 -0.5098 -0.1634  0.3384
   22MOL   O109 3091   2.056   6.785   5.450  0.4402  0.2332 -0.1413
   22MOL   H110 3092   1.855   6.627   5.449  1.7234  0.0863 -0.4054
   22MOL   H111 3093   1.864   6.690   5.616  0.9239  3.7501 -1.0633
   22MOL   H112 3094   2.110   6.587   5.462  2.8215  2.6438 -0.2443
   22MOL   H113 3095   2.061   6.767   5.358  2.4939 -2.1982  0.3873
   22MOL   C114 3096   2.138   6.682   5.648  0.4654 -0.1340  0.2292
   22MOL   C115 3097   2.283   6.692   5.615 -1.0154 -0.3169  0.8949
   22MOL   O116 3098   2.299   6.807   5.523  0.4048  0.1408  0.5145
   22MOL   H117 3099   2.099   6.771   5.698  1.3411 -0.0745  0.8114
   22MOL   H118 3100   2.128   6.602   5.722  0.6411  0.1767  0.5919
   22MOL   H119 3101   2.317   6.606   5.558  0.7509  1.2143 -0.4468
   22MOL   H120 3102   2.213   6.820   5.485  0.1758 -1.2491  0.5286
   22MOL   C121 3103   2.376   6.695   5.741 -0.0256 -0.4107  0.1239
   22MOL   C122 3104   2.525   6.695   5.715  0.4947 -0.3849  0.1368
   22MOL   O123 3105   2.551   6.825   5.660  0.2603  0.2004  0.4663
   22MOL   H124 3106   2.343   6.778   5.804  0.6722 -0.9526  1.2062
   22MOL   H125 3107   2.347   6.610   5.803  0.3060 -1.0855 -0.6375
   22MOL   H126 3108   2.552   6.614   5.647  2.2932 -0.3296  0.7580
   22MOL   H127 3109   2.493   6.838   5.586  1.5348  2.1157 -0.2179
   22MOL   C128 3110   2.591   6.678   5.849 -0.7437  0.4117  0.7899
   22MOL   C129 3111   2.746   6.702   5.851  0.4033  0.0561 -0.3548
   22MOL   O130 3112   2.780   6.737   5.983  0.7034  0.0297  0.1162
   22MOL   H131 3113   2.550   6.748   5.923 -1.7610  2.7528 -1.8796
   22MOL   H132 3114   2.574   6.580   5.892  1.2393  0.7869  2.5337
   22MOL   H133 3115   2.779   6.788   5.792  1.4992  1.0441  1.6314
   22MOL   H134 3116   2.701   6.729   6.033  0.7884  0.3438  0.3011
   22MOL   C135 3117   2.827   6.576   5.830 -0.8043  0.0724 -0.1381
   22MOL   C136 3118   2.855   6.545   5.681  0.3785  0.1084 -0.5005
   22MOL   O137 3119   2.963   6.462   5.666  0.3642 -0.2799 -0.7226
   22MOL   H138 3120   2.924   6.590   5.877 -0.3674 -2.0397 -0.3396
   22MOL   H139 3121   2.795   6.488   5.887 -0.3135 -0.6540 -0.9770
   22MOL   H140 3122   2.872   6.643   5.636  1.4447 -0.1619 -0.7094
   22MOL   H141 3123   2.943   6.391   5.726  0.5012 -0.4078 -0.8287
   22MOL   H142 3124   2.767   6.499   5.635 -1.3017  1.2200  1.5106
   23MOL     C1 3125   5.561   6.051   2.910 -0.8264 -0.0750  0.8740
   23MOL     C2 3126   5.560   6.137   3.029  0.0218 -0.4783 -0.1491
   23MOL     O3 3127   5.681   6.135   3.101  0.5772  0.1935  0.2467
   23MOL     H4 3128   5.541   5.946   2.930 -0.6006 -0.5051 -0.9981
   23MOL     H5 3129   5.652   6.053   2.850 -2.4884 -0.7864 -1.7795
   23MOL     H6 3130   5.479   6.113   3.099  0.4675 -0.0242  0.5284
   23MOL     H7 3131   5.688   6.223   3.135 -0.8087  0.4500 -0.0669
   23MOL     H8 3132   5.476   6.082   2.848  0.2679  0.3692 -0.4160
   23MOL     C9 3133   5.522   6.283   2.999  0.3823 -0.2268 -0.5721
   23MOL    C10 3134   5.502   6.370   3.124 -0.3917  0.3504 -0.4840
   23MOL    O11 3135   5.628   6.392   3.190  0.3752 -0.2391 -0.5153
   23MOL    H12 3136   5.592   6.348   2.946  0.3687  1.1932  1.1273
   23MOL    H13 3137   5.423   6.285   2.953  0.6399  2.0352 -1.0859
   23MOL    H14 3138   5.453   6.312   3.203  1.5971 -0.7497 -0.0094
   23MOL    H15 3139   5.618   6.476   3.233  1.7628  0.4504 -1.4916
   23MOL    C16 3140   5.434   6.503   3.103 -0.0064  0.7519 -0.2090
   23MOL    C17 3141   5.408   6.596   3.219 -0.4456 -0.1395  0.5485
   23MOL    O18 3142   5.538   6.639   3.265  0.2369  0.0673  0.0946
   23MOL    H19 3143   5.482   6.555   3.020 -0.8193  0.6987 -0.7243
   23MOL    H20 3144   5.335   6.476   3.065 -0.9606  1.8051  1.4297
   23MOL    H21 3145   5.362   6.550   3.306 -0.7865 -1.4582 -0.3199
   23MOL    H22 3146   5.546   6.733   3.255 -0.5444  0.0009 -1.3035
   23MOL    C23 3147   5.306   6.709   3.186  0.1114  1.0789  0.1373
   23MOL    C24 3148   5.246   6.776   3.320  0.1234 -0.5251  0.0680
   23MOL    O25 3149   5.163   6.688   3.390  0.3582  0.1744  0.2573
   23MOL    H26 3150   5.340   6.789   3.121  0.0326 -0.0741 -1.3468
   23MOL    H27 3151   5.222   6.664   3.135 -0.8899  0.3432  2.3606
   23MOL    H28 3152   5.186   6.856   3.277 -0.2589 -0.4976  0.6547
   23MOL    H29 3153   5.145   6.629   3.318  0.9162  1.0525 -0.6139
   23MOL    C30 3154   5.348   6.849   3.413 -0.0364  0.0548  0.0289
   23MOL    C31 3155   5.430   6.962   3.351 -0.7374 -0.6411 -0.3774
   23MOL    O32 3156   5.536   6.912   3.258 -0.4555 -1.0311 -0.3103
   23MOL    H33 3157   5.285   6.886   3.493  0.2406  1.5815 -0.4386
   23MOL    H34 3158   5.416   6.776   3.456  0.3208 -0.0912 -0.7645
   23MOL    H35 3159   5.472   7.007   3.441 -0.0784  1.3629 -1.6538
   23MOL    H36 3160   5.550   6.985   3.200  0.0679  0.7251  1.9411
   23MOL    C37 3161   5.348   7.083   3.292 -0.2034  0.3248  0.5807
   23MOL    C38 3162   5.434   7.206   3.252  0.3954 -0.2116 -0.4892
   23MOL    O39 3163   5.518   7.171   3.151 -0.0616  0.0706  0.0284
   23MOL    H40 3164   5.293   7.047   3.205  0.5688  0.7362 -0.0778
   23MOL    H41 3165   5.265   7.113   3.357 -2.0265 -0.5050 -1.3157
   23MOL    H42 3166   5.485   7.225   3.347 -2.0326  0.5122  0.7160
   23MOL    H43 3167   5.478   7.169   3.065  1.8325  1.7072 -0.9484
   23MOL    C44 3168   5.341   7.326   3.210  0.6615 -0.0931  0.6277
   23MOL    C45 3169   5.285   7.408   3.330 -0.0265 -0.1027 -0.8625
   23MOL    O46 3170   5.402   7.452   3.402 -0.2189 -0.1954 -0.3201
   23MOL    H47 3171   5.417   7.387   3.161  0.1589 -0.0709 -0.1375
   23MOL    H48 3172   5.270   7.301   3.131  2.5871 -2.0207 -0.5462
   23MOL    H49 3173   5.220   7.347   3.393  0.8761 -0.5918 -0.3971
   23MOL    H50 3174   5.394   7.441   3.496 -1.2000 -0.9068 -0.4778
   23MOL    C51 3175   5.210   0.020   3.287 -0.2745 -0.7979  0.1369
   23MOL    C52 3176   5.174   0.129   3.392 -0.2466  0.0227  0.1694
   23MOL    O53 3177   5.124   0.239   3.326 -0.1086 -0.7452 -0.7790
   23MOL    H54 3178   5.268   0.069   3.208 -0.2715 -0.6982  0.2009
   23MOL    H55 3179   5.118   0.003   3.232 -1.1221  2.2640  0.4869
   23MOL    H56 3180   5.260   0.160   3.452  0.3759  0.5321 -0.9755
   23MOL    H57 3181   5.193   0.276   3.273  0.7410  0.1586  0.9484
   23MOL    C58 3182   5.058   0.086   3.488 -0.1863  0.2831  0.1441
   23MOL    C59 3183   5.019   0.201   3.583  0.5045 -0.6025 -0.8128
   23MOL    O60 3184   4.894   0.161   3.650 -0.6779  0.0948 -0.4384
   23MOL    H61 3185   4.971   0.053   3.432  0.7785  2.1803 -2.6168
   23MOL    H62 3186   5.083   7.507   3.525  2.6196 -0.0444 -2.3919
   23MOL    H63 3187   4.993   0.288   3.522 -0.0582 -0.1396  0.0823
   23MOL    H64 3188   4.823   0.134   3.593 -1.3929 -1.8763  1.3135
   23MOL    C65 3189   5.129   0.226   3.703  0.0677 -0.5071 -0.0007
   23MOL    C66 3190   5.101   0.342   3.795 -0.8489 -0.5909 -0.1038
   23MOL    O67 3191   4.987   0.311   3.871 -0.3610  0.4815 -0.1167
   23MOL    H68 3192   5.143   0.129   3.750 -2.9033 -0.9163  0.0899
   23MOL    H69 3193   5.230   0.253   3.670  0.0426  3.6074  2.9446
   23MOL    H70 3194   5.084   0.422   3.723 -1.2907  0.4747  1.1433
   23MOL    H71 3195   4.920   0.287   3.809  0.2016 -0.6938 -0.2916
   23MOL    C72 3196   5.202   0.384   3.894  0.8400  0.2670  0.5206
   23MOL    C73 3197   5.337   0.446   3.853 -0.4977  0.7314  0.8665
   23MOL    O74 3198   5.306   0.563   3.784 -0.0254  0.2277  0.1952
   23MOL    H75 3199   5.156   0.456   3.961  2.1225 -0.6689  2.4624
   23MOL    H76 3200   5.226   0.293   3.950  0.0838 -1.6309 -2.1235
   23MOL    H77 3201   5.395   0.379   3.789  1.4152  3.1928 -0.0564
   23MOL    H78 3202   5.239   0.610   3.831  0.6386  0.3998  0.9851
   23MOL    C79 3203   5.422   0.482   3.977  0.0746  0.1700 -0.7125
   23MOL    C80 3204   5.563   0.541   3.942 -0.0748 -0.1565  0.1989
   23MOL    O81 3205   5.632   0.570   4.065  0.1284  0.4850  0.4745
   23MOL    H82 3206   5.367   0.546   4.046 -1.7597  0.4361 -2.3876
   23MOL    H83 3207   5.428   0.392   4.038  1.2521  2.0832  2.1004
   23MOL    H84 3208   5.539   0.636   3.894  1.5389  0.3983  0.4521
   23MOL    H85 3209   5.579   0.555   4.141 -1.1779  1.5652 -0.1883
   23MOL    C86 3210   5.660   0.449   3.856 -0.1771 -0.1454  0.1856
   23MOL    C87 3211   5.796   0.499   3.805 -0.6765  0.3093  0.0856
   23MOL    O88 3212   5.858   0.557   3.920  0.7362  0.1734  0.6653
   23MOL    H89 3213   5.674   0.359   3.916  0.7989 -1.2692 -1.6860
   23MOL    H90 3214   5.603   0.411   3.772 -0.1470  0.5255 -0.1387
   23MOL    H91 3215   5.767   0.576   3.733 -1.3233  0.9871  1.0528
   23MOL    H92 3216   5.789   0.601   3.967  0.1348 -2.7968  2.7260
   23MOL    C93 3217   5.888   0.393   3.739 -0.0017  0.2398 -0.1729
   23MOL    C94 3218   5.841   0.344   3.602 -0.2101 -0.7136 -0.5684
   23MOL    O95 3219   5.956   0.344   3.511  0.1536 -0.2351  0.5942
   23MOL    H96 3220   5.972   0.458   3.716  0.3559  0.5948  1.9603
   23MOL    H97 3221   5.929   0.312   3.800 -0.7784  2.7881  3.9586
   23MOL    H98 3222   5.760   0.409   3.567 -0.1824 -1.2600 -1.6524
   23MOL    H99 3223   6.025   0.291   3.548  2.4658  1.4720 -1.1511
   23MOL   C100 3224   5.798   0.192   3.606 -0.0131 -0.6236  0.2951
   23MOL   C101 3225   5.657   0.152   3.662 -0.2305  0.3372 -0.0286
   23MOL   O102 3226   5.563   0.218   3.580  0.2666 -0.2324 -0.6059
   23MOL   H103 3227   5.810   0.155   3.504 -2.5102 -1.3255  0.2337
   23MOL   H104 3228   5.865   0.136   3.671  2.6236  0.4696 -1.3668
   23MOL   H105 3229   5.648   0.192   3.762  1.2028  0.2815  0.1272
   23MOL   H106 3230   5.578   0.190   3.491 -4.6557  0.7118 -1.8955
   23MOL   C107 3231   5.635   0.003   3.687 -0.2015 -0.2146 -0.4757
   23MOL   C108 3232   5.499   7.483   3.754  0.2784  0.3326  0.3216
   23MOL   O109 3233   5.391   7.517   3.666 -0.0877 -0.0876  0.3041
   23MOL   H110 3234   5.643   7.475   3.589 -0.8623  0.5852 -0.9215
   23MOL   H111 3235   5.718   7.486   3.748  0.0476  0.6579 -0.2948
   23MOL   H112 3236   5.487   0.033   3.836 -2.1078 -0.1887  0.4539
   23MOL   H113 3237   5.426   0.079   3.633  0.8840 -0.0198  1.4539
   23MOL   C114 3238   5.483   7.333   3.786  0.5721 -0.0323 -0.1768
   23MOL   C115 3239   5.585   7.284   3.893 -0.4992 -0.8207  0.1718
   23MOL   O116 3240   5.511   7.231   4.001  0.7168 -0.2143  0.5065
   23MOL   H117 3241   5.385   7.304   3.824  1.7956 -2.1194  1.4302
   23MOL   H118 3242   5.489   7.271   3.696 -2.5051 -1.5138  0.5613
   23MOL   H119 3243   5.634   7.367   3.944  0.8606 -1.0845 -0.6828
   23MOL   H120 3244   5.462   7.303   4.038 -1.3361 -1.6446  0.6486
   23MOL   C121 3245   5.683   7.169   3.853 -0.3658  0.0332  0.2120
   23MOL   C122 3246   5.770   7.204   3.735  0.6354 -0.5526  0.1412
   23MOL   O123 3247   5.884   7.279   3.782  0.1839 -0.0135 -0.3459
   23MOL   H124 3248   5.742   7.134   3.939  0.6849  1.7389  0.2187
   23MOL   H125 3249   5.620   7.088   3.817  0.8686 -1.2186  0.8249
   23MOL   H126 3250   5.718   7.268   3.663  1.8688 -0.0955 -0.3603
   23MOL   H127 3251   5.934   7.312   3.709 -0.5053  2.3630  0.2030
   23MOL   C128 3252   5.818   7.084   3.659 -0.2217 -0.0779 -0.0866
   23MOL   C129 3253   5.895   7.121   3.531 -0.6626 -0.0205 -0.1925
   23MOL   O130 3254   5.951   7.006   3.461 -0.1412 -0.2796 -0.0626
   23MOL   H131 3255   5.889   7.028   3.720  2.7507  2.2681 -1.2682
   23MOL   H132 3256   5.730   7.025   3.634 -0.2923  0.1147 -0.2971
   23MOL   H133 3257   5.987   7.173   3.558  0.2617 -1.8228  0.1913
   23MOL   H134 3258   6.023   6.971   3.511  1.5075  0.2844 -1.9884
   23MOL   C135 3259   5.807   7.192   3.425 -0.4008 -0.1168  1.1408
   23MOL   C136 3260   5.880   7.304   3.347  0.0282 -0.0478 -0.5590
   23MOL   O137 3261   5.873   7.428   3.412 -0.6957 -0.1639 -0.1402
   23MOL   H138 3262   5.777   7.111   3.358  0.6409 -0.7751  1.4699
   23MOL   H139 3263   5.713   7.238   3.456 -1.9357 -1.6699 -1.0520
   23MOL   H140 3264   5.840   7.309   3.245  0.9260  1.3055 -0.8635
   23MOL   H141 3265   5.793   7.469   3.380 -0.2977  2.3783  2.0007
   23MOL   H142 3266   5.984   7.274   3.338 -0.3969 -1.4124 -0.9401
   24MOL     C1 3267   0.798   0.852   3.035  0.5676 -0.4946  0.3752
   24MOL     C2 3268   0.844   0.935   3.158  0.5174  0.6477 -0.4577
   24MOL     O3 3269   0.886   0.855   3.266 -0.2863  0.5464  0.3725
   24MOL     H4 3270   0.700   0.809   3.057 -0.0053 -0.0486 -1.2997
   24MOL     H5 3271   0.865   0.773   3.002  1.5861 -0.1222  1.5087
   24MOL     H6 3272   0.761   1.001   3.184 -1.0141 -1.9817  1.7047
   24MOL     H7 3273   0.812   0.806   3.299 -1.6623  3.5484  1.8859
   24MOL     H8 3274   0.780   0.913   2.947 -2.9068 -0.5631  0.9339
   24MOL     C9 3275   0.961   1.023   3.093 -0.0099 -0.3234  0.2412
   24MOL    C10 3276   1.035   1.106   3.190 -0.4329  0.1275 -0.6820
   24MOL    O11 3277   1.148   1.156   3.117  0.5278  0.6692 -0.4552
   24MOL    H12 3278   1.035   0.956   3.048 -0.7688 -0.6300 -0.5684
   24MOL    H13 3279   0.922   1.073   3.004  2.1258  0.1366 -0.4597
   24MOL    H14 3280   1.067   1.048   3.277 -1.4282  2.0495  1.0121
   24MOL    H15 3281   1.230   1.149   3.164  0.4344 -0.4393 -0.4315
   24MOL    C16 3282   0.966   1.238   3.244  0.9060  0.2218  0.1131
   24MOL    C17 3283   0.850   1.236   3.352 -0.0983 -0.6972 -0.1028
   24MOL    O18 3284   0.722   1.210   3.296  0.1913  0.0612 -0.1218
   24MOL    H19 3285   1.046   1.301   3.281  0.6530  2.2575 -2.6133
   24MOL    H20 3286   0.928   1.297   3.160  1.0082  0.0905 -0.0252
   24MOL    H21 3287   0.838   1.338   3.388 -0.8360 -1.0806  0.7587
   24MOL    H22 3288   0.681   1.155   3.360 -2.8218 -0.3005 -2.2624
   24MOL    C23 3289   0.873   1.161   3.484  0.7144  0.1129  0.4276
   24MOL    C24 3290   0.992   1.196   3.571 -0.4884  0.7221  0.0231
   24MOL    O25 3291   0.975   1.321   3.638 -0.6770 -0.3964  0.3277
   24MOL    H26 3292   0.781   1.173   3.542  0.8749  1.3598  0.4524
   24MOL    H27 3293   0.878   1.058   3.451 -0.1781  0.9360 -2.4399
   24MOL    H28 3294   1.076   1.203   3.501  0.8786 -3.6478  1.0649
   24MOL    H29 3295   1.057   1.366   3.622 -1.4516  0.6367 -0.8452
   24MOL    C30 3296   1.021   1.086   3.677 -0.2427 -0.7369  0.3701
   24MOL    C31 3297   1.064   0.951   3.619  0.4264 -0.0855  0.9604
   24MOL    O32 3298   1.181   0.964   3.542  1.2476  0.0187  0.8854
   24MOL    H33 3299   1.100   1.117   3.745  0.5917 -0.0654 -0.8819
   24MOL    H34 3300   0.934   1.063   3.737 -0.6843  1.1450  0.5022
   24MOL    H35 3301   0.989   0.916   3.548 -0.6843  4.2260 -0.1434
   24MOL    H36 3302   1.254   0.984   3.599 -0.1799  0.5146  2.6015
   24MOL    C37 3303   1.082   0.847   3.725 -0.7859 -0.8250  0.3029
   24MOL    C38 3304   0.961   0.769   3.759  0.9037 -0.5904 -0.0179
   24MOL    O39 3305   0.944   0.664   3.666 -0.2612 -0.2163  0.6413
   24MOL    H40 3306   1.157   0.777   3.688 -2.3026 -2.4387  0.2133
   24MOL    H41 3307   1.128   0.889   3.815  0.3550  2.6057 -1.7931
   24MOL    H42 3308   0.873   0.834   3.759  1.6727  0.4794  0.4786
   24MOL    H43 3309   0.885   0.693   3.598 -1.5028  2.0749  2.6310
   24MOL    C44 3310   0.981   0.694   3.893 -0.4366  0.8328 -1.0168
   24MOL    C45 3311   0.855   0.637   3.973  0.2248 -0.1460 -0.4992
   24MOL    O46 3312   0.879   0.587   4.100 -0.2038 -0.5000 -0.1922
   24MOL    H47 3313   1.063   0.623   3.878  1.0922  2.0591  1.2530
   24MOL    H48 3314   1.022   0.773   3.956 -0.7273 -0.7726  1.2531
   24MOL    H49 3315   0.827   0.550   3.913 -0.0414 -0.0021 -0.5849
   24MOL    H50 3316   0.940   0.515   4.098  1.4868  0.9412 -1.0051
   24MOL    C51 3317   0.735   0.735   3.990  0.1594  0.0888 -0.3555
   24MOL    C52 3318   0.603   0.671   4.030 -0.2080  0.7175  0.6192
   24MOL    O53 3319   0.520   0.780   4.052 -0.2263 -0.4534 -0.0386
   24MOL    H54 3320   0.762   0.819   4.054  0.0646 -0.4537  0.4115
   24MOL    H55 3321   0.711   0.796   3.903  1.7880  1.8149  0.3763
   24MOL    H56 3322   0.613   0.614   4.123 -3.0249 -0.3614  0.3132
   24MOL    H57 3323   0.549   0.814   4.135 -0.7610 -0.4352  0.1461
   24MOL    C58 3324   0.531   0.599   3.911 -0.1721  0.9548  0.7792
   24MOL    C59 3325   0.398   0.531   3.938  0.1461  0.1259 -0.0369
   24MOL    O60 3326   0.359   0.475   3.815  0.3516 -0.1912 -0.4083
   24MOL    H61 3327   0.523   0.659   3.820  0.2293 -1.7071 -1.0716
   24MOL    H62 3328   0.597   0.516   3.884 -1.1344 -0.2873  2.1454
   24MOL    H63 3329   0.336   0.613   3.977  2.0459  1.7728 -0.4299
   24MOL    H64 3330   0.322   0.539   3.756  1.9390 -1.4950 -2.8991
   24MOL    C65 3331   0.417   0.414   4.043 -0.1273 -0.3037  0.3720
   24MOL    C66 3332   0.286   0.367   4.113  0.3249  0.7644  0.1265
   24MOL    O67 3333   0.230   0.477   4.177  0.2852 -0.5194 -0.3893
   24MOL    H68 3334   0.456   0.327   3.991  0.1810 -0.3794  0.7273
   24MOL    H69 3335   0.500   0.440   4.109 -0.3927  0.7210  0.3079
   24MOL    H70 3336   0.315   0.300   4.194 -0.1356  0.8213  0.3346
   24MOL    H71 3337   0.274   0.476   4.261  0.4788 -3.5858 -0.4818
   24MOL    C72 3338   0.181   0.298   4.020  0.2118  0.7138 -0.0021
   24MOL    C73 3339   0.130   0.153   4.056 -0.3815  0.3556 -0.4009
   24MOL    O74 3340   0.031   0.115   3.960 -0.4742 -0.1765 -0.6094
   24MOL    H75 3341   0.099   0.368   4.004 -0.1636  0.1777 -0.4369
   24MOL    H76 3342   0.216   0.281   3.918 -1.1248 -0.2992 -0.3147
   24MOL    H77 3343   0.069   0.163   4.146 -3.7844 -2.4504 -2.2657
   24MOL    H78 3344   0.058   0.038   3.913  0.7570 -0.4318  0.4788
   24MOL    C79 3345   0.233   0.041   4.061  0.3744  0.4357  0.2240
   24MOL    C80 3346   0.352   0.053   4.170 -0.1034  0.0537  0.5713
   24MOL    O81 3347   0.293   0.063   4.303  0.1663 -1.3000  0.6822
   24MOL    H82 3348   0.176   7.471   4.088 -3.2087  2.2847 -0.8060
   24MOL    H83 3349   0.276   0.031   3.961  0.2223  2.7512 -0.0953
   24MOL    H84 3350   0.422   0.133   4.147 -1.5185  0.7646 -1.3365
   24MOL    H85 3351   0.339   0.123   4.359  0.7908 -0.0357 -1.1240
   24MOL    C86 3352   0.433   7.442   4.181  0.4248  0.0627  0.3449
   24MOL    C87 3353   0.537   7.402   4.074  0.3674  0.1181 -0.6922
   24MOL    O88 3354   0.635   7.504   4.080 -0.0267  0.5225  0.4907
   24MOL    H89 3355   0.479   7.445   4.280  1.6322  1.5129 -0.2455
   24MOL    H90 3356   0.362   7.360   4.188  1.0183 -0.5390 -0.6081
   24MOL    H91 3357   0.487   7.406   3.977 -1.3403 -2.6339  0.0242
   24MOL    H92 3358   0.715   7.471   4.118  0.8556  0.5565 -1.2907
   24MOL    C93 3359   0.597   7.260   4.100  0.0413 -0.7330 -0.5090
   24MOL    C94 3360   0.697   7.198   4.005 -0.3124  0.7750 -0.5171
   24MOL    O95 3361   0.817   7.273   4.016 -0.6131 -0.5848  0.0314
   24MOL    H96 3362   0.626   7.267   4.204  0.2408 -1.1334 -0.5395
   24MOL    H97 3363   0.509   7.196   4.108 -0.7422  0.2723 -0.8362
   24MOL    H98 3364   0.664   7.176   3.903 -1.0501 -0.5788 -0.0055
   24MOL    H99 3365   0.886   7.221   3.977  1.7661  2.2707  0.2722
   24MOL   C100 3366   0.726   7.059   4.063 -0.2002 -0.1683  0.0421
   24MOL   C101 3367   0.790   6.953   3.972  1.6304 -0.0164  0.0911
   24MOL   O102 3368   0.887   6.894   4.058  0.6307  0.3475 -0.1067
   24MOL   H103 3369   0.781   7.069   4.156  0.5052 -1.6633 -0.1965
   24MOL   H104 3370   0.635   7.011   4.098  1.2343 -1.3952  2.1293
   24MOL   H105 3371   0.838   7.011   3.893  3.1486  0.6940  1.5087
   24MOL   H106 3372   0.961   6.952   4.053  0.7538  0.2763  0.7855
   24MOL   C107 3373   0.682   6.842   3.930  0.4893  0.5962  0.1397
   24MOL   C108 3374   0.750   6.717   3.869  0.0587 -0.1423  0.7330
   24MOL   O109 3375   0.648   6.636   3.812  0.0680  0.1777 -0.1525
   24MOL   H110 3376   0.612   6.817   4.009 -0.0423 -0.7648 -0.7329
   24MOL   H111 3377   0.624   6.882   3.846  1.6710  1.0023 -0.4919
   24MOL   H112 3378   0.797   6.653   3.943  1.0943 -0.0227  0.1839
   24MOL   H113 3379   0.573   6.632   3.869 -1.7839  0.3999 -2.4998
   24MOL   C114 3380   0.864   6.752   3.769  0.0574 -0.0727 -0.0377
   24MOL   C115 3381   0.960   6.638   3.732 -0.4153 -0.0789  0.3049
   24MOL   O116 3382   1.036   6.675   3.615 -0.0428 -0.4941 -0.2134
   24MOL   H117 3383   0.815   6.791   3.680 -0.4994 -0.1552  0.2341
   24MOL   H118 3384   0.925   6.833   3.811 -0.4325 -0.4564  1.4340
   24MOL   H119 3385   0.903   6.551   3.700  2.9172 -1.8889 -0.9587
   24MOL   H120 3386   1.064   6.765   3.619 -0.5159 -0.3544 -0.0536
   24MOL   C121 3387   1.062   6.597   3.844 -0.3748 -0.0458 -0.4338
   24MOL   C122 3388   1.168   6.484   3.811  0.0183 -0.0868 -0.6953
   24MOL   O123 3389   1.259   6.477   3.923  0.2983  0.5648 -0.0785
   24MOL   H124 3390   1.119   6.688   3.859 -0.4722 -0.4337  2.6511
   24MOL   H125 3391   1.013   6.568   3.937  0.7732  0.6841  0.4124
   24MOL   H126 3392   1.235   6.513   3.730 -3.0646  0.2028 -3.2178
   24MOL   H127 3393   1.272   6.385   3.936 -2.0483  0.2346  0.0837
   24MOL   C128 3394   1.101   6.346   3.779  1.1144  0.0215 -0.2550
   24MOL   C129 3395   1.205   6.235   3.730 -0.3612 -0.3495  0.6947
   24MOL   O130 3396   1.291   6.192   3.828  0.2037 -0.0072 -0.3242
   24MOL   H131 3397   1.036   6.312   3.860  1.1364 -0.9484 -0.6360
   24MOL   H132 3398   1.030   6.360   3.698  0.4346 -1.1973  0.1007
   24MOL   H133 3399   1.263   6.270   3.644  0.6837 -0.0413  1.5087
   24MOL   H134 3400   1.378   6.199   3.793  0.2703  0.0520 -0.1443
   24MOL   C135 3401   1.132   6.108   3.682 -0.2578  0.1409 -0.1516
   24MOL   C136 3402   1.109   6.088   3.532  0.7316 -0.3496 -0.1313
   24MOL   O137 3403   1.003   5.992   3.523 -0.6730 -0.2014  0.0086
   24MOL   H138 3404   1.174   6.015   3.719  0.4113 -0.2559 -1.8629
   24MOL   H139 3405   1.039   6.104   3.739  0.5799 -0.8553  1.1727
   24MOL   H140 3406   1.195   6.045   3.481  0.9752 -0.4851  0.3978
   24MOL   H141 3407   1.013   5.921   3.584  1.1005  1.2676  1.4762
   24MOL   H142 3408   1.075   6.182   3.488 -0.3259  0.0652  1.5191
   25MOL     C1 3409   3.295   1.107   7.315 -0.2929 -0.4927  0.1887
   25MOL     C2 3410   3.371   1.109   7.444 -0.4325 -0.4827  0.1141
   25MOL     O3 3411   3.472   1.014   7.443  0.7051  0.3655 -0.0581
   25MOL     H4 3412   3.368   1.111   7.235 -0.4744  1.4188  0.0742
   25MOL     H5 3413   3.227   1.193   7.318 -2.6851 -2.3476  1.6189
   25MOL     H6 3414   3.302   1.089   0.006 -0.0648  2.5516  1.2408
   25MOL     H7 3415   3.423   0.940   7.409 -0.4031  0.6440  0.8854
   25MOL     H8 3416   3.227   1.023   7.301 -3.4565  2.0333 -0.4809
   25MOL     C9 3417   3.445   1.242   7.462 -0.1565 -0.1429  0.1817
   25MOL    C10 3418   3.493   1.272   0.087  0.2753 -0.0061  0.3995
   25MOL    O11 3419   3.579   1.389   0.085 -0.1452 -0.5127  0.4302
   25MOL    H12 3420   3.517   1.260   7.383 -0.0548 -0.4754  0.2001
   25MOL    H13 3421   3.381   1.330   7.445  2.8049  1.5479 -2.7033
   25MOL    H14 3422   3.563   1.193   0.113  0.6475 -0.3031 -1.4436
   25MOL    H15 3423   3.659   1.368   0.130  0.1268 -2.5098 -0.9061
   25MOL    C16 3424   3.373   1.282   0.190  0.3236 -0.5029  0.1158
   25MOL    C17 3425   3.399   1.280   0.337 -0.0500 -0.3487 -0.4563
   25MOL    O18 3426   3.285   1.313   0.412  0.2868  0.0837  0.3729
   25MOL    H19 3427   3.317   1.374   0.175 -0.4175 -0.9447  0.1709
   25MOL    H20 3428   3.299   1.203   0.177  0.3505 -0.3859 -0.7960
   25MOL    H21 3429   3.463   1.368   0.347  1.4228 -1.3800 -0.6365
   25MOL    H22 3430   3.204   1.268   0.392  0.5065  0.9285 -2.6526
   25MOL    C23 3431   3.473   1.161   0.379 -0.3000 -0.3759 -0.0417
   25MOL    C24 3432   3.529   1.162   0.525  0.7094  0.7985 -0.3054
   25MOL    O25 3433   3.578   1.032   0.555  0.2865 -0.2595  0.3508
   25MOL    H26 3434   3.405   1.076   0.369 -0.8601  0.2875 -2.1208
   25MOL    H27 3435   3.559   1.149   0.314 -0.1807  0.8626 -0.1272
   25MOL    H28 3436   3.442   1.183   0.587  1.8431 -1.1253  2.0042
   25MOL    H29 3437   3.657   1.021   0.506 -0.2647 -2.6621 -0.0336
   25MOL    C30 3438   3.647   1.266   0.533  0.2701  0.3016 -0.2729
   25MOL    C31 3439   3.689   1.291   0.673  0.8952 -0.7537  0.3884
   25MOL    O32 3440   3.791   1.194   0.692  0.1973  0.1676  0.2660
   25MOL    H33 3441   3.729   1.239   0.466 -0.0583 -0.4285 -0.3929
   25MOL    H34 3442   3.614   1.360   0.489  0.8685  0.2836 -0.7622
   25MOL    H35 3443   3.608   1.260   0.739  0.0864 -1.1247 -0.7623
   25MOL    H36 3444   3.771   1.114   0.646  1.5574  0.3734 -0.7087
   25MOL    C37 3445   3.767   1.426   0.691  0.1094  1.0195 -0.3142
   25MOL    C38 3446   3.821   1.463   0.829  0.2949  0.3462 -0.2611
   25MOL    O39 3447   3.947   1.394   0.843  0.1277  0.2299  0.1676
   25MOL    H40 3448   3.840   1.438   0.612 -0.2174 -0.6472 -0.8960
   25MOL    H41 3449   3.692   1.503   0.673 -2.3171 -0.7820  1.7160
   25MOL    H42 3450   3.757   1.426   0.909 -1.4241  1.1250 -1.2550
   25MOL    H43 3451   3.921   1.310   0.808 -1.5154  0.5451  0.5947
   25MOL    C44 3452   3.840   1.618   0.840 -0.7113 -0.1639 -0.4703
   25MOL    C45 3453   3.906   1.671   0.971 -0.4536  0.1437 -0.1845
   25MOL    O46 3454   3.914   1.812   0.959 -0.2379  0.3061  0.4522
   25MOL    H47 3455   3.894   1.660   0.755 -0.4191 -0.6303 -0.5217
   25MOL    H48 3456   3.736   1.649   0.840 -0.4137  0.9142  1.0484
   25MOL    H49 3457   4.013   1.652   0.974 -0.6611 -0.9490  0.5620
   25MOL    H50 3458   3.986   1.825   0.899 -0.3871 -1.8818 -0.2490
   25MOL    C51 3459   3.854   1.630   1.110  0.1721 -0.2371  0.1113
   25MOL    C52 3460   3.904   1.498   1.163  0.2333  0.9266  0.2608
   25MOL    O53 3461   4.040   1.499   1.164  0.5732 -0.1899 -0.1118
   25MOL    H54 3462   3.868   1.706   1.186 -0.8463 -0.3257  0.4005
   25MOL    H55 3463   3.745   1.622   1.103  0.1505 -0.6778  0.8841
   25MOL    H56 3464   3.861   1.416   1.106 -1.7577  2.6646 -0.8288
   25MOL    H57 3465   4.071   1.584   1.192 -1.4942  0.2746  0.8491
   25MOL    C58 3466   3.865   1.486   1.310  0.6946  0.1247  0.6148
   25MOL    C59 3467   3.719   1.439   1.334  0.0944  0.5328  0.4483
   25MOL    O60 3468   3.719   1.294   1.352  0.4390 -0.0279  0.8099
   25MOL    H61 3469   3.933   1.418   1.361  1.2375 -0.9178 -1.4542
   25MOL    H62 3470   3.877   1.582   1.361 -0.4337 -0.0269  1.1826
   25MOL    H63 3471   3.648   1.455   1.253 -0.0784 -0.0228  0.4885
   25MOL    H64 3472   3.669   1.283   1.431  0.3968  0.3761  0.8422
   25MOL    C65 3473   3.652   1.501   1.454 -0.3552  0.2798  0.3038
   25MOL    C66 3474   3.599   1.643   1.434  0.5754  0.3067 -0.0887
   25MOL    O67 3475   3.500   1.634   1.338 -0.0417  0.0636 -0.4058
   25MOL    H68 3476   3.562   1.451   1.490 -0.4209 -0.5620 -0.9979
   25MOL    H69 3477   3.733   1.493   1.526 -1.2143  0.7330  1.3307
   25MOL    H70 3478   3.673   1.716   1.401  0.1058  0.1872 -1.4544
   25MOL    H71 3479   3.486   1.719   1.300 -1.7984  0.7782  1.7203
   25MOL    C72 3480   3.534   1.703   1.562  0.1001 -0.5084 -0.0937
   25MOL    C73 3481   3.629   1.779   1.651 -0.0579  0.5728  0.0885
   25MOL    O74 3482   3.697   1.880   1.573 -0.6776 -0.7936 -0.2208
   25MOL    H75 3483   3.449   1.767   1.540  2.3272  2.7761  0.4011
   25MOL    H76 3484   3.489   1.632   1.631 -1.0973  1.9647  1.7391
   25MOL    H77 3485   3.705   1.708   1.686  1.0402  1.4295 -0.5156
   25MOL    H78 3486   3.631   1.934   1.531  0.2970 -0.5003 -1.4179
   25MOL    C79 3487   3.557   1.850   1.768  0.4961  0.8378 -0.4540
   25MOL    C80 3488   3.635   1.949   1.854  0.0808 -0.0480  0.4113
   25MOL    O81 3489   3.535   2.018   1.929  0.5116  0.5050  0.0035
   25MOL    H82 3490   3.473   1.906   1.726  0.4830  1.2920  0.1758
   25MOL    H83 3491   3.499   1.775   1.823  2.4987 -1.1124 -0.9282
   25MOL    H84 3492   3.672   2.030   1.790  1.4273 -2.1806 -1.6020
   25MOL    H85 3493   3.580   2.074   1.991 -0.2361 -0.6154  1.6080
   25MOL    C86 3494   3.756   1.897   1.938 -0.5785  0.5228  0.1774
   25MOL    C87 3495   3.878   1.836   1.864 -0.1811  0.4244  0.5284
   25MOL    O88 3496   3.909   1.918   1.757  0.5162 -0.0609 -1.2025
   25MOL    H89 3497   3.797   1.979   1.998  0.7715  0.8608 -1.1630
   25MOL    H90 3498   3.709   1.832   2.011 -0.1824  0.3408  0.2706
   25MOL    H91 3499   3.844   1.741   1.823 -1.4603  1.2441 -0.3452
   25MOL    H92 3500   3.838   1.917   1.695  1.4226 -0.6665 -2.2499
   25MOL    C93 3501   3.997   1.822   1.959  0.0682  0.3281 -0.0780
   25MOL    C94 3502   3.999   1.738   2.090  0.4395  0.3317  0.0185
   25MOL    O95 3503   3.953   1.605   2.065  0.2071  0.1698  0.6109
   25MOL    H96 3504   4.086   1.787   1.908  0.0498 -0.2153  0.2599
   25MOL    H97 3505   4.023   1.926   1.978  0.7418  0.2302 -0.4492
   25MOL    H98 3506   3.927   1.787   2.155 -1.7795 -0.5947 -1.6453
   25MOL    H99 3507   4.001   1.579   1.988  0.1995 -1.0472  1.0064
   25MOL   C100 3508   4.136   1.740   2.153  0.3706 -0.7915 -0.2154
   25MOL   C101 3509   4.199   1.876   2.194  0.0103  0.4055 -0.0198
   25MOL   O102 3510   4.255   1.855   2.320  0.4853  0.6678  0.2995
   25MOL   H103 3511   4.111   1.676   2.238 -1.5141 -0.5520 -0.5510
   25MOL   H104 3512   4.203   1.684   2.089  1.7952 -0.9890  1.4285
   25MOL   H105 3513   4.126   1.956   2.207  2.6133  3.0085 -0.7721
   25MOL   H106 3514   4.190   1.831   2.384  0.1181 -0.5494 -0.5232
   25MOL   C107 3515   4.315   1.924   2.095 -0.9507 -1.0180  0.1723
   25MOL   C108 3516   4.399   2.045   2.139 -0.1963 -0.4301 -0.8309
   25MOL   O109 3517   4.501   2.061   2.042  0.4449 -0.0007  0.3031
   25MOL   H110 3518   4.376   1.835   2.078 -0.2467 -0.7676  1.3523
   25MOL   H111 3519   4.274   1.970   2.005 -0.7312 -0.1767  0.5048
   25MOL   H112 3520   4.451   2.017   2.231 -1.2007  0.5048  0.0300
   25MOL   H113 3521   4.568   1.998   2.062 -0.0553 -0.3674  0.8202
   25MOL   C114 3522   4.314   2.179   2.163 -0.1181 -0.4620 -0.1790
   25MOL   C115 3523   4.386   2.289   2.244 -0.4722 -0.0962  0.3685
   25MOL   O116 3524   4.305   2.406   2.259  0.4034 -0.3396  0.9942
   25MOL   H117 3525   4.270   2.222   2.073  0.5223 -0.7550 -0.6332
   25MOL   H118 3526   4.221   2.152   2.213 -1.2546  3.2658 -0.1474
   25MOL   H119 3527   4.472   2.325   2.186 -0.0339  1.5566  1.9809
   25MOL   H120 3528   4.273   2.432   2.174  2.3437  1.6720  0.8145
   25MOL   C121 3529   4.410   2.254   2.389  0.1628 -0.0048  0.4468
   25MOL   C122 3530   4.506   2.344   2.468  0.1170 -0.2928  0.0450
   25MOL   O123 3531   4.479   2.294   2.602  0.8958 -0.3640 -0.2428
   25MOL   H124 3532   4.314   2.252   2.441 -0.7648 -0.3811 -1.2280
   25MOL   H125 3533   4.459   2.156   2.394 -1.7010 -0.9606  0.6669
   25MOL   H126 3534   4.453   2.438   2.452 -0.3543 -0.7414 -1.0913
   25MOL   H127 3535   4.426   2.363   2.640 -1.1978 -1.8715 -0.3663
   25MOL   C128 3536   4.654   2.345   2.419 -0.0817  0.2507 -0.1286
   25MOL   C129 3537   4.740   2.469   2.449 -0.2361 -0.7040 -0.2813
   25MOL   O130 3538   4.874   2.442   2.406  0.0855 -0.1112 -0.0129
   25MOL   H131 3539   4.692   2.251   2.459 -1.7312 -1.6129 -2.7913
   25MOL   H132 3540   4.662   2.343   2.311  3.9511 -0.4528  0.1110
   25MOL   H133 3541   4.750   2.483   2.556  2.2270 -0.4607 -0.5106
   25MOL   H134 3542   4.912   2.371   2.455  1.4330 -0.2613 -1.2542
   25MOL   C135 3543   4.688   2.605   2.401  0.0352  0.0196  0.3580
   25MOL   C136 3544   4.677   2.639   2.259 -0.3359 -0.6116 -0.2282
   25MOL   O137 3545   4.582   2.566   2.189  0.4441 -0.1992 -0.4179
   25MOL   H138 3546   4.590   2.622   2.446  0.1073  2.0598 -0.2251
   25MOL   H139 3547   4.738   2.687   2.452  0.5851  0.2653 -0.5642
   25MOL   H140 3548   4.773   2.616   2.212 -1.2570 -3.0817 -0.9553
   25MOL   H141 3549   4.498   2.594   2.223  0.0345  0.3576 -1.8677
   25MOL   H142 3550   4.654   2.745   2.247 -0.3176 -0.7408 -1.5879
   26MOL     C1 3551   6.288   1.858   2.295  0.2766 -0.0341 -0.0340
   26MOL     C2 3552   6.198   1.760   2.224  0.3029 -0.1362  0.0409
   26MOL     O3 3553   6.265   1.670   2.135 -0.0472 -0.1319 -0.1259
   26MOL     H4 3554   6.232   1.935   2.348 -0.7003  0.6081 -1.9771
   26MOL     H5 3555   6.350   1.910   2.222 -0.3727 -0.3404 -0.8094
   26MOL     H6 3556   6.135   1.819   2.158  0.9043 -0.3024 -0.6882
   26MOL     H7 3557   6.303   1.602   2.188 -2.7086 -0.1914  1.8857
   26MOL     H8 3558   6.336   1.804   2.377  1.5460  0.5273 -0.3915
   26MOL     C9 3559   6.119   1.670   2.317 -0.2735 -0.1789  0.2520
   26MOL    C10 3560   5.976   1.719   2.357 -0.4201 -0.4292  0.4818
   26MOL    O11 3561   5.993   1.813   2.460 -0.2834 -0.3682  0.0153
   26MOL    H12 3562   6.103   1.575   2.266  1.6774 -0.1284 -0.4849
   26MOL    H13 3563   6.172   1.645   2.408  0.5046  2.0166  0.4190
   26MOL    H14 3564   5.910   1.640   2.393 -0.6494 -0.4377  0.0564
   26MOL    H15 3565   5.916   1.809   2.515  2.3557  1.1928  4.0367
   26MOL    C16 3566   5.898   1.775   2.233  0.4281  1.0341  0.4131
   26MOL    C17 3567   5.745   1.772   2.238  0.1669  0.1208  0.0590
   26MOL    O18 3568   5.710   1.843   2.116 -0.1845  0.2772 -0.4906
   26MOL    H19 3569   5.932   1.876   2.210 -2.3449  2.0417  0.5654
   26MOL    H20 3570   5.929   1.723   2.143  2.5847  1.5077  0.8596
   26MOL    H21 3571   5.703   1.829   2.321 -1.7339 -0.1268 -0.6914
   26MOL    H22 3572   5.732   1.783   2.046 -1.3276 -1.4449  0.5632
   26MOL    C23 3573   5.684   1.627   2.230  0.1532  0.2835 -0.0059
   26MOL    C24 3574   5.534   1.616   2.259 -0.1231 -0.0984 -0.1653
   26MOL    O25 3575   5.468   1.675   2.151  0.2097  0.2330 -0.1549
   26MOL    H26 3576   5.720   1.572   2.143  0.7184  2.1029 -0.9632
   26MOL    H27 3577   5.727   1.575   2.315  2.0553 -1.1441 -1.8131
   26MOL    H28 3578   5.507   1.675   2.347 -2.0565 -2.3309  0.8020
   26MOL    H29 3579   5.495   1.763   2.133  0.2964 -0.1734 -2.2375
   26MOL    C30 3580   5.487   1.471   2.286 -0.6286 -0.0493  0.2031
   26MOL    C31 3581   5.531   1.404   2.415 -0.1486 -0.7723 -0.3845
   26MOL    O32 3582   5.457   1.475   2.510  0.1871  0.2388  0.2401
   26MOL    H33 3583   5.379   1.474   2.283 -0.6155  2.0071  0.8521
   26MOL    H34 3584   5.511   1.400   2.207  1.1182 -2.3878  2.7088
   26MOL    H35 3585   5.639   1.414   2.424 -0.2585  0.3531 -0.2209
   26MOL    H36 3586   5.461   1.426   2.590  0.1716  0.4509  0.3710
   26MOL    C37 3587   5.498   1.261   2.435 -0.0318  0.0557  0.2966
   26MOL    C38 3588   5.590   1.151   2.385  0.1179  1.0747  0.9103
   26MOL    O39 3589   5.705   1.161   2.461  0.4441 -0.2758  0.1949
   26MOL    H40 3590   5.476   1.229   2.537  1.2126  0.3142  0.6665
   26MOL    H41 3591   5.406   1.249   2.379  0.0378  1.0030 -0.0240
   26MOL    H42 3592   5.610   1.169   2.279 -0.2339 -0.8132  0.5168
   26MOL    H43 3593   5.690   1.138   2.552  0.4318 -2.0429 -0.2425
   26MOL    C44 3594   5.536   1.012   2.394  0.1414  0.4064 -0.7702
   26MOL    C45 3595   5.418   0.970   2.300 -0.1674  1.1272  0.4663
   26MOL    O46 3596   5.456   0.985   2.162 -0.4569  0.4738 -0.0782
   26MOL    H47 3597   5.607   0.930   2.385 -1.3946 -0.7775 -2.3741
   26MOL    H48 3598   5.497   1.006   2.496 -2.2655 -0.7103 -1.7038
   26MOL    H49 3599   5.335   1.039   2.317 -1.6272 -0.2157 -1.0359
   26MOL    H50 3600   5.378   1.015   2.119 -0.1289  0.0957 -0.9417
   26MOL    C51 3601   5.365   0.832   2.331 -0.4263 -0.5209  0.3840
   26MOL    C52 3602   5.231   0.796   2.258 -0.5681 -0.1921  0.0480
   26MOL    O53 3603   5.227   0.653   2.271 -0.0673  0.0137  0.7085
   26MOL    H54 3604   5.442   0.759   2.308  1.8803  2.1780 -0.7783
   26MOL    H55 3605   5.345   0.807   2.435  2.0589 -1.9090  0.5528
   26MOL    H56 3606   5.238   0.829   2.155  1.9667  0.7620  0.4884
   26MOL    H57 3607   5.256   0.609   2.192  0.9867 -1.8549  2.1198
   26MOL    C58 3608   5.100   0.851   2.322  0.3861 -0.5046 -0.6797
   26MOL    C59 3609   4.972   0.803   2.250  0.3283 -0.2286 -0.0387
   26MOL    O60 3610   4.957   0.668   2.283  0.1942 -0.1544  0.1636
   26MOL    H61 3611   5.104   0.817   2.426 -0.1002 -0.4819 -0.6524
   26MOL    H62 3612   5.103   0.959   2.314 -0.5522 -0.5721 -2.2045
   26MOL    H63 3613   4.985   0.811   2.142 -1.2251  0.4100 -0.2011
   26MOL    H64 3614   5.037   0.627   2.254  1.6989  0.5239  3.1212
   26MOL    C65 3615   4.846   0.881   2.279  0.5027  0.6969 -0.0980
   26MOL    C66 3616   4.825   1.021   2.208 -0.4674  0.9149 -0.6012
   26MOL    O67 3617   4.844   0.999   2.069 -0.2250 -0.5424  0.2762
   26MOL    H68 3618   4.767   0.815   2.243 -1.1121  2.2665  0.5465
   26MOL    H69 3619   4.828   0.890   2.386 -0.1232 -0.8665 -0.0560
   26MOL    H70 3620   4.904   1.081   2.252  1.5880 -0.1268 -2.8029
   26MOL    H71 3621   4.808   1.078   2.030  0.0054 -1.0685 -1.0445
   26MOL    C72 3622   4.675   1.066   2.237 -0.6076 -0.1290  0.2906
   26MOL    C73 3623   4.652   1.221   2.212  0.7268  0.4201 -0.8625
   26MOL    O74 3624   4.688   1.260   2.077 -0.7875  0.0957  0.4527
   26MOL    H75 3625   4.613   0.999   2.176 -0.9523 -0.3605  0.8865
   26MOL    H76 3626   4.653   1.040   2.341 -0.4050  0.8192  0.5727
   26MOL    H77 3627   4.712   1.271   2.288 -0.5333 -1.2331  1.2791
   26MOL    H78 3628   4.667   1.350   2.056 -1.6616 -0.3437 -0.6425
   26MOL    C79 3629   4.500   1.266   2.233 -0.1884 -0.2123 -0.3650
   26MOL    C80 3630   4.417   1.199   2.344  0.2368 -0.0941 -0.4836
   26MOL    O81 3631   4.471   1.234   2.468 -0.0898  0.3683 -0.3438
   26MOL    H82 3632   4.510   1.373   2.247 -1.3623 -0.2775  0.9923
   26MOL    H83 3633   4.454   1.249   2.135 -0.2565 -4.1645  0.2690
   26MOL    H84 3634   4.425   1.090   2.347 -0.1166 -0.1028  0.4035
   26MOL    H85 3635   4.491   1.158   2.520 -0.3738  1.1816  0.9734
   26MOL    C86 3636   4.270   1.247   2.368 -0.1873  0.7397  0.3393
   26MOL    C87 3637   4.163   1.182   2.273  0.0167 -0.5162  0.2179
   26MOL    O88 3638   4.038   1.178   2.344  0.0857 -0.1936 -0.4799
   26MOL    H89 3639   4.235   1.218   2.466 -0.6268 -1.6268 -0.4819
   26MOL    H90 3640   4.271   1.355   2.356  4.0926  0.7329 -0.3247
   26MOL    H91 3641   4.191   1.078   2.256 -1.0183 -0.5278 -1.5075
   26MOL    H92 3642   4.042   1.095   2.387  2.5275 -0.5807 -1.3761
   26MOL    C93 3643   4.147   1.253   2.141 -0.5989  0.4188  0.2033
   26MOL    C94 3644   4.035   1.198   2.053  0.4850  0.5636  0.5549
   26MOL    O95 3645   4.001   1.287   1.950 -0.2798  0.6587  0.1944
   26MOL    H96 3646   4.137   1.359   2.165  1.5263  1.1166 -1.8016
   26MOL    H97 3647   4.236   1.253   2.078 -0.3165 -1.1180  0.5906
   26MOL    H98 3648   3.949   1.173   2.115  0.7543  2.2498  1.6402
   26MOL    H99 3649   3.915   1.318   1.974 -0.2106  1.6792 -0.8507
   26MOL   C100 3650   4.082   1.064   1.995  0.6538  0.3520  0.0511
   26MOL   C101 3651   3.962   0.999   1.918 -0.2613 -0.4609  0.0602
   26MOL   O102 3652   4.022   0.942   1.798 -0.0320 -0.5056 -0.7248
   26MOL   H103 3653   4.159   1.093   1.923  0.5079  0.8965  0.1091
   26MOL   H104 3654   4.125   1.006   2.076  0.8417  1.3011  0.6349
   26MOL   H105 3655   3.883   1.069   1.891  0.6924  0.8025  0.5246
   26MOL   H106 3656   4.066   0.862   1.822  0.9734 -0.5469 -2.6235
   26MOL   C107 3657   3.908   0.882   1.996  0.3038  0.4910  0.0537
   26MOL   C108 3658   3.824   0.920   2.124  0.2410  0.1998  0.3265
   26MOL   O109 3659   3.714   1.008   2.098 -0.4661  0.1442  0.7456
   26MOL   H110 3660   3.832   0.834   1.934  2.1929  0.4928 -2.3216
   26MOL   H111 3661   3.983   0.811   2.030 -1.7148 -1.2611  1.0283
   26MOL   H112 3662   3.881   0.971   2.201 -0.6822  0.8058  0.6084
   26MOL   H113 3663   3.701   1.068   2.170 -0.3771 -2.1179  2.7346
   26MOL   C114 3664   3.747   0.797   2.192 -0.4432  0.4392  0.1603
   26MOL   C115 3665   3.842   0.688   2.258 -0.2943  0.2156  0.4909
   26MOL   O116 3666   3.798   0.680   2.398 -0.2778 -0.3584 -0.2695
   26MOL   H117 3667   3.684   0.849   2.265  0.9403  1.2915  0.7676
   26MOL   H118 3668   3.682   0.755   2.115  1.9699 -1.8346 -0.6802
   26MOL   H119 3669   3.946   0.718   2.246 -0.1351 -0.3005  0.5722
   26MOL   H120 3670   3.805   0.592   2.432 -1.8807 -1.2583 -2.1743
   26MOL   C121 3671   3.841   0.549   2.192  0.4409  0.1271  0.0235
   26MOL   C122 3672   3.929   0.521   2.070  0.1260 -0.2383 -0.1066
   26MOL   O123 3673   4.055   0.573   2.085 -0.6117 -0.1738  0.3650
   26MOL   H124 3674   3.892   0.486   2.264 -0.8832 -2.9059 -1.5867
   26MOL   H125 3675   3.739   0.510   2.194 -0.0383  1.4103  1.2742
   26MOL   H126 3676   3.890   0.566   1.979  0.7281 -0.5321 -0.5161
   26MOL   H127 3677   4.088   0.548   2.170 -0.7299 -0.4744  0.3215
   26MOL   C128 3678   3.949   0.367   2.051 -0.9439  0.1163 -0.0483
   26MOL   C129 3679   3.829   0.282   1.995 -0.2198  0.4486 -0.2648
   26MOL   O130 3680   3.807   0.328   1.868 -0.1958 -0.2220  0.2083
   26MOL   H131 3681   4.036   0.347   1.988 -0.9149  3.7086 -1.2314
   26MOL   H132 3682   3.977   0.317   2.144  0.8053  0.4930 -0.3672
   26MOL   H133 3683   3.737   0.294   2.052 -0.4277  0.6217 -0.6375
   26MOL   H134 3684   3.758   0.267   1.815  0.2102  0.2199 -0.6732
   26MOL   C135 3685   3.868   0.126   1.992  0.2692 -0.5378  0.2299
   26MOL   C136 3686   3.903   0.079   2.130  0.1705 -0.2555  0.3177
   26MOL   O137 3687   3.903   7.457   2.145 -0.6162 -0.4486  0.2109
   26MOL   H138 3688   3.794   0.057   1.951 -0.3290  0.2547 -0.0281
   26MOL   H139 3689   3.961   0.112   1.936  0.6804 -0.7108  0.9461
   26MOL   H140 3690   3.819   0.110   2.192  0.0422  0.4565 -0.2128
   26MOL   H141 3691   3.816   7.419   2.151 -0.1703 -1.4320  0.5399
   26MOL   H142 3692   3.997   0.112   2.174  0.0434  1.7966 -0.8999
   27MOL     C1 3693   4.601   4.348   1.784 -0.1834  0.4670 -0.0741
   27MOL     C2 3694   4.701   4.317   1.902 -0.0793  0.8994 -0.2957
   27MOL     O3 3695   4.723   4.436   1.972  0.7249  0.0420  0.1539
   27MOL     H4 3696   4.499   4.359   1.821 -0.3461  0.8422 -0.6254
   27MOL     H5 3697   4.596   4.274   1.704  1.4214 -1.5106  1.5951
   27MOL     H6 3698   4.801   4.298   1.865  0.2906  0.2138  1.0272
   27MOL     H7 3699   4.765   4.494   1.911  1.3727  0.8164  1.3344
   27MOL     H8 3700   4.631   4.437   1.728  1.2993  0.2778  0.4072
   27MOL     C9 3701   4.648   4.207   1.994 -0.2860  0.2779  0.2804
   27MOL    C10 3702   4.657   4.062   1.942 -0.6829 -0.1293  0.1679
   27MOL    O11 3703   4.786   4.029   1.893 -0.5498  0.6234 -0.1511
   27MOL    H12 3704   4.702   4.218   2.088  2.7205 -1.8431 -1.0765
   27MOL    H13 3705   4.542   4.225   2.006 -0.7399 -0.5359 -2.2403
   27MOL    H14 3706   4.584   4.057   1.860  1.2830 -3.7581 -1.4570
   27MOL    H15 3707   4.842   4.028   1.969 -1.5212 -0.8508  0.5722
   27MOL    C16 3708   4.610   3.969   2.059 -0.1850 -0.7808  0.2572
   27MOL    C17 3709   4.545   3.840   2.013 -0.9386  0.2240  0.8914
   27MOL    O18 3710   4.549   3.755   2.122  0.5684  0.0456  0.1380
   27MOL    H19 3711   4.688   3.949   2.133  2.3410  0.3073 -2.0261
   27MOL    H20 3712   4.528   4.013   2.115 -0.3868 -0.6713 -0.1236
   27MOL    H21 3713   4.593   3.785   1.932 -2.4873 -3.6899  2.5233
   27MOL    H22 3714   4.637   3.730   2.144 -0.2307 -1.1392  2.1479
   27MOL    C23 3715   4.401   3.860   1.967  0.6570 -0.3005  0.3683
   27MOL    C24 3716   4.315   3.731   1.944 -0.1279 -0.3057  0.3392
   27MOL    O25 3717   4.177   3.784   1.934 -0.1528 -0.3919 -0.3204
   27MOL    H26 3718   4.343   3.912   2.044 -0.1643  1.5149 -1.4427
   27MOL    H27 3719   4.397   3.902   1.867 -1.2581 -1.5294 -0.1054
   27MOL    H28 3720   4.312   3.662   2.028 -2.8759  0.7902  1.2028
   27MOL    H29 3721   4.118   3.714   1.956  1.0163 -0.8021  1.5634
   27MOL    C30 3722   4.372   3.648   1.823  0.3214  0.0544 -0.1757
   27MOL    C31 3723   4.318   3.498   1.803  0.2728 -1.0103 -0.1312
   27MOL    O32 3724   4.332   3.424   1.925  0.0855  0.2596 -0.3781
   27MOL    H33 3725   4.348   3.692   1.726  0.7452  2.6265  0.8422
   27MOL    H34 3726   4.480   3.650   1.808  0.6778 -2.6035  1.7752
   27MOL    H35 3727   4.380   3.449   1.728  1.2590  0.3755 -0.2428
   27MOL    H36 3728   4.269   3.463   1.984  0.6659 -0.6169  0.8580
   27MOL    C37 3729   4.176   3.508   1.754 -0.2431  0.0264  0.8464
   27MOL    C38 3730   4.122   3.393   1.678 -0.3132  0.4697 -0.3410
   27MOL    O39 3731   4.094   3.290   1.769 -0.0858  0.4095 -0.1752
   27MOL    H40 3732   4.113   3.533   1.839 -0.7840  1.5254  0.0162
   27MOL    H41 3733   4.176   3.589   1.681 -2.2942 -1.1063 -0.4663
   27MOL    H42 3734   4.199   3.367   1.605  0.9448  0.5979  0.9176
   27MOL    H43 3735   4.172   3.237   1.771 -0.9745 -0.8758  1.3508
   27MOL    C44 3736   3.979   3.421   1.615 -0.6572 -0.1452 -0.6142
   27MOL    C45 3737   3.918   3.293   1.540 -0.9135 -0.6747 -0.1798
   27MOL    O46 3738   3.794   3.321   1.491 -0.3288 -0.0093 -0.1752
   27MOL    H47 3739   3.914   3.446   1.699  0.2001 -0.3560  0.1254
   27MOL    H48 3740   3.983   3.503   1.543  2.2144 -0.3857 -0.7639
   27MOL    H49 3741   3.908   3.208   1.608 -0.0632 -2.2697 -2.0059
   27MOL    H50 3742   3.733   3.294   1.557 -2.4697  1.2885 -1.5950
   27MOL    C51 3743   4.005   3.246   1.420 -0.3595 -0.3661 -0.0562
   27MOL    C52 3744   3.990   3.100   1.368 -0.2433 -0.0601  0.2503
   27MOL    O53 3745   4.064   3.089   1.242  0.3747 -0.4119  0.5071
   27MOL    H54 3746   3.993   3.314   1.336  0.7830 -0.1757 -0.0699
   27MOL    H55 3747   4.112   3.251   1.442 -0.6723  1.2317  1.1964
   27MOL    H56 3748   3.883   3.078   1.359 -0.0207 -0.9766 -0.2658
   27MOL    H57 3749   4.000   3.083   1.172 -1.5506  3.3817  1.7635
   27MOL    C58 3750   4.053   2.993   1.463 -0.0955  0.0938 -0.7534
   27MOL    C59 3751   4.006   2.965   1.606 -0.5776  0.6358 -0.2513
   27MOL    O60 3752   3.863   2.971   1.596  0.2778 -0.0545 -0.0725
   27MOL    H61 3753   4.063   2.906   1.398 -0.9600 -0.2519 -0.4260
   27MOL    H62 3754   4.159   3.017   1.478 -0.6705  0.7900  2.5850
   27MOL    H63 3755   4.041   3.036   1.681 -0.0271 -0.0041  0.1022
   27MOL    H64 3756   3.837   2.971   1.687  0.4303  0.5903 -0.0316
   27MOL    C65 3757   4.058   2.824   1.654 -0.1000 -0.3254  0.8966
   27MOL    C66 3758   4.039   2.805   1.804 -0.1471  0.3993 -0.0617
   27MOL    O67 3759   3.906   2.766   1.844 -0.7424  0.6702  0.0393
   27MOL    H68 3760   4.001   2.744   1.606  1.5401 -0.2943 -1.1873
   27MOL    H69 3761   4.159   2.807   1.617  0.3610  2.4429  0.7963
   27MOL    H70 3762   4.051   2.904   1.847 -1.8441  0.0625  1.2671
   27MOL    H71 3763   3.879   2.695   1.788  0.6393 -0.0132  0.2133
   27MOL    C72 3764   4.138   2.706   1.870  0.1887  0.3228 -0.3806
   27MOL    C73 3765   4.122   2.673   2.017  0.6339 -0.7816  0.3503
   27MOL    O74 3766   4.141   2.539   2.039 -0.1678 -0.0728  0.0113
   27MOL    H75 3767   4.126   2.618   1.808  1.8067  0.3116 -0.7040
   27MOL    H76 3768   4.240   2.743   1.858  0.2590  0.7446  1.3841
   27MOL    H77 3769   4.021   2.702   2.044 -0.8683 -4.5273 -0.7959
   27MOL    H78 3770   4.096   2.489   1.973  0.5204 -0.1351 -0.4176
   27MOL    C79 3771   4.221   2.750   2.110 -0.1278 -0.0127 -1.2233
   27MOL    C80 3772   4.194   2.731   2.259 -0.2659 -0.2602  0.4979
   27MOL    O81 3773   4.315   2.774   2.320 -0.4683  0.7211 -0.5412
   27MOL    H82 3774   4.326   2.739   2.082  0.0094 -0.6591 -0.4452
   27MOL    H83 3775   4.213   2.856   2.085  0.0557 -0.0636 -1.5086
   27MOL    H84 3776   4.188   2.624   2.275 -3.0389 -0.0842  0.8615
   27MOL    H85 3777   4.305   2.742   2.408  0.6574 -1.0173 -1.0134
   27MOL    C86 3778   4.065   2.809   2.298  0.0248  0.3953  0.6944
   27MOL    C87 3779   4.052   2.846   2.449  0.2103 -0.6625 -0.6404
   27MOL    O88 3780   3.942   2.934   2.462  0.1829 -0.0463  0.1519
   27MOL    H89 3781   4.070   2.900   2.238 -2.0240 -0.0712 -0.2596
   27MOL    H90 3782   3.979   2.748   2.269  1.9318 -2.5803  1.0223
   27MOL    H91 3783   4.146   2.886   2.487 -0.2812 -0.0257 -0.0872
   27MOL    H92 3784   3.874   2.905   2.403  1.2237  0.9138 -1.5230
   27MOL    C93 3785   4.008   2.732   2.547  0.3030 -0.2565 -0.1582
   27MOL    C94 3786   4.128   2.636   2.584 -0.0618  0.0387  0.0883
   27MOL    O95 3787   4.237   2.714   2.628 -0.4980 -0.5334  0.3293
   27MOL    H96 3788   3.976   2.777   2.642  0.3742 -0.9137  0.1794
   27MOL    H97 3789   3.926   2.678   2.500  0.3191 -1.2282  0.9024
   27MOL    H98 3790   4.142   2.582   2.491 -0.0497  0.5645 -0.2183
   27MOL    H99 3791   4.317   2.665   2.640 -0.1940  0.5478  2.9600
   27MOL   C100 3792   4.098   2.537   2.705  0.4321 -0.1637  0.6679
   27MOL   C101 3793   4.198   2.417   2.721  0.2004 -0.7891 -0.4837
   27MOL   O102 3794   4.332   2.466   2.735 -0.1077 -0.0916 -0.2478
   27MOL   H103 3795   4.094   2.590   2.800  3.4696  0.4291  0.5334
   27MOL   H104 3796   3.995   2.502   2.697  0.6102 -0.5601  0.0227
   27MOL   H105 3797   4.194   2.353   2.633 -3.1274  0.4403 -1.2837
   27MOL   H106 3798   4.337   2.511   2.818  0.2311 -0.4795 -0.0600
   27MOL   C107 3799   4.165   2.338   2.848  0.0737  0.0184 -0.1712
   27MOL   C108 3800   4.242   2.208   2.866 -0.0205 -0.0718  0.2278
   27MOL   O109 3801   4.214   2.167   2.995 -0.1630  0.3248 -0.1264
   27MOL   H110 3802   4.191   2.393   2.938  0.7025 -1.0833  0.3302
   27MOL   H111 3803   4.059   2.321   2.863 -0.4914  3.4053 -0.1330
   27MOL   H112 3804   4.348   2.223   2.849 -0.0045 -0.7678 -0.3325
   27MOL   H113 3805   4.247   2.235   3.051 -1.8436  0.4172  0.8059
   27MOL   C114 3806   4.189   2.092   2.776  0.5579  0.0138  0.3344
   27MOL   C115 3807   4.275   1.962   2.767 -0.8554 -0.3294  0.5943
   27MOL   O116 3808   4.189   1.863   2.707  0.0525 -0.4327  0.5186
   27MOL   H117 3809   4.093   2.061   2.818  0.7114 -1.2291 -0.1975
   27MOL   H118 3810   4.170   2.124   2.674  0.6227 -1.4532 -0.1438
   27MOL   H119 3811   4.283   1.931   2.871  0.9039  1.6221  1.0762
   27MOL   H120 3812   4.202   1.784   2.757  0.7187 -0.4350  0.3455
   27MOL   C121 3813   4.417   1.973   2.695  0.2019  0.4513 -0.0939
   27MOL   C122 3814   4.536   1.998   2.785  0.0528 -0.6170 -0.3414
   27MOL   O123 3815   4.538   1.876   2.860  0.0892 -0.3373 -0.0661
   27MOL   H124 3816   4.445   1.879   2.645 -2.4694 -0.1539 -0.4997
   27MOL   H125 3817   4.418   2.052   2.620  0.8512  1.7796  1.2995
   27MOL   H126 3818   4.505   2.080   2.850 -1.0951 -1.8781  0.7196
   27MOL   H127 3819   4.554   1.897   2.951  1.7937  0.1351 -0.4641
   27MOL   C128 3820   4.677   2.006   2.709 -0.4665 -0.2712  0.1462
   27MOL   C129 3821   4.800   2.004   2.806  0.6934  0.0247  0.2910
   27MOL   O130 3822   4.911   1.994   2.723  0.1739 -0.2995  0.2575
   27MOL   H131 3823   4.685   1.920   2.644 -0.4177  0.8449 -1.3511
   27MOL   H132 3824   4.691   2.097   2.651  1.4987  0.5048  1.7757
   27MOL   H133 3825   4.787   1.919   2.872  1.7033 -1.8232 -1.8130
   27MOL   H134 3826   4.920   2.070   2.667  0.8197 -0.8549 -0.4097
   27MOL   C135 3827   4.822   2.135   2.890  0.5513 -0.4869  0.5564
   27MOL   C136 3828   4.950   2.125   2.976 -0.3871 -0.3783  0.3039
   27MOL   O137 3829   4.980   2.232   3.062 -0.5826 -0.1257  0.0901
   27MOL   H138 3830   4.825   2.229   2.834 -2.4408  1.3802  3.3154
   27MOL   H139 3831   4.741   2.137   2.963  1.0512  1.5763  1.0942
   27MOL   H140 3832   5.037   2.113   2.912 -2.0598 -0.7762 -1.9550
   27MOL   H141 3833   4.916   2.234   3.131  0.5661  0.6214  1.1448
   27MOL   H142 3834   4.936   2.029   3.025  4.3726 -1.6160 -0.5434
   28MOL     C1 3835   1.717   6.277   4.275 -0.5270 -0.5199 -0.4781
   28MOL     C2 3836   1.803   6.183   4.360 -0.1394 -0.1721 -0.1430
   28MOL     O3 3837   1.767   6.046   4.377 -0.3553  0.2774  0.5695
   28MOL     H4 3838   1.682   6.226   4.186  1.2676 -2.9209  0.1608
   28MOL     H5 3839   1.774   6.367   4.252 -0.3537 -0.0749  1.6271
   28MOL     H6 3840   1.814   6.214   4.464  3.9620  0.5202 -0.6981
   28MOL     H7 3841   1.837   5.992   4.410 -0.2905 -0.4491 -0.7511
   28MOL     H8 3842   1.624   6.307   4.323 -0.1133  1.1622 -0.6911
   28MOL     C9 3843   1.948   6.171   4.299  0.0823  0.1284 -0.2759
   28MOL    C10 3844   2.033   6.303   4.285  0.4175 -0.2941  0.3007
   28MOL    O11 3845   2.017   6.371   4.406  0.2526 -0.0289  0.2746
   28MOL    H12 3846   2.008   6.090   4.341  0.9246  1.0932  0.4305
   28MOL    H13 3847   1.940   6.133   4.197 -0.5496 -0.8705  0.1355
   28MOL    H14 3848   1.994   6.359   4.200 -0.0166  2.7546  2.4434
   28MOL    H15 3849   2.102   6.407   4.427 -1.3343  1.4635  4.7152
   28MOL    C16 3850   2.183   6.267   4.268 -0.7099 -0.8877 -0.2205
   28MOL    C17 3851   2.279   6.391   4.252 -0.1500  0.0061 -0.1533
   28MOL    O18 3852   2.298   6.442   4.380 -0.4381  0.4105 -0.2645
   28MOL    H19 3853   2.206   6.205   4.355  1.0608 -1.3274 -0.9807
   28MOL    H20 3854   2.191   6.206   4.178  0.7579  0.5917 -1.1478
   28MOL    H21 3855   2.242   6.472   4.189  0.9662  0.4321 -0.2637
   28MOL    H22 3856   2.384   6.482   4.379 -0.0284 -0.4573 -1.7121
   28MOL    C23 3857   2.416   6.341   4.198 -0.4929  0.1859 -0.1127
   28MOL    C24 3858   2.514   6.457   4.159 -0.2362 -0.0734  0.6888
   28MOL    O25 3859   2.562   6.515   4.285  0.1110  0.1927  0.2960
   28MOL    H26 3860   2.468   6.265   4.257  0.9350 -0.1068 -1.7177
   28MOL    H27 3861   2.396   6.277   4.112 -2.1836 -0.3329  0.6426
   28MOL    H28 3862   2.468   6.535   4.099  0.6139  0.2733  0.4710
   28MOL    H29 3863   2.513   6.592   4.309 -1.3508 -0.7242  0.2911
   28MOL    C30 3864   2.648   6.408   4.089 -0.4319 -0.0637  0.0751
   28MOL    C31 3865   2.732   6.514   4.028 -0.0008  0.3114  0.4203
   28MOL    O32 3866   2.865   6.492   4.039  0.5124 -1.1236 -0.0043
   28MOL    H33 3867   2.710   6.350   4.157 -0.5367 -2.5848 -1.9337
   28MOL    H34 3868   2.645   6.328   4.015 -0.6981 -1.4353  1.5363
   28MOL    H35 3869   2.718   6.605   4.085  0.8702  0.2477  0.7368
   28MOL    H36 3870   2.900   6.552   4.103 -1.9907 -0.7297  1.0771
   28MOL    C37 3871   2.707   6.531   3.878  0.1718 -0.2185 -0.1237
   28MOL    C38 3872   2.565   6.567   3.835  0.5429 -0.4218 -0.2332
   28MOL    O39 3873   2.519   6.687   3.893 -0.0537 -0.2773  0.2364
   28MOL    H40 3874   2.770   6.615   3.849  0.3998  0.5892  2.5761
   28MOL    H41 3875   2.739   6.445   3.820 -2.2066 -0.2416 -1.4787
   28MOL    H42 3876   2.500   6.492   3.880  0.0653  1.4819  2.3849
   28MOL    H43 3877   2.429   6.686   3.866  0.0867 -4.6246 -0.4707
   28MOL    C44 3878   2.558   6.580   3.681  0.4050  0.7595  0.3528
   28MOL    C45 3879   2.601   6.461   3.602 -0.8024  0.8006  0.0684
   28MOL    O46 3880   2.493   6.437   3.516 -0.3334  0.1483  0.2600
   28MOL    H47 3881   2.461   6.622   3.653  0.4300  0.2327 -0.5328
   28MOL    H48 3882   2.629   6.659   3.656  0.4041  1.0830  1.3668
   28MOL    H49 3883   2.608   6.381   3.676  0.8646 -0.2226 -1.1518
   28MOL    H50 3884   2.539   6.379   3.457  1.1011  1.3032  0.2266
   28MOL    C51 3885   2.733   6.479   3.531 -0.5789  0.6629 -0.0276
   28MOL    C52 3886   2.787   6.350   3.463 -0.9494  0.3917 -0.3346
   28MOL    O53 3887   2.708   6.300   3.356 -0.2809  0.6823 -0.1053
   28MOL    H54 3888   2.734   6.559   3.457 -1.9110 -0.9552 -1.8678
   28MOL    H55 3889   2.802   6.507   3.611 -1.9045  1.0962  0.9878
   28MOL    H56 3890   2.812   6.275   3.539  0.1077  0.9095 -0.1524
   28MOL    H57 3891   2.772   6.257   3.302 -0.1366  1.3662 -0.4930
   28MOL    C58 3892   2.927   6.381   3.404  0.2798 -0.1654  0.4358
   28MOL    C59 3893   3.000   6.266   3.331  0.3976 -0.4244 -0.1879
   28MOL    O60 3894   2.926   6.214   3.218 -0.0581  0.1692 -0.1322
   28MOL    H61 3895   2.911   6.468   3.340  1.9555  0.0158  0.2318
   28MOL    H62 3896   2.996   6.421   3.478 -0.0424  0.2316  0.5162
   28MOL    H63 3897   3.032   6.189   3.400 -2.7367 -1.4459  0.1993
   28MOL    H64 3898   2.997   6.164   3.181  1.5698  0.3071  2.6930
   28MOL    C65 3899   3.138   6.310   3.272  0.2554  0.1266 -0.1740
   28MOL    C66 3900   3.225   6.184   3.238  0.1181  0.1723  0.8080
   28MOL    O67 3901   3.162   6.122   3.135  0.0899  0.4523 -0.5227
   28MOL    H68 3902   3.127   6.379   3.188 -0.9405  3.0280  2.2714
   28MOL    H69 3903   3.179   6.371   3.352 -0.6866 -3.2063  2.9895
   28MOL    H70 3904   3.234   6.116   3.323 -0.5832 -0.0214  0.7294
   28MOL    H71 3905   3.198   6.035   3.127 -0.3669  0.2423 -0.2905
   28MOL    C72 3906   3.369   6.231   3.227 -0.3571 -0.3558  0.3906
   28MOL    C73 3907   3.489   6.132   3.223  0.6440 -0.2278  0.3776
   28MOL    O74 3908   3.595   6.205   3.164 -0.0334 -0.0909 -0.1129
   28MOL    H75 3909   3.387   6.292   3.139  1.5140 -0.6365  0.5566
   28MOL    H76 3910   3.388   6.291   3.316  1.8159 -1.2500  0.5641
   28MOL    H77 3911   3.452   6.041   3.175  0.3312  0.9136 -1.5690
   28MOL    H78 3912   3.576   6.202   3.072  1.4348 -2.0679 -0.3853
   28MOL    C79 3913   3.544   6.102   3.360  0.6228 -0.1788  0.1759
   28MOL    C80 3914   3.674   6.021   3.377 -0.4948  0.3857 -0.2114
   28MOL    O81 3915   3.737   6.059   3.495  0.4342  0.1568 -1.1602
   28MOL    H82 3916   3.556   6.192   3.420  1.7383  0.2216 -0.6382
   28MOL    H83 3917   3.471   6.051   3.423  1.0095 -1.4330 -0.3620
   28MOL    H84 3918   3.739   6.065   3.300  0.5528 -1.1829 -0.2429
   28MOL    H85 3919   3.819   6.014   3.511  0.2702 -0.4874 -2.0882
   28MOL    C86 3920   3.671   5.868   3.361 -0.0262  0.2940  0.8260
   28MOL    C87 3921   3.654   5.812   3.216 -0.1092  1.1677 -0.0136
   28MOL    O88 3922   3.752   5.860   3.128  0.1556  0.3671 -0.9769
   28MOL    H89 3923   3.760   5.822   3.403 -0.1567 -2.5275 -1.7207
   28MOL    H90 3924   3.594   5.827   3.428  0.6501 -1.7348  0.4136
   28MOL    H91 3925   3.559   5.850   3.180  0.7923  1.7801 -1.8064
   28MOL    H92 3926   3.772   5.793   3.064 -0.7357 -1.3651  0.4888
   28MOL    C93 3927   3.670   5.658   3.212 -0.6803  0.6418 -0.6712
   28MOL    C94 3928   3.592   5.591   3.089  0.0003  0.7627  0.1187
   28MOL    O95 3929   3.684   5.493   3.042 -0.1535 -0.2406  0.4543
   28MOL    H96 3930   3.774   5.629   3.223 -0.7586  0.2787 -0.9147
   28MOL    H97 3931   3.633   5.607   3.301  1.4830  2.8834  1.6021
   28MOL    H98 3932   3.566   5.658   3.007 -0.4317  1.4271  0.7902
   28MOL    H99 3933   3.756   5.545   3.010  0.0980  0.4001  2.0145
   28MOL   C100 3934   3.465   5.511   3.131  0.1255 -0.1711 -0.0286
   28MOL   C101 3935   3.350   5.596   3.186 -0.2149 -0.0848  0.6839
   28MOL   O102 3936   3.388   5.670   3.303  0.5937  0.0035  0.0272
   28MOL   H103 3937   3.422   5.452   3.049 -1.3000  0.2650  0.3882
   28MOL   H104 3938   3.499   5.445   3.210  0.1716 -0.6355 -0.4318
   28MOL   H105 3939   3.276   5.524   3.223 -0.8160 -0.2615 -0.8401
   28MOL   H106 3940   3.382   5.612   3.377 -1.2679 -2.1200 -1.7357
   28MOL   C107 3941   3.291   5.699   3.091  0.4947  1.0756  0.3914
   28MOL   C108 3942   3.152   5.753   3.133  0.0896 -0.1037 -0.1580
   28MOL   O109 3943   3.173   5.852   3.240 -0.1898 -0.5334 -0.1877
   28MOL   H110 3944   3.355   5.786   3.075  1.7573  0.3947  1.6326
   28MOL   H111 3945   3.284   5.647   2.995  0.9824  2.1202 -0.2164
   28MOL   H112 3946   3.085   5.671   3.156 -1.2134  0.3786 -2.0701
   28MOL   H113 3947   3.241   5.814   3.295  0.6569 -0.9745 -1.5230
   28MOL   C114 3948   3.068   5.828   3.024 -0.2839  0.0101 -0.7180
   28MOL   C115 3949   2.977   5.739   2.939 -0.1258 -0.2238 -0.6298
   28MOL   O116 3950   2.870   5.693   3.016 -0.3654  0.0527 -0.2777
   28MOL   H117 3951   3.010   5.911   3.067 -0.6023 -1.3775  1.6443
   28MOL   H118 3952   3.133   5.874   2.951 -0.5906 -0.5056 -1.3156
   28MOL   H119 3953   3.040   5.656   2.908  0.7495 -0.5429  1.8753
   28MOL   H120 3954   2.863   5.601   2.996 -1.1154  0.0503  0.0002
   28MOL   C121 3955   2.919   5.810   2.812 -0.4045  0.1978 -0.3119
   28MOL   C122 3956   3.009   5.810   2.691 -0.0071 -0.4953 -1.2828
   28MOL   O123 3957   2.975   5.701   2.607 -0.4977  0.1325  0.2283
   28MOL   H124 3958   2.828   5.756   2.785  0.0264 -0.1892 -0.9916
   28MOL   H125 3959   2.885   5.911   2.837  1.1124  1.2445 -2.3881
   28MOL   H126 3960   3.110   5.784   2.723 -0.3696 -0.3357 -0.0153
   28MOL   H127 3961   2.884   5.709   2.582 -0.2975  1.1654 -0.1849
   28MOL   C128 3962   3.007   5.945   2.614  0.4732  0.4887  0.3119
   28MOL   C129 3963   3.081   6.069   2.665  0.3656 -0.0270 -0.1655
   28MOL   O130 3964   3.087   6.161   2.555  0.2227 -0.0577 -0.1703
   28MOL   H131 3965   3.040   5.916   2.515 -1.8285 -1.7973  0.1691
   28MOL   H132 3966   2.904   5.970   2.589  0.4740 -0.1220 -0.3120
   28MOL   H133 3967   3.187   6.045   2.673 -0.2873 -2.3804  2.6539
   28MOL   H134 3968   2.994   6.172   2.542 -0.0154 -1.7852 -0.0760
   28MOL   C135 3969   3.034   6.145   2.789  0.3969 -0.5470  0.2118
   28MOL   C136 3970   3.113   6.275   2.819 -0.7155  0.6967  0.6807
   28MOL   O137 3971   3.060   6.326   2.936 -0.0837 -0.3399  0.4010
   28MOL   H138 3972   2.929   6.173   2.787  0.9922  1.9258  1.0585
   28MOL   H139 3973   3.047   6.079   2.875  1.6244 -0.1415  0.3458
   28MOL   H140 3974   3.100   6.340   2.733 -0.5634  0.2658  0.3285
   28MOL   H141 3975   3.084   6.260   2.999 -1.8065 -2.1252 -0.7747
   28MOL   H142 3976   3.220   6.268   2.843 -1.1651 -1.0296  2.3012
   29MOL     C1 3977   6.220   2.136   3.689  0.6585 -0.5927  0.1868
   29MOL     C2 3978   6.291   2.195   3.563  0.1548 -0.4417 -0.1366
   29MOL     O3 3979   6.177   2.260   3.489  0.1089 -0.1443  0.1658
   29MOL     H4 3980   6.199   2.223   3.751 -2.1559 -1.3534  0.3955
   29MOL     H5 3981   6.286   2.067   3.741  1.6181  0.0784 -0.1298
   29MOL     H6 3982   6.336   2.116   3.503  0.3117  0.7431 -1.5886
   29MOL     H7 3983   6.108   2.204   3.460 -1.4788  2.1496 -0.6048
   29MOL     H8 3984   6.125   2.086   3.667  1.1228 -0.7708 -1.4966
   29MOL     C9 3985   6.396   2.300   3.603 -0.3537 -0.1077  0.4556
   29MOL    C10 3986   6.483   2.328   3.482  0.0290 -0.3635  0.6334
   29MOL    O11 3987   6.415   2.374   3.368  0.4403  0.0199 -0.0157
   29MOL    H12 3988   6.368   2.402   3.632 -1.8436  0.2252 -1.9927
   29MOL    H13 3989   6.457   2.259   3.684  0.1198  0.6247  0.4773
   29MOL    H14 3990   6.521   2.230   3.452 -2.5104 -1.2568  0.2611
   29MOL    H15 3991   6.327   2.341   3.372 -0.4094  2.1271 -0.4925
   29MOL    C16 3992   6.598   2.425   3.519  0.2665  0.1085  0.4269
   29MOL    C17 3993   6.736   2.417   3.452 -0.4306  0.5629  0.1206
   29MOL    O18 3994   6.809   2.314   3.513  0.5425 -0.0808 -0.0293
   29MOL    H19 3995   6.557   2.516   3.476  1.3244  0.0267 -0.7779
   29MOL    H20 3996   6.610   2.433   3.627 -1.2712 -1.5731  0.7535
   29MOL    H21 3997   6.803   2.500   3.476 -2.1712  1.8734  0.5090
   29MOL    H22 3998   6.787   2.226   3.487 -0.7300 -0.0389  0.8670
   29MOL    C23 3999   6.725   2.401   3.295 -0.7185 -0.5075 -0.3688
   29MOL    C24 4000   6.718   2.537   3.222 -0.2133  0.2658  0.5701
   29MOL    O25 4001   6.852   2.572   3.223  0.1162  0.1361  0.8224
   29MOL    H26 4002   6.795   2.330   3.250 -2.4697 -1.4398 -1.7035
   29MOL    H27 4003   6.636   2.346   3.263  1.2490 -2.8336 -2.0557
   29MOL    H28 4004   6.652   2.608   3.271 -0.1345  1.1444 -0.5784
   29MOL    H29 4005   6.852   2.661   3.191 -1.8701 -0.8114 -1.9847
   29MOL    C30 4006   6.685   2.521   3.075 -0.8728 -0.3842 -0.0326
   29MOL    C31 4007   6.532   2.508   3.046  0.3228 -0.9459  0.3388
   29MOL    O32 4008   6.502   2.644   3.014 -0.0367  0.2449  0.6585
   29MOL    H33 4009   6.735   2.604   3.026 -1.4291 -0.0056  0.0408
   29MOL    H34 4010   6.742   2.439   3.032 -0.2411 -0.2378  0.5156
   29MOL    H35 4011   6.478   2.486   3.137 -1.2242  2.5568  0.3550
   29MOL    H36 4012   6.557   2.654   2.938 -0.4032 -0.0682  0.3493
   29MOL    C37 4013   6.476   2.424   2.928 -0.2613 -0.7465 -0.0273
   29MOL    C38 4014   6.453   2.279   2.962 -0.6125 -0.1773  0.1511
   29MOL    O39 4015   6.391   2.237   2.842 -0.0357  0.5145 -0.1356
   29MOL    H40 4016   6.382   2.474   2.904  1.1165  1.8501 -0.2004
   29MOL    H41 4017   6.550   2.444   2.850 -1.0849 -1.5099 -1.0128
   29MOL    H42 4018   6.382   2.269   3.044  0.0786  0.3936  0.8186
   29MOL    H43 4019   6.312   2.288   2.835  0.2692  1.0014 -0.0998
   29MOL    C44 4020   6.576   2.198   2.988  0.8861 -0.8567 -0.6664
   29MOL    C45 4021   6.556   2.052   3.033  0.0749  1.0702 -0.2905
   29MOL    O46 4022   6.460   1.996   2.947 -0.2479  0.6692 -0.0601
   29MOL    H47 4023   6.640   2.209   2.900  0.1846 -0.9106 -1.1911
   29MOL    H48 4024   6.637   2.251   3.061 -1.1154 -0.7475  0.9782
   29MOL    H49 4025   6.523   2.033   3.135  1.5180 -0.9371 -0.1681
   29MOL    H50 4026   6.421   2.074   2.911  0.2306  0.6845 -0.5602
   29MOL    C51 4027   6.681   1.965   3.016  0.2317  0.0055  0.6938
   29MOL    C52 4028   6.797   1.996   3.113  0.7263 -0.1784  0.1024
   29MOL    O53 4029   6.857   2.123   3.083 -0.0498 -0.6552 -1.0104
   29MOL    H54 4030   6.660   1.859   3.034  0.4365 -0.8408 -3.4975
   29MOL    H55 4031   6.721   1.960   2.914 -0.1153  2.9743  0.3710
   29MOL    H56 4032   6.863   1.911   3.096  0.8966 -0.0352  0.0393
   29MOL    H57 4033   6.874   2.122   2.990 -0.2653  0.3454 -1.0602
   29MOL    C58 4034   6.766   1.988   3.264  0.3511  0.0077  0.1326
   29MOL    C59 4035   6.878   2.020   3.367  0.1467 -0.4912  0.4172
   29MOL    O60 4036   6.817   2.040   3.495  0.1321  0.4233  0.6176
   29MOL    H61 4037   6.682   2.054   3.282  0.7584  0.6018 -0.1159
   29MOL    H62 4038   6.726   1.888   3.276 -4.3494  1.7151 -0.4638
   29MOL    H63 4039   6.925   2.113   3.335  0.0388 -0.4365  0.4196
   29MOL    H64 4040   6.867   2.002   3.565 -0.5679  0.3239  1.0733
   29MOL    C65 4041   6.975   1.899   3.357 -0.4074  0.3117 -0.0314
   29MOL    C66 4042   7.085   1.897   3.471 -0.1649  0.2382  0.4577
   29MOL    O67 4043   7.026   1.882   3.600  0.5065  0.4552  0.1874
   29MOL    H68 4044   6.919   1.807   3.377 -1.1101  0.2977 -1.9768
   29MOL    H69 4045   7.012   1.877   3.257 -0.5208 -1.4118  0.2858
   29MOL    H70 4046   7.124   1.998   3.475 -2.6996  1.2562  0.1933
   29MOL    H71 4047   6.980   1.800   3.601  1.2195  0.0631  1.0569
   29MOL    C72 4048   7.191   1.788   3.457  0.1862  0.2524  0.0781
   29MOL    C73 4049   7.295   1.819   3.343 -0.1223 -0.6676 -0.1378
   29MOL    O74 4050   7.372   1.941   3.380 -0.3699  0.5412  0.1360
   29MOL    H75 4051   7.249   1.770   3.547 -1.6939 -0.7869  1.1300
   29MOL    H76 4052   7.151   1.687   3.448  1.1094  0.0502 -1.9480
   29MOL    H77 4053   7.259   1.852   3.245  2.1893 -0.8378 -1.0997
   29MOL    H78 4054   7.396   1.917   3.468 -1.2262  0.0180  0.2337
   29MOL    C79 4055   7.399   1.704   3.330 -0.0061 -0.2727 -0.2266
   29MOL    C80 4056   7.519   1.743   3.242 -1.1272  0.0399  0.3481
   29MOL    O81 4057   0.071   1.622   3.216  0.0243 -0.8755 -0.6443
   29MOL    H82 4058   7.443   1.674   3.425 -0.4640  1.4662  0.5634
   29MOL    H83 4059   7.349   1.619   3.282  0.8162 -1.1789  0.5120
   29MOL    H84 4060   0.049   1.823   3.298 -1.2232  2.3384 -2.7251
   29MOL    H85 4061   0.115   1.604   3.298 -0.1423  1.9465  0.0950
   29MOL    C86 4062   7.498   1.820   3.106 -0.0644 -1.3571  0.1972
   29MOL    C87 4063   7.478   1.979   3.094  0.3720  0.0678 -0.3526
   29MOL    O88 4064   0.092   2.026   3.116 -0.8296 -0.5766 -0.2620
   29MOL    H89 4065   0.054   1.787   3.034  0.3084  0.8709 -0.4656
   29MOL    H90 4066   7.403   1.778   3.071 -1.1341 -0.0172  1.4734
   29MOL    H91 4067   7.397   2.016   3.157  1.1599  1.4722 -0.1472
   29MOL    H92 4068   0.111   2.061   3.202  0.4118 -2.2550  0.1851
   29MOL    C93 4069   7.441   2.014   2.947 -0.2705  0.4366  0.5939
   29MOL    C94 4070   7.300   1.991   2.903  0.0880  0.0902  1.0741
   29MOL    O95 4071   7.200   2.051   2.980  0.3978  0.0579  0.0747
   29MOL    H96 4072   7.465   2.119   2.930  3.0313 -0.4886 -1.0222
   29MOL    H97 4073   7.506   1.951   2.886  0.7531  3.2238 -1.3264
   29MOL    H98 4074   7.292   1.882   2.906 -0.6980  0.1096 -0.1050
   29MOL    H99 4075   7.147   1.988   3.026 -0.5314 -1.3235 -2.8041
   29MOL   C100 4076   7.268   2.039   2.759  0.0772  0.2546 -0.0692
   29MOL   C101 4077   7.338   1.981   2.630  0.3645 -0.0137  0.2253
   29MOL   O102 4078   7.311   1.844   2.620 -0.4740 -0.0246  0.3160
   29MOL   H103 4079   7.163   2.028   2.732 -0.0133  0.8153  0.0537
   29MOL   H104 4080   7.282   2.147   2.758  1.6526  0.0663  0.4116
   29MOL   H105 4081   7.446   1.988   2.639  0.4538 -2.2004  1.0391
   29MOL   H106 4082   7.372   1.794   2.672  0.8137  0.6656 -0.5196
   29MOL   C107 4083   7.295   2.051   2.496  0.2813 -0.0324  0.3603
   29MOL   C108 4084   7.372   2.009   2.368  0.2796 -0.3678 -0.5590
   29MOL   O109 4085   7.374   1.869   2.354 -0.2955  0.1088  0.2883
   29MOL   H110 4086   7.187   2.063   2.482  0.2823 -1.1288 -0.7666
   29MOL   H111 4087   7.323   2.153   2.517  0.5440 -0.1059  0.3605
   29MOL   H112 4088   7.470   2.055   2.361  1.7538 -3.6856 -3.6381
   29MOL   H113 4089   7.372   1.836   2.442  0.6533 -0.9470 -0.0789
   29MOL   C114 4090   7.287   2.051   2.247 -0.0600  0.1089 -0.5322
   29MOL   C115 4091   7.258   2.210   2.223 -0.6729 -0.1049 -0.5571
   29MOL   O116 4092   7.384   2.264   2.187 -0.0885  0.4700 -0.2005
   29MOL   H117 4093   7.326   2.014   2.152 -1.1524 -1.9956 -0.1934
   29MOL   H118 4094   7.192   2.002   2.266  0.3716 -0.0227  1.3502
   29MOL   H119 4095   7.226   2.257   2.316  0.0971 -2.1027  0.7606
   29MOL   H120 4096   7.434   2.294   2.261 -0.8319 -2.3074  1.4949
   29MOL   C121 4097   7.151   2.248   2.119  0.2851  0.3240  0.0677
   29MOL   C122 4098   7.010   2.220   2.155  0.5901  0.3174 -0.3907
   29MOL   O123 4099   6.976   2.296   2.276  0.4027  0.0381  0.0655
   29MOL   H124 4100   7.169   2.351   2.089  1.0840  0.3299  0.5574
   29MOL   H125 4101   7.162   2.198   2.023 -1.7315  0.4749 -0.2731
   29MOL   H126 4102   6.985   2.115   2.173  2.2775 -0.1443 -0.6954
   29MOL   H127 4103   6.908   2.252   2.324 -0.8699  1.5648 -0.2759
   29MOL   C128 4104   6.907   2.276   2.051 -0.5805  0.6144 -0.3803
   29MOL   C129 4105   6.888   2.199   1.917 -0.8327 -0.0896  0.3537
   29MOL   O130 4106   6.877   2.057   1.938  0.4836  0.4107 -0.1863
   29MOL   H131 4107   6.813   2.272   2.106 -0.9255 -0.3434 -1.0406
   29MOL   H132 4108   6.928   2.382   2.039 -1.6909  0.8638 -0.1432
   29MOL   H133 4109   6.969   2.222   1.848  0.9497  0.3551  2.5352
   29MOL   H134 4110   6.942   2.021   1.879  1.6842  0.8577  0.8292
   29MOL   C135 4111   6.762   2.240   1.852  0.0073 -0.3013  0.4458
   29MOL   C136 4112   6.768   2.384   1.799  0.2676  0.2963  0.4384
   29MOL   O137 4113   6.646   2.406   1.724  0.4267 -0.1805 -0.4676
   29MOL   H138 4114   6.740   2.165   1.775 -2.5514 -0.8044  1.5994
   29MOL   H139 4115   6.682   2.234   1.926  0.2374 -0.3777  0.6874
   29MOL   H140 4116   6.865   2.385   1.750  1.0167  1.2274  1.9023
   29MOL   H141 4117   6.635   2.330   1.668  0.7625 -1.6015  1.3599
   29MOL   H142 4118   6.772   2.458   1.879 -1.5210  0.1242  0.7137
   30MOL     C1 4119   6.552   4.088   2.890  0.0075  0.0594  0.1673
   30MOL     C2 4120   6.469   3.960   2.876 -1.2269 -0.1813  0.0168
   30MOL     O3 4121   6.530   3.852   2.948 -0.0233  0.7063  0.0805
   30MOL     H4 4122   6.542   4.131   2.989 -0.5154 -1.5476  0.8195
   30MOL     H5 4123   6.523   4.162   2.815  0.5549  0.9380  0.8086
   30MOL     H6 4124   6.472   3.930   2.771 -0.6533 -1.4850  0.3951
   30MOL     H7 4125   6.457   3.807   2.988  1.2321 -2.2550 -0.8600
   30MOL     H8 4126   6.658   4.065   2.877  0.2325  0.3432  1.4040
   30MOL     C9 4127   6.324   3.979   2.919  0.3568 -0.1928 -0.8416
   30MOL    C10 4128   6.252   4.078   2.823 -0.2408  0.6955 -0.5589
   30MOL    O11 4129   6.216   4.013   2.702  0.2317  0.6770 -0.4461
   30MOL    H12 4130   6.279   3.880   2.920  2.5916 -1.2410  0.4919
   30MOL    H13 4131   6.321   4.011   3.023  0.3516  1.3863 -1.3109
   30MOL    H14 4132   6.317   4.163   2.802  0.6442  0.4300  1.0260
   30MOL    H15 4133   6.197   4.069   2.629  1.0594 -0.2421 -1.3752
   30MOL    C16 4134   6.131   4.130   2.895 -0.2139  0.0234  0.2509
   30MOL    C17 4135   6.144   4.257   2.987  0.1413  0.0402  0.8686
   30MOL    O18 4136   6.018   4.284   3.041  0.6310 -0.2825  0.3932
   30MOL    H19 4137   6.058   4.162   2.821 -0.8039 -0.2623  0.7015
   30MOL    H20 4138   6.074   4.054   2.949  0.4626  0.4568  1.6093
   30MOL    H21 4139   6.173   4.344   2.927 -2.1156  0.9780  1.0662
   30MOL    H22 4140   5.952   4.285   2.973  1.0731 -1.9387 -0.0845
   30MOL    C23 4141   6.235   4.242   3.113  0.0611  0.9866  0.3903
   30MOL    C24 4142   6.245   4.354   3.220  0.1860 -0.0164  0.1118
   30MOL    O25 4143   6.253   4.300   3.356  0.2251 -0.2091  0.0700
   30MOL    H26 4144   6.192   4.153   3.159 -0.4630  0.7868 -0.4769
   30MOL    H27 4145   6.337   4.215   3.083  0.0634 -0.0955  1.3488
   30MOL    H28 4146   6.151   4.407   3.234  1.3195  2.5923 -1.7735
   30MOL    H29 4147   6.322   4.352   3.393 -0.0987  0.1855  0.1221
   30MOL    C30 4148   6.357   4.460   3.193  0.8821  0.0567 -0.3976
   30MOL    C31 4149   6.357   4.508   3.050  0.0785  0.1461  0.2672
   30MOL    O32 4150   6.224   4.559   3.012 -0.0866  0.3972 -0.6714
   30MOL    H33 4151   6.348   4.546   3.259 -1.2095  0.2315 -0.8501
   30MOL    H34 4152   6.454   4.414   3.210  2.0266  2.3117 -0.7375
   30MOL    H35 4153   6.385   4.426   2.983  0.9561  0.5060  0.1958
   30MOL    H36 4154   6.222   4.577   2.919  2.2059  1.0292 -0.6371
   30MOL    C37 4155   6.460   4.619   3.018  0.3684  0.5890  0.3537
   30MOL    C38 4156   6.603   4.577   3.031 -0.3426  0.2283  0.4061
   30MOL    O39 4157   6.631   4.464   2.951  0.2267  0.1708 -0.1901
   30MOL    H40 4158   6.437   4.652   2.917  0.7782  0.7213  0.3000
   30MOL    H41 4159   6.436   4.700   3.088 -2.9085  0.9279 -1.0805
   30MOL    H42 4160   6.630   4.562   3.135  0.6520 -1.7566 -0.1069
   30MOL    H43 4161   6.629   4.478   2.858  2.6990  1.9266 -0.0106
   30MOL    C44 4162   6.700   4.690   2.978  0.0981  0.2946  0.2168
   30MOL    C45 4163   6.853   4.667   2.987 -0.3097 -0.2790 -0.0192
   30MOL    O46 4164   6.891   4.553   2.914 -0.3341 -0.2816  0.1359
   30MOL    H47 4165   6.684   4.722   2.875 -0.0817 -3.5029 -1.0385
   30MOL    H48 4166   6.682   4.770   3.049  0.6067  0.3038  0.3343
   30MOL    H49 4167   6.888   4.659   3.090 -3.6987 -2.1716  1.0777
   30MOL    H50 4168   6.810   4.528   2.872 -1.0506  0.6842  0.9426
   30MOL    C51 4169   6.927   4.790   2.929 -0.3309  0.0528 -0.5505
   30MOL    C52 4170   7.081   4.792   2.952  0.1624 -0.0381  0.0684
   30MOL    O53 4171   7.142   4.680   2.892  0.6195 -0.3278 -0.0807
   30MOL    H54 4172   6.913   4.785   2.821  3.5502  0.9303 -1.1672
   30MOL    H55 4173   6.881   4.879   2.972 -0.5293 -0.3063 -0.0023
   30MOL    H56 4174   7.099   4.780   3.059  0.5377  3.2162  0.4497
   30MOL    H57 4175   7.108   4.598   2.926 -2.2369  0.4547 -0.9182
   30MOL    C58 4176   7.145   4.923   2.890 -0.0915  0.0472 -0.0679
   30MOL    C59 4177   7.120   5.050   2.977  0.4011 -0.4308 -0.3203
   30MOL    O60 4178   7.163   5.043   3.115  0.2306  0.3024 -0.1527
   30MOL    H61 4179   7.254   4.910   2.888 -0.2075 -0.7591 -1.5985
   30MOL    H62 4180   7.116   4.929   2.786 -1.1203  2.0686  0.3143
   30MOL    H63 4181   7.017   5.083   2.984  0.5727  0.1718 -0.5494
   30MOL    H64 4182   7.097   4.986   3.152  2.2453 -0.8551  1.7391
   30MOL    C65 4183   7.208   5.168   2.933  0.3863  0.1912  0.5903
   30MOL    C66 4184   7.167   5.222   2.791 -0.4900 -0.1497  0.5613
   30MOL    O67 4185   7.030   5.264   2.803  0.7731  0.3120 -0.5586
   30MOL    H68 4186   7.198   5.249   3.005  0.0918  0.3844  0.3373
   30MOL    H69 4187   7.309   5.131   2.923 -0.1488 -0.7912 -1.3149
   30MOL    H70 4188   7.176   5.139   2.721 -1.6624 -0.8406  1.2047
   30MOL    H71 4189   6.993   5.293   2.721 -0.5853  0.3594  0.0614
   30MOL    C72 4190   7.254   5.330   2.741 -0.4809  0.0881  0.1132
   30MOL    C73 4191   7.361   5.280   2.638  0.2748  0.5687 -0.0415
   30MOL    O74 4192   7.301   5.238   2.517  0.5521 -0.3656  1.0393
   30MOL    H75 4193   7.195   5.419   2.718  0.0743  0.0220 -1.6298
   30MOL    H76 4194   7.317   5.365   2.822 -1.1102  0.9433  0.2454
   30MOL    H77 4195   7.414   5.196   2.683  0.0224 -0.4148 -1.5699
   30MOL    H78 4196   7.375   5.196   2.475  1.4118  0.9213  1.2480
   30MOL    C79 4197   7.462   5.389   2.602  0.0345  1.0646 -0.1852
   30MOL    C80 4198   0.060   5.353   2.511  0.4871 -0.7148  0.4843
   30MOL    O81 4199   0.126   5.240   2.554 -0.4901 -0.2721 -0.0227
   30MOL    H82 4200   7.415   5.479   2.561 -1.3486  0.7873  0.7797
   30MOL    H83 4201   7.503   5.429   2.695 -3.0356 -1.0050  2.1334
   30MOL    H84 4202   0.134   5.427   2.541 -1.4785  1.2248  0.6733
   30MOL    H85 4203   0.178   5.212   2.480 -0.8141 -1.3997  0.1680
   30MOL    C86 4204   0.042   5.344   2.357  0.0089 -0.1394  0.4692
   30MOL    C87 4205   0.164   5.383   2.274  0.3164  0.1094 -0.1584
   30MOL    O88 4206   0.274   5.297   2.310  0.4154  0.0925 -0.3198
   30MOL    H89 4207   0.006   5.243   2.335  0.6485 -0.4108  0.6578
   30MOL    H90 4208   7.480   5.411   2.329 -0.0515  0.1360  1.2912
   30MOL    H91 4209   0.198   5.479   2.313  0.6259 -0.6525  1.4669
   30MOL    H92 4210   0.337   5.311   2.240 -0.5210  5.1439 -0.3731
   30MOL    C93 4211   0.141   5.394   2.118 -0.4262 -0.7771  0.1698
   30MOL    C94 4212   0.273   5.447   2.043 -0.5085 -0.4711  0.1949
   30MOL    O95 4213   0.386   5.362   2.071  0.0185  0.1661  0.2036
   30MOL    H96 4214   0.101   5.305   2.069  1.6316 -1.8761  0.4276
   30MOL    H97 4215   0.065   5.467   2.090  1.9594  1.3679 -0.9165
   30MOL    H98 4216   0.307   5.545   2.075 -3.8833  1.9054 -3.0094
   30MOL    H99 4217   0.455   5.412   2.112 -0.6581  0.7370  0.6470
   30MOL   C100 4218   0.245   5.429   1.890  0.2426  0.1589  0.7357
   30MOL   C101 4219   0.343   5.490   1.790 -0.8496  0.4157 -0.3077
   30MOL   O102 4220   0.328   5.431   1.664 -0.5788 -0.5678 -0.1341
   30MOL   H103 4221   0.246   5.322   1.868 -1.3473  0.0882  0.8967
   30MOL   H104 4222   0.146   5.466   1.863  0.0116  0.2172  1.6510
   30MOL   H105 4223   0.441   5.475   1.835 -1.2036  1.4920  0.8445
   30MOL   H106 4224   0.333   5.337   1.674  2.4372 -0.5576 -0.8681
   30MOL   C107 4225   0.318   5.640   1.771 -0.3041 -0.2911  0.0026
   30MOL   C108 4226   0.448   5.726   1.736  0.2659  0.1714 -0.5943
   30MOL   O109 4227   0.408   5.850   1.676  0.0797  0.2378 -0.1019
   30MOL   H110 4228   0.239   5.664   1.700  2.4784  0.9761 -2.7687
   30MOL   H111 4229   0.279   5.681   1.865 -0.3076  1.1758 -0.6194
   30MOL   H112 4230   0.520   5.679   1.670  0.5428  0.1368 -0.2680
   30MOL   H113 4231   0.374   5.834   1.589  0.6573  0.9160 -0.4545
   30MOL   C114 4232   0.520   5.774   1.862 -0.6574 -0.0913 -0.4899
   30MOL   C115 4233   0.630   5.678   1.918 -0.1042 -0.1358  0.5140
   30MOL   O116 4234   0.749   5.693   1.852  0.2946  0.1303  1.2192
   30MOL   H117 4235   0.568   5.869   1.838  1.0141 -0.9531 -0.6368
   30MOL   H118 4236   0.454   5.813   1.940 -1.6366  0.1324 -1.4161
   30MOL   H119 4237   0.600   5.574   1.909  0.2755 -0.1343 -1.0504
   30MOL   H120 4238   0.795   5.768   1.887  1.2881  0.1470 -0.0765
   30MOL   C121 4239   0.662   5.710   2.064 -0.4845 -0.4782 -0.0962
   30MOL   C122 4240   0.560   5.664   2.176 -0.1549  0.6049 -0.3224
   30MOL   O123 4241   0.564   5.522   2.182 -0.1673 -0.4428  0.0907
   30MOL   H124 4242   0.759   5.668   2.091 -0.1639  0.0142 -0.4505
   30MOL   H125 4243   0.677   5.817   2.077 -0.6746 -0.8672  3.7272
   30MOL   H126 4244   0.461   5.698   2.147 -1.1615 -1.7207  0.2427
   30MOL   H127 4245   0.652   5.491   2.195  1.2704  1.2097 -4.6801
   30MOL   C128 4246   0.595   5.725   2.308  0.4645 -0.2018  0.0029
   30MOL   C129 4247   0.485   5.709   2.414  0.0521 -0.0251 -1.0275
   30MOL   O130 4248   0.490   5.573   2.446 -0.4310 -0.1349  0.3568
   30MOL   H131 4249   0.693   5.689   2.341  0.0650 -0.3316  1.0691
   30MOL   H132 4250   0.616   5.831   2.295 -2.3150  0.2376 -1.2676
   30MOL   H133 4251   0.391   5.731   2.365  0.4903  4.6739 -0.0645
   30MOL   H134 4252   0.523   5.533   2.367 -1.4088 -1.3801  0.5547
   30MOL   C135 4253   0.506   5.807   2.535  0.1604  0.1846  0.4654
   30MOL   C136 4254   0.499   5.958   2.502 -0.3487  0.8229  0.9454
   30MOL   O137 4255   0.501   6.034   2.618 -0.6107  0.1277 -0.2517
   30MOL   H138 4256   0.424   5.785   2.603 -0.2975 -0.4805 -0.2941
   30MOL   H139 4257   0.604   5.792   2.579  0.4563  0.4462 -0.0903
   30MOL   H140 4258   0.413   5.984   2.440  0.4213  0.2445 -0.4118
   30MOL   H141 4259   0.436   6.005   2.680 -0.4368 -0.0895 -0.1700
   30MOL   H142 4260   0.589   5.985   2.446  0.1035 -3.0226 -0.3426
   31MOL     C1 4261   3.451   2.222   6.505 -0.4356  0.5400  0.6963
   31MOL     C2 4262   3.450   2.126   6.384  0.0724 -0.8658 -0.5392
   31MOL     O3 4263   3.568   2.046   6.385 -0.2160  0.4214 -0.5541
   31MOL     H4 4264   3.454   2.162   6.596 -1.2923 -0.2903  0.1846
   31MOL     H5 4265   3.357   2.275   6.524  0.6821  2.8383 -0.0577
   31MOL     H6 4266   3.444   2.192   6.298  0.7549 -1.9065 -1.4032
   31MOL     H7 4267   3.556   1.978   6.321  1.4968 -0.9302  0.5037
   31MOL     H8 4268   3.538   2.287   6.508 -0.9912  1.2985  0.5943
   31MOL     C9 4269   3.327   2.037   6.390 -0.4292  0.2645 -0.1747
   31MOL    C10 4270   3.309   1.946   6.262  0.1390  1.2202 -0.3461
   31MOL    O11 4271   3.422   1.856   6.242 -0.1931  0.8338  0.4594
   31MOL    H12 4272   3.333   1.977   6.481 -1.2197  1.3144  0.5864
   31MOL    H13 4273   3.238   2.098   6.411  0.1663  1.1976 -0.3160
   31MOL    H14 4274   3.304   2.012   6.176  0.5877 -0.2084 -1.4909
   31MOL    H15 4275   3.451   1.807   6.318  1.4620 -1.1647 -1.3933
   31MOL    C16 4276   3.182   1.860   6.273 -0.5952  0.9305  0.2614
   31MOL    C17 4277   3.096   1.869   6.146 -0.3520 -0.3944  0.1449
   31MOL    O18 4278   3.011   1.760   6.147  0.1395 -0.2970  0.8160
   31MOL    H19 4279   3.214   1.756   6.282 -2.4638  0.0687 -2.3379
   31MOL    H20 4280   3.117   1.884   6.356  0.0057 -0.9426  1.2873
   31MOL    H21 4281   3.165   1.872   6.062  0.2280 -0.6372  0.6065
   31MOL    H22 4282   3.000   1.731   6.057  1.3687  0.6205  0.3509
   31MOL    C23 4283   3.004   1.995   6.164  0.3537 -0.2366 -0.0986
   31MOL    C24 4284   2.937   2.049   6.029 -0.0669  0.2721  0.1944
   31MOL    O25 4285   2.809   1.998   6.014 -0.6339  0.1799  0.3974
   31MOL    H26 4286   2.930   1.992   6.244 -0.7934  1.4561 -1.0531
   31MOL    H27 4287   3.072   2.075   6.188 -1.0502  0.3700  1.9578
   31MOL    H28 4288   2.997   2.029   5.940 -1.1203  0.8615 -0.6624
   31MOL    H29 4289   2.765   2.036   5.939 -2.4840  0.2552  1.4733
   31MOL    C30 4290   2.928   2.208   6.046  0.1967 -0.3087  0.0615
   31MOL    C31 4291   3.057   2.282   6.010 -0.2262 -0.2161 -0.0175
   31MOL    O32 4292   3.084   2.248   5.878  0.7252 -0.1024 -0.0281
   31MOL    H33 4293   2.843   2.251   5.993 -0.2344 -1.9513 -0.6318
   31MOL    H34 4294   2.902   2.233   6.149 -0.6189  0.2261 -0.2662
   31MOL    H35 4295   3.135   2.242   6.075  0.3413 -0.3313 -0.7665
   31MOL    H36 4296   3.016   2.291   5.830  0.7819 -0.9853 -0.9199
   31MOL    C37 4297   3.041   2.434   6.034 -0.5442 -0.0432  0.4086
   31MOL    C38 4298   3.045   2.499   6.173 -0.3378  0.3912 -0.2921
   31MOL    O39 4299   2.930   2.453   6.248  0.0319 -0.5388  0.3994
   31MOL    H40 4300   3.106   2.483   5.963  0.0750 -0.8354  0.4214
   31MOL    H41 4301   2.948   2.469   5.989 -0.3798  2.0797  1.6950
   31MOL    H42 4302   3.036   2.607   6.165  0.3361  0.6169  1.5873
   31MOL    H43 4303   2.858   2.509   6.223  0.6719 -0.7721 -2.0963
   31MOL    C44 4304   3.177   2.480   6.245 -1.0811  0.6991  0.3811
   31MOL    C45 4305   3.308   2.550   6.185  0.9279 -0.1216 -0.1064
   31MOL    O46 4306   3.292   2.688   6.208 -0.1553  0.2110 -0.3252
   31MOL    H47 4307   3.158   2.514   6.347 -2.5434 -0.0724  0.3844
   31MOL    H48 4308   3.199   2.374   6.247  1.3819  1.1570 -0.3037
   31MOL    H49 4309   3.303   2.545   6.076  0.5845  1.5932 -0.1775
   31MOL    H50 4310   3.248   2.723   6.132  0.7263  0.0688 -0.9091
   31MOL    C51 4311   3.431   2.512   6.266  0.0326 -0.2580  0.0105
   31MOL    C52 4312   3.567   2.538   6.200 -0.5052  0.4292  0.1344
   31MOL    O53 4313   3.657   2.588   6.293 -0.0903  0.5201 -0.9324
   31MOL    H54 4314   3.433   2.558   6.364 -0.0190 -2.3180  0.9955
   31MOL    H55 4315   3.431   2.406   6.289  1.0067 -0.4969 -1.0331
   31MOL    H56 4316   3.551   2.615   6.125  0.5518  1.6321  1.1011
   31MOL    H57 4317   3.700   2.663   6.256 -1.1695  2.2134  1.1615
   31MOL    C58 4318   3.624   2.416   6.119 -0.2465  0.0162 -0.4068
   31MOL    C59 4319   3.556   2.388   5.988  0.3344 -0.4577  0.1318
   31MOL    O60 4320   3.570   2.492   5.897 -0.5164  0.5663  0.1649
   31MOL    H61 4321   3.732   2.424   6.112 -0.0087 -2.1387  0.3419
   31MOL    H62 4322   3.623   2.327   6.182  0.9873 -0.0660 -0.4955
   31MOL    H63 4323   3.450   2.382   6.015  0.5448 -0.3677  0.9758
   31MOL    H64 4324   3.584   2.454   5.811  0.4946  1.7637 -0.2248
   31MOL    C65 4325   3.584   2.262   5.909  0.4682  0.1151 -0.2913
   31MOL    C66 4326   3.506   2.140   5.961 -0.8817 -0.3667 -0.6432
   31MOL    O67 4327   3.366   2.156   5.967 -0.2674  0.5926  0.3569
   31MOL    H68 4328   3.551   2.265   5.805  0.6232 -0.0461 -0.3445
   31MOL    H69 4329   3.690   2.240   5.909  0.2800 -0.8113 -0.1207
   31MOL    H70 4330   3.542   2.124   6.063  1.0079  0.9292 -1.0731
   31MOL    H71 4331   3.342   2.186   5.881 -0.0508 -0.1236  0.0404
   31MOL    C72 4332   3.543   2.005   5.888  0.2145 -0.5270 -0.1472
   31MOL    C73 4333   3.685   1.951   5.916 -0.0060  0.1933  0.0137
   31MOL    O74 4334   3.695   1.923   6.051 -0.2753  0.4551  0.2118
   31MOL    H75 4335   3.468   1.930   5.914  1.1286 -2.0307 -1.7214
   31MOL    H76 4336   3.536   2.018   5.780  0.7318  2.3737  0.1344
   31MOL    H77 4337   3.765   2.024   5.903 -0.6716  1.2279  1.6195
   31MOL    H78 4338   3.610   1.890   6.077 -1.1965  2.0558 -0.6494
   31MOL    C79 4339   3.711   1.830   5.825  0.3109  0.0638  0.0488
   31MOL    C80 4340   3.841   1.746   5.864  0.8356  0.3302  0.4484
   31MOL    O81 4341   3.825   1.620   5.794 -0.0856 -0.3591  0.1707
   31MOL    H82 4342   3.626   1.762   5.828 -0.1101  0.6024  0.1980
   31MOL    H83 4343   3.732   1.873   5.728  0.0694 -1.8377 -0.8718
   31MOL    H84 4344   3.843   1.723   5.970  0.7753 -1.6511  0.0567
   31MOL    H85 4345   3.879   1.552   5.831  0.7629 -0.0129 -0.4192
   31MOL    C86 4346   3.972   1.822   5.835  0.5030 -0.4312 -1.1104
   31MOL    C87 4347   4.096   1.756   5.895  0.5047 -0.2727  0.0485
   31MOL    O88 4348   4.204   1.823   5.835  0.6724  0.6228  0.0099
   31MOL    H89 4349   3.988   1.813   5.728  2.1971  0.2340 -0.9341
   31MOL    H90 4350   3.971   1.923   5.876  0.0869 -1.0034  0.3098
   31MOL    H91 4351   4.099   1.649   5.878 -0.0820 -0.1312 -1.0447
   31MOL    H92 4352   4.216   1.786   5.749 -0.6764 -1.4512  0.6552
   31MOL    C93 4353   4.110   1.761   6.049 -0.1907  0.0950 -0.3443
   31MOL    C94 4354   4.247   1.722   6.113  0.3040  0.8763  0.5748
   31MOL    O95 4355   4.243   1.751   6.250  0.1882 -0.4660 -0.7292
   31MOL    H96 4356   4.095   1.866   6.071 -2.9109 -0.3683  0.2389
   31MOL    H97 4357   4.035   1.706   6.105  0.2554 -0.2444 -0.0784
   31MOL    H98 4358   4.317   1.790   6.064  4.4564 -2.3019  1.8234
   31MOL    H99 4359   4.227   1.844   6.247 -1.3747 -0.7367 -0.8826
   31MOL   C100 4360   4.288   1.573   6.094 -0.4867 -0.1977 -0.3057
   31MOL   C101 4361   4.437   1.558   6.050 -0.9332 -0.2385 -0.3485
   31MOL   O102 4362   4.477   1.419   6.055 -0.0788 -0.1315  0.0517
   31MOL   H103 4363   4.265   1.498   6.169  0.3524 -1.3040 -1.1418
   31MOL   H104 4364   4.229   1.527   6.014  1.9717 -0.3132 -2.1178
   31MOL   H105 4365   4.499   1.605   6.127  0.2996 -0.5465 -1.1302
   31MOL   H106 4366   4.428   1.382   6.126  0.9819  0.0354  0.8969
   31MOL   C107 4367   4.461   1.592   5.901  0.1504 -0.0197  0.4592
   31MOL   C108 4368   4.609   1.611   5.861 -0.4082  0.0989  0.4280
   31MOL   O109 4369   4.615   1.590   5.719  0.3317  0.1254  0.5768
   31MOL   H110 4370   4.402   1.513   5.853  2.2872 -0.9900 -0.5989
   31MOL   H111 4371   4.419   1.692   5.892  1.1033  0.3911  0.5247
   31MOL   H112 4372   4.670   1.528   5.896  0.2471  0.3227 -0.1710
   31MOL   H113 4373   4.568   1.660   5.675  1.0395 -0.1148 -0.5948
   31MOL   C114 4374   4.680   1.749   5.876  0.0703  0.4126 -0.9921
   31MOL   C115 4375   4.820   1.757   5.827 -0.3835 -0.2862 -0.4712
   31MOL   O116 4376   4.856   1.893   5.822 -0.0386 -0.0845  0.9758
   31MOL   H117 4377   4.623   1.816   5.812 -2.1279  0.1027  0.5635
   31MOL   H118 4378   4.659   1.792   5.974  0.8734 -1.7635  0.1584
   31MOL   H119 4379   4.826   1.721   5.724 -2.0049 -2.0824  0.0356
   31MOL   H120 4380   4.869   1.900   5.729 -0.1037 -1.5475  0.8495
   31MOL   C121 4381   4.916   1.681   5.909 -0.0601  0.5057 -0.9978
   31MOL   C122 4382   5.058   1.659   5.863 -0.3025 -0.2237 -0.3745
   31MOL   O123 4383   5.118   1.584   5.966 -0.5790  0.0224  0.0311
   31MOL   H124 4384   4.919   1.733   6.004 -1.6277 -1.1127 -0.0281
   31MOL   H125 4385   4.870   1.586   5.935  2.7774 -0.5047  0.4664
   31MOL   H126 4386   5.097   1.760   5.850  0.6391 -0.3215  1.5814
   31MOL   H127 4387   5.088   1.496   5.950  1.1275 -0.9586  2.0140
   31MOL   C128 4388   5.049   1.587   5.726 -0.2545  0.1755 -0.1725
   31MOL   C129 4389   5.183   1.529   5.682  0.2703 -1.1859  0.5280
   31MOL   O130 4390   5.169   1.421   5.592  0.1845 -0.0953 -0.4370
   31MOL   H131 4391   4.967   1.515   5.728  0.5157 -0.7528 -1.1602
   31MOL   H132 4392   5.006   1.655   5.653 -0.7074 -0.9058 -0.9321
   31MOL   H133 4393   5.242   1.497   5.767 -1.8984 -0.7548  2.2345
   31MOL   H134 4394   5.123   1.349   5.632 -1.6212  1.9396  1.2375
   31MOL   C135 4395   5.265   1.642   5.611 -0.1504 -0.7247  0.0208
   31MOL   C136 4396   5.399   1.584   5.542 -0.4274  0.5762 -0.5056
   31MOL   O137 4397   5.398   1.574   5.403  1.1640  0.4841  0.1258
   31MOL   H138 4398   5.210   1.696   5.534  1.8938  1.0563 -0.2096
   31MOL   H139 4399   5.300   1.718   5.680 -0.2335 -1.1787  0.5726
   31MOL   H140 4400   5.423   1.486   5.583 -1.0661  1.1192  1.2196
   31MOL   H141 4401   5.344   1.499   5.384  1.8870  0.3131 -1.3262
   31MOL   H142 4402   5.478   1.651   5.576  1.5359 -1.0149 -1.8126
   32MOL     C1 4403   2.023   5.321   6.051 -0.1731  0.5861  0.0982
   32MOL     C2 4404   2.149   5.299   5.964 -0.2916  0.2773  0.0958
   32MOL     O3 4405   2.121   5.352   5.840 -0.5063  0.4058 -0.1819
   32MOL     H4 4406   1.940   5.277   5.996 -0.6556  0.9082  0.5768
   32MOL     H5 4407   2.003   5.422   6.084  2.6520  0.7878  1.3731
   32MOL     H6 4408   2.160   5.190   5.968 -1.7703  0.1721  2.3598
   32MOL     H7 4409   2.043   5.405   5.850  0.8241  2.1618  0.9794
   32MOL     H8 4410   2.026   5.256   6.139  0.8228  3.3320  2.1462
   32MOL     C9 4411   2.285   5.369   6.002  0.0525  0.0186 -0.4261
   32MOL    C10 4412   2.342   5.337   6.140 -0.0874  0.2222 -0.4928
   32MOL    O11 4413   2.424   5.222   6.124 -0.0925  0.4391  0.0009
   32MOL    H12 4414   2.364   5.358   5.928 -0.0177 -3.4013 -0.0755
   32MOL    H13 4415   2.268   5.477   6.009  1.1021  0.3751 -2.8497
   32MOL    H14 4416   2.265   5.308   6.211  0.2751 -0.7161 -0.4757
   32MOL    H15 4417   2.424   5.170   6.202 -0.0477 -1.8166 -1.4568
   32MOL    C16 4418   2.428   5.441   6.199 -0.4878  0.4665 -0.2293
   32MOL    C17 4419   2.352   5.567   6.233  0.5305  0.0372 -0.0022
   32MOL    O18 4420   2.347   5.575   6.372  0.3861  0.1640  0.2453
   32MOL    H19 4421   2.480   5.407   6.289  1.5670  0.2821 -1.4483
   32MOL    H20 4422   2.510   5.445   6.127 -1.0542 -2.1653 -1.0728
   32MOL    H21 4423   2.250   5.583   6.198  0.7551 -2.5257 -1.9095
   32MOL    H22 4424   2.267   5.617   6.399 -0.8748 -0.2492 -2.7470
   32MOL    C23 4425   2.425   5.693   6.188 -0.8196  0.0026 -0.2978
   32MOL    C24 4426   2.393   5.742   6.049 -0.1495  0.0322 -0.0304
   32MOL    O25 4427   2.280   5.823   6.049 -0.5416  0.2148 -0.0649
   32MOL    H26 4428   2.392   5.773   6.255  0.1582  0.9838 -0.9694
   32MOL    H27 4429   2.531   5.677   6.207 -0.3113  1.8735 -1.3362
   32MOL    H28 4430   2.374   5.657   5.984  0.3348  0.5507 -0.8638
   32MOL    H29 4431   2.230   5.794   5.974 -1.6492  2.2883 -0.1749
   32MOL    C30 4432   2.507   5.827   5.992  0.0717 -0.7353  0.0811
   32MOL    C31 4433   2.606   5.758   5.888 -0.2512  0.2938 -0.3637
   32MOL    O32 4434   2.695   5.865   5.861  0.1546  0.3801  0.0656
   32MOL    H33 4435   2.456   5.900   5.930  1.9875 -0.6844 -1.5094
   32MOL    H34 4436   2.559   5.879   6.073 -2.5058  1.7593  0.1951
   32MOL    H35 4437   2.553   5.738   5.795  1.5268 -1.2002 -1.0910
   32MOL    H36 4438   2.742   5.885   5.940  1.5275 -0.7378 -0.4439
   32MOL    C37 4439   2.684   5.635   5.934  0.5084 -0.3078  0.0539
   32MOL    C38 4440   2.777   5.569   5.839  0.1410 -0.3097 -0.4495
   32MOL    O39 4441   2.825   5.445   5.896 -0.0866  0.6913  0.3408
   32MOL    H40 4442   2.740   5.652   6.027 -0.1131  1.2041  0.1713
   32MOL    H41 4443   2.619   5.554   5.965  1.5556 -1.0158  0.4372
   32MOL    H42 4444   2.863   5.636   5.842 -0.6745  0.6751  1.5521
   32MOL    H43 4445   2.750   5.389   5.908 -1.2131  2.1785  0.3475
   32MOL    C44 4446   2.730   5.548   5.691 -0.0080 -0.5234  0.5241
   32MOL    C45 4447   2.837   5.533   5.587 -0.4337  0.0549  0.3175
   32MOL    O46 4448   2.770   5.510   5.460 -0.7528  0.4274  0.5454
   32MOL    H47 4449   2.668   5.458   5.680 -0.5592 -0.0867  0.0128
   32MOL    H48 4450   2.669   5.630   5.653 -0.0904 -1.0321 -0.4642
   32MOL    H49 4451   2.889   5.439   5.603  0.2002  0.1570 -1.0312
   32MOL    H50 4452   2.751   5.587   5.409  1.4957  1.3942  1.0999
   32MOL    C51 4453   2.954   5.634   5.569 -0.0602  0.8485  1.0045
   32MOL    C52 4454   2.936   5.776   5.610 -0.9504  0.4694  0.3597
   32MOL    O53 4455   3.067   5.825   5.595  0.0924 -0.3460  1.1621
   32MOL    H54 4456   3.039   5.585   5.616  1.9219  3.5831  0.3857
   32MOL    H55 4457   2.981   5.636   5.463  1.2075 -0.4977  1.2799
   32MOL    H56 4458   2.906   5.772   5.714  0.5063  1.1609  0.8279
   32MOL    H57 4459   3.066   5.912   5.630 -2.7753 -0.2055  0.8415
   32MOL    C58 4460   2.836   5.856   5.529 -0.4516  0.2577 -0.1770
   32MOL    C59 4461   2.797   5.994   5.583  0.4304  0.2087  0.6349
   32MOL    O60 4462   2.913   6.078   5.588 -0.0048  0.9167 -0.2127
   32MOL    H61 4463   2.856   5.865   5.423 -1.8601 -0.4489 -0.5200
   32MOL    H62 4464   2.742   5.801   5.532 -1.1657  1.5086  1.0147
   32MOL    H63 4465   2.775   5.982   5.689  2.7882 -2.1163  0.9114
   32MOL    H64 4466   2.944   6.081   5.498  1.6261 -0.9090  0.2662
   32MOL    C65 4467   2.686   6.069   5.504 -0.4750  0.7812  0.3783
   32MOL    C66 4468   2.634   6.193   5.579  0.1520 -0.8842 -0.3235
   32MOL    O67 4469   2.565   6.284   5.484  0.5989 -0.5512  0.3818
   32MOL    H68 4470   2.715   6.102   5.404 -0.3252  2.2623  0.9119
   32MOL    H69 4471   2.608   5.996   5.484 -0.0652  0.1099  1.2219
   32MOL    H70 4472   2.718   6.252   5.617  0.3278 -0.9788 -0.5629
   32MOL    H71 4473   2.621   6.300   5.410  0.1855 -1.7395 -0.2013
   32MOL    C72 4474   2.535   6.150   5.693  0.9646 -0.1195 -0.3931
   32MOL    C73 4475   2.467   6.260   5.779  0.7926 -0.2854 -0.1883
   32MOL    O74 4476   2.404   6.357   5.695  0.0701 -0.5006 -0.2123
   32MOL    H75 4477   2.461   6.082   5.651  0.5460  1.2882 -1.9610
   32MOL    H76 4478   2.584   6.076   5.756 -0.3391 -0.6914 -0.0303
   32MOL    H77 4479   2.539   6.318   5.836 -0.0888  1.9066 -1.2089
   32MOL    H78 4480   2.437   6.355   5.606 -1.3092 -0.3055 -0.7344
   32MOL    C79 4481   2.364   6.193   5.876 -0.2230  1.5108 -0.3114
   32MOL    C80 4482   2.253   6.278   5.937 -0.2324  0.3916  0.0757
   32MOL    O81 4483   2.175   6.342   5.838  0.4022  0.1322  0.0625
   32MOL    H82 4484   2.314   6.119   5.813 -0.6331  3.0508 -1.8215
   32MOL    H83 4485   2.418   6.146   5.958 -2.5684 -1.5091 -0.3995
   32MOL    H84 4486   2.291   6.357   6.003 -1.7556 -0.2559  1.7660
   32MOL    H85 4487   2.239   6.374   5.777 -0.0881 -1.6027 -1.4230
   32MOL    C86 4488   2.154   6.201   6.022 -0.8165  0.3122 -0.0617
   32MOL    C87 4489   2.199   6.131   6.154 -0.4062 -0.4063 -1.3768
   32MOL    O88 4490   2.238   6.229   6.259 -1.1014 -0.1358 -0.6515
   32MOL    H89 4491   2.072   6.263   6.058 -0.0149  1.7367 -0.6311
   32MOL    H90 4492   2.127   6.116   5.958 -0.0134 -0.2359  0.3211
   32MOL    H91 4493   2.293   6.079   6.137 -0.9185 -1.2993 -1.5191
   32MOL    H92 4494   2.221   6.171   6.332 -0.9634 -1.1025 -1.3811
   32MOL    C93 4495   2.081   6.045   6.202  0.5040  0.4723  0.3154
   32MOL    C94 4496   2.106   5.967   6.329  0.2302  0.0264 -0.2307
   32MOL    O95 4497   2.121   6.063   6.434 -0.3894  0.0711  0.4171
   32MOL    H96 4498   1.994   6.107   6.226  0.8149  1.0933 -0.1517
   32MOL    H97 4499   2.065   5.970   6.125  0.9172 -0.5253  1.1919
   32MOL    H98 4500   2.198   5.909   6.317 -0.2322 -0.4812 -1.4101
   32MOL    H99 4501   2.143   6.016   6.513  3.0523  1.2468  0.2402
   32MOL   C100 4502   1.984   5.887   6.370  0.1695  0.0750  0.4477
   32MOL   C101 4503   1.959   5.751   6.297  0.4368 -0.4181  0.0609
   32MOL   O102 4504   2.066   5.664   6.329  0.2702  0.1923  0.2099
   32MOL   H103 4505   1.991   5.872   6.478 -0.2154 -0.0648  0.4556
   32MOL   H104 4506   1.899   5.953   6.355  0.2523 -0.3307 -2.0407
   32MOL   H105 4507   1.948   5.756   6.189 -1.7619 -2.1065  0.1670
   32MOL   H106 4508   2.033   5.575   6.333  0.4337  0.1660  1.2691
   32MOL   C107 4509   1.840   5.679   6.364 -0.2387  0.0943 -0.1708
   32MOL   C108 4510   1.809   5.540   6.293 -0.2274  0.2875  0.1575
   32MOL   O109 4511   1.908   5.439   6.329  0.6870 -0.5576  0.0088
   32MOL   H110 4512   1.859   5.663   6.470 -1.3414  1.2202  0.2008
   32MOL   H111 4513   1.760   5.752   6.364 -0.5134 -0.1966  0.6932
   32MOL   H112 4514   1.804   5.570   6.189 -0.8821 -1.7271 -0.4076
   32MOL   H113 4515   1.882   5.361   6.282 -3.4602  0.3635  0.5825
   32MOL   C114 4516   1.678   5.470   6.329 -0.2616  0.0976 -0.2625
   32MOL   C115 4517   1.617   5.386   6.218  0.0630 -0.7569  0.1773
   32MOL   O116 4518   1.698   5.276   6.188 -0.3500  0.9743 -0.4574
   32MOL   H117 4519   1.670   5.423   6.427 -0.9049 -0.3833 -0.5434
   32MOL   H118 4520   1.607   5.550   6.351 -1.0618 -1.1172  1.6995
   32MOL   H119 4521   1.608   5.431   6.119  1.1620  1.3965  1.0137
   32MOL   H120 4522   1.695   5.212   6.257 -0.9259  0.8991 -0.5479
   32MOL   C121 4523   1.482   5.331   6.274  0.2808 -0.9974  0.5732
   32MOL   C122 4524   1.375   5.314   6.160 -0.4192 -0.5630 -0.5138
   32MOL   O123 4525   1.266   5.258   6.232  0.0042  0.0937 -0.5519
   32MOL   H124 4526   1.493   5.247   6.343 -0.0086 -1.0504  0.5557
   32MOL   H125 4527   1.436   5.403   6.342 -1.6561  0.2676 -1.9829
   32MOL   H126 4528   1.414   5.245   6.085  1.2294  1.9232 -2.0282
   32MOL   H127 4529   1.246   5.313   6.306  0.9754  1.2119 -1.1046
   32MOL   C128 4530   1.339   5.448   6.089 -0.1784  0.3438  0.3813
   32MOL   C129 4531   1.241   5.440   5.969  1.2892  0.6114  0.1978
   32MOL   O130 4532   1.112   5.427   6.035  0.3214  0.3014  0.0494
   32MOL   H131 4533   1.314   5.532   6.153  0.0805  0.8373 -0.1613
   32MOL   H132 4534   1.429   5.477   6.035 -0.3281  0.7197  0.3301
   32MOL   H133 4535   1.263   5.350   5.911 -1.1755  0.1918 -0.1160
   32MOL   H134 4536   1.119   5.364   6.105 -0.0540 -0.4190 -0.5670
   32MOL   C135 4537   1.246   5.563   5.884 -0.3941 -0.0921 -0.2484
   32MOL   C136 4538   1.158   5.590   5.758  0.0214  0.5042 -0.2598
   32MOL   O137 4539   1.199   5.712   5.694 -0.2990 -0.4247  0.3093
   32MOL   H138 4540   1.236   5.646   5.954 -0.5504 -0.9524  0.7619
   32MOL   H139 4541   1.345   5.573   5.839 -0.2755 -0.8765 -0.1761
   32MOL   H140 4542   1.051   5.578   5.770  0.1885  0.9077  1.7886
   32MOL   H141 4543   1.270   5.692   5.634 -0.1039  0.9873  0.0316
   32MOL   H142 4544   1.178   5.525   5.672 -2.6820  1.6441 -1.8009
   33MOL     C1 4545   6.936   4.227   6.099 -0.8212  0.4875  0.6131
   33MOL     C2 4546   7.005   4.325   5.997  0.3158 -0.3887 -0.3422
   33MOL     O3 4547   6.895   4.406   5.954 -0.0588 -0.3469 -0.6696
   33MOL     H4 4548   6.993   4.138   6.127  1.5894  1.6567 -0.3861
   33MOL     H5 4549   6.844   4.185   6.057  0.2614  0.0633 -1.4246
   33MOL     H6 4550   7.051   4.270   5.915 -0.4240 -2.0375  0.3177
   33MOL     H7 4551   6.921   4.490   5.991 -0.9597 -1.8651  3.7834
   33MOL     H8 4552   6.898   4.279   6.187 -2.3520 -1.2129  0.9764
   33MOL     C9 4553   7.110   4.409   6.064 -0.9419 -0.2447  0.2294
   33MOL    C10 4554   7.173   4.526   5.982  0.5371 -0.3173  0.0830
   33MOL    O11 4555   7.084   4.629   6.013  0.0645 -0.7959  0.0312
   33MOL    H12 4556   7.083   4.439   6.165 -1.5447  0.0341 -0.0159
   33MOL    H13 4557   7.189   4.335   6.074 -0.8765 -0.3114 -0.7353
   33MOL    H14 4558   7.172   4.501   5.876  0.6779 -1.8398  0.4343
   33MOL    H15 4559   7.070   4.680   5.935 -1.1278 -2.1835 -0.6987
   33MOL    C16 4560   7.314   4.574   6.027 -0.1467  0.5556 -0.2645
   33MOL    C17 4561   7.424   4.472   5.990 -0.0887 -0.1744  0.2025
   33MOL    O18 4562   7.415   4.441   5.852 -0.3064  0.5284 -0.1516
   33MOL    H19 4563   7.338   4.672   5.985 -0.5965  0.5667 -0.4944
   33MOL    H20 4564   7.319   4.597   6.133  1.8294 -0.5447 -0.0911
   33MOL    H21 4565   7.392   4.380   6.038 -0.3536  0.2236  0.7907
   33MOL    H22 4566   7.350   4.374   5.838  0.0583  0.2942 -0.7935
   33MOL    C23 4567   0.056   4.507   6.014 -0.2171  0.0294  0.5652
   33MOL    C24 4568   0.088   4.594   6.130  0.1347  0.4877 -0.0082
   33MOL    O25 4569   0.056   4.521   6.240 -0.5456 -0.2487  0.0026
   33MOL    H26 4570   0.106   4.411   6.001  0.4659  0.4113  0.3487
   33MOL    H27 4571   0.105   4.549   5.926 -0.6329  0.8515  0.7230
   33MOL    H28 4572   0.027   4.684   6.139 -2.3545 -1.4380  3.3118
   33MOL    H29 4573   0.097   4.436   6.229  0.2368 -0.0185  1.0489
   33MOL    C30 4574   0.232   4.626   6.131 -0.4894  0.5825 -0.5832
   33MOL    C31 4575   0.276   4.746   6.223  0.3004  0.0437  0.4893
   33MOL    O32 4576   0.382   4.706   6.304  0.2331 -0.0786  0.0701
   33MOL    H33 4577   0.278   4.532   6.159  1.9686  1.8094 -0.4017
   33MOL    H34 4578   0.267   4.648   6.030  0.6525 -1.2348 -0.5959
   33MOL    H35 4579   0.192   4.781   6.283  1.7855  1.4934  1.7564
   33MOL    H36 4580   0.345   4.696   6.391  2.4518  1.3757  1.2531
   33MOL    C37 4581   0.326   4.876   6.150  0.4250 -0.1623  0.5960
   33MOL    C38 4582   0.207   4.948   6.086 -0.1710 -0.3830 -0.6950
   33MOL    O39 4583   0.136   5.017   6.193  0.3315  0.2615 -0.2488
   33MOL    H40 4584   0.389   4.942   6.209 -0.2252  1.4811 -0.5251
   33MOL    H41 4585   0.392   4.841   6.071  0.1336  1.2289 -0.2742
   33MOL    H42 4586   0.131   4.880   6.049 -0.4797 -0.7684  0.6399
   33MOL    H43 4587   0.191   5.077   6.240  2.1026 -0.5836 -1.1992
   33MOL    C44 4588   0.246   5.052   5.981 -0.0153 -0.3794  0.4147
   33MOL    C45 4589   0.120   5.103   5.902  0.0409 -0.2237  0.9323
   33MOL    O46 4590   0.055   5.197   5.981 -0.2788 -0.3502 -0.1932
   33MOL    H47 4591   0.306   5.137   6.013 -0.9066 -0.2747  1.8255
   33MOL    H48 4592   0.315   5.001   5.915  1.4883  0.8262  1.0308
   33MOL    H49 4593   0.057   5.020   5.871  0.5181  0.2383 -1.3639
   33MOL    H50 4594   0.052   5.173   6.072 -2.3692  2.0680  0.4351
   33MOL    C51 4595   0.134   5.175   5.770  0.1808  0.3237  0.5839
   33MOL    C52 4596   0.232   5.090   5.670 -0.0541 -0.3796  0.8238
   33MOL    O53 4597   0.176   4.956   5.656 -0.2890  0.3662 -0.2331
   33MOL    H54 4598   0.035   5.180   5.725  0.0664  2.9378  1.0438
   33MOL    H55 4599   0.182   5.272   5.783 -1.0208  1.2962 -1.8482
   33MOL    H56 4600   0.331   5.085   5.714  0.3282  0.2585  0.0442
   33MOL    H57 4601   0.245   4.898   5.628 -0.6148 -0.4179  0.5619
   33MOL    C58 4602   0.239   5.156   5.536  0.0788 -0.0660 -0.0369
   33MOL    C59 4603   0.349   5.128   5.428  0.1842 -0.6042 -0.9662
   33MOL    O60 4604   0.285   5.146   5.301  0.0080  0.8243 -0.5285
   33MOL    H61 4605   0.138   5.161   5.494 -0.5831  0.4113  1.5870
   33MOL    H62 4606   0.261   5.258   5.565 -0.5864  0.2423 -0.5978
   33MOL    H63 4607   0.373   5.022   5.438  0.5854 -0.3043  1.7019
   33MOL    H64 4608   0.195   5.123   5.317 -0.4547  2.8297 -0.1903
   33MOL    C65 4609   0.472   5.224   5.445  0.1604  0.3068  0.4903
   33MOL    C66 4610   0.589   5.176   5.373  0.2281 -0.3784 -0.2300
   33MOL    O67 4611   0.685   5.276   5.356 -0.3088 -0.0138  0.3384
   33MOL    H68 4612   0.455   5.318   5.392 -2.2779 -0.5220 -0.2412
   33MOL    H69 4613   0.480   5.237   5.552  1.9669 -1.5598  0.6285
   33MOL    H70 4614   0.552   5.157   5.272  0.6735  1.7844 -0.8244
   33MOL    H71 4615   0.737   5.255   5.281 -2.0386 -1.2220 -0.5358
   33MOL    C72 4616   0.650   5.043   5.429 -0.5738  0.1107 -0.4979
   33MOL    C73 4617   0.774   4.986   5.355 -0.1953  0.2179  0.3802
   33MOL    O74 4618   0.845   4.900   5.439  0.1203  0.2351  0.3311
   33MOL    H75 4619   0.684   5.078   5.526 -1.6671 -2.8023  0.9785
   33MOL    H76 4620   0.580   4.960   5.434  2.8344 -2.7810  1.5211
   33MOL    H77 4621   0.843   5.070   5.352 -0.2200  0.2304  0.1366
   33MOL    H78 4622   0.801   4.820   5.462 -0.3436  0.6299  0.8337
   33MOL    C79 4623   0.759   4.922   5.219 -0.0399 -0.1245  0.3805
   33MOL    C80 4624   0.805   5.008   5.107 -0.0875 -0.3742 -0.0464
   33MOL    O81 4625   0.726   5.130   5.104 -0.0253  0.3869 -0.1094
   33MOL    H82 4626   0.821   4.832   5.218 -0.3230 -0.3311  1.7783
   33MOL    H83 4627   0.661   4.876   5.215  0.4715 -1.1901 -0.3250
   33MOL    H84 4628   0.780   4.964   5.010 -2.0430 -0.3099  0.4137
   33MOL    H85 4629   0.638   5.099   5.087  1.1211 -3.2581  0.0223
   33MOL    C86 4630   0.964   5.031   5.093  0.0842 -0.1639 -0.1334
   33MOL    C87 4631   1.048   4.910   5.077  0.1297 -0.0629  0.3896
   33MOL    O88 4632   1.020   4.857   4.947  0.2844 -0.0227  0.5630
   33MOL    H89 4633   0.975   5.100   5.008  1.8096 -0.8079 -0.4479
   33MOL    H90 4634   0.987   5.093   5.179  1.2834 -3.6973  2.1711
   33MOL    H91 4635   1.021   4.830   5.147 -1.0617 -2.1862 -2.4055
   33MOL    H92 4636   0.952   4.792   4.959 -0.4466  0.6405  0.0860
   33MOL    C93 4637   1.200   4.939   5.088  0.0972  0.1371  0.1213
   33MOL    C94 4638   1.257   4.977   5.228 -0.1087  0.7833  0.0231
   33MOL    O95 4639   1.348   4.870   5.258 -0.2840  0.8960 -0.4567
   33MOL    H96 4640   1.248   4.848   5.054  2.8760  2.0239 -1.1913
   33MOL    H97 4641   1.231   5.011   5.013 -1.3125  0.1377 -0.4754
   33MOL    H98 4642   1.176   4.975   5.300 -0.5743 -1.8490 -0.5245
   33MOL    H99 4643   1.401   4.883   5.335 -0.0998  1.0384 -0.6097
   33MOL   C100 4644   1.325   5.112   5.233 -0.2350 -0.9580 -0.2086
   33MOL   C101 4645   1.245   5.243   5.196  0.2664  0.5091  0.5331
   33MOL   O102 4646   1.160   5.289   5.306 -0.2059 -0.4651 -0.1977
   33MOL   H103 4647   1.356   5.128   5.336 -1.2753 -1.5363  0.2057
   33MOL   H104 4648   1.417   5.098   5.176 -1.1052 -0.6134 -1.7435
   33MOL   H105 4649   1.182   5.215   5.112 -2.0321  0.3126  2.2828
   33MOL   H106 4650   1.094   5.348   5.274  0.5828  0.4268 -0.2082
   33MOL   C107 4651   1.339   5.348   5.137 -0.4820  0.2524  0.6094
   33MOL   C108 4652   1.438   5.411   5.234 -1.0470 -0.5383 -0.3724
   33MOL   O109 4653   1.547   5.471   5.159 -0.0539 -0.8304 -0.1664
   33MOL   H110 4654   1.394   5.313   5.050  0.6016  1.9442  0.5712
   33MOL   H111 4655   1.273   5.424   5.096  1.3019  2.1718  1.1673
   33MOL   H112 4656   1.480   5.332   5.296 -0.3448  1.1208  1.3330
   33MOL   H113 4657   1.580   5.399   5.106 -0.0003  1.8911 -4.0429
   33MOL   C114 4658   1.381   5.524   5.333 -0.6516  0.9474 -0.7901
   33MOL   C115 4659   1.468   5.585   5.443 -0.5698 -0.6031  0.2694
   33MOL   O116 4660   1.402   5.689   5.511  0.2014  0.0980 -0.4244
   33MOL   H117 4661   1.358   5.610   5.271 -0.7854  1.0986 -0.5307
   33MOL   H118 4662   1.292   5.491   5.386  0.2685 -0.4673 -0.0867
   33MOL   H119 4663   1.558   5.624   5.397 -1.3374  1.0149  0.0798
   33MOL   H120 4664   1.385   5.763   5.455 -0.9225  1.1939  1.3041
   33MOL   C121 4665   1.512   5.482   5.541  0.3374 -0.0625 -0.4978
   33MOL   C122 4666   1.594   5.529   5.664  0.3246  0.0957  1.5336
   33MOL   O123 4667   1.572   5.438   5.772 -0.1992 -0.0486 -0.3410
   33MOL   H124 4668   1.434   5.414   5.576  0.9386  0.4468  1.9873
   33MOL   H125 4669   1.580   5.417   5.485  0.0167 -1.7567  1.0327
   33MOL   H126 4670   1.549   5.628   5.677 -1.6386 -0.5850  0.1418
   33MOL   H127 4671   1.479   5.426   5.785 -0.2446 -0.4790 -1.0524
   33MOL   C128 4672   1.747   5.549   5.635  0.5619  0.0544  0.1297
   33MOL   C129 4673   1.827   5.595   5.758 -0.9814 -0.1332 -0.7651
   33MOL   O130 4674   1.837   5.488   5.847  0.2190 -0.1081 -0.0218
   33MOL   H131 4675   1.786   5.453   5.599  0.5075  0.4746 -1.0686
   33MOL   H132 4676   1.752   5.625   5.557  3.0272  0.8056  0.9819
   33MOL   H133 4677   1.779   5.680   5.807 -1.5533 -0.3479 -0.9459
   33MOL   H134 4678   1.752   5.447   5.848  1.2611 -2.3659  0.3180
   33MOL   C135 4679   1.967   5.647   5.716 -0.7432 -0.1314  0.5130
   33MOL   C136 4680   2.046   5.706   5.842 -0.0357  0.0462 -0.5306
   33MOL   O137 4681   2.175   5.758   5.806 -0.7888 -0.0689 -0.1231
   33MOL   H138 4682   2.034   5.569   5.680 -1.2428 -0.3474  0.0576
   33MOL   H139 4683   1.957   5.721   5.637  0.9727 -0.0358  0.3602
   33MOL   H140 4684   2.068   5.617   5.901 -0.9296 -1.1107 -1.8943
   33MOL   H141 4685   2.220   5.695   5.752 -0.5124  0.5859 -0.6575
   33MOL   H142 4686   1.980   5.778   5.891 -0.4941 -1.3060  0.8544
   34MOL     C1 4687   5.987   6.409   3.873 -0.2239  0.4287  0.2835
   34MOL     C2 4688   6.060   6.546   3.888 -0.4214 -0.3683  1.1974
   34MOL     O3 4689   6.112   6.580   3.755  0.4295 -0.3735  0.2072
   34MOL     H4 4690   6.060   6.348   3.820 -0.6834 -1.3510  1.6486
   34MOL     H5 4691   5.904   6.413   3.802  1.1097  1.4283 -1.2732
   34MOL     H6 4692   6.148   6.545   3.952  1.6120 -0.8115 -1.4935
   34MOL     H7 4693   6.148   6.667   3.751  1.3039 -0.8428 -3.9780
   34MOL     H8 4694   5.960   6.365   3.969  0.4048  0.3458  0.4223
   34MOL     C9 4695   5.960   6.667   3.908 -0.4187  0.4087 -0.1796
   34MOL    C10 4696   5.887   6.674   4.053 -0.2382  0.4115 -0.9118
   34MOL    O11 4697   5.986   6.701   4.152  0.4655  0.1833 -0.4758
   34MOL    H12 4698   5.999   6.767   3.894  0.3246  0.1254 -0.1678
   34MOL    H13 4699   5.879   6.657   3.835  0.0116 -3.0689 -0.2584
   34MOL    H14 4700   5.853   6.574   4.079 -1.8080  0.5951 -2.1956
   34MOL    H15 4701   6.025   6.617   4.174 -0.3988 -0.3858 -1.0489
   34MOL    C16 4702   5.781   6.778   4.078 -0.4439 -0.0227 -0.3021
   34MOL    C17 4703   5.640   6.750   4.009  0.3129 -0.0653  0.1229
   34MOL    O18 4704   5.589   6.619   4.046 -0.3004  0.1491 -0.1723
   34MOL    H19 4705   5.762   6.776   4.185  1.1448  0.7501  0.0078
   34MOL    H20 4706   5.817   6.875   4.042 -0.1071  0.5654  1.5821
   34MOL    H21 4707   5.646   6.751   3.900  0.6146 -0.8103  0.1288
   34MOL    H22 4708   5.661   6.562   4.065  0.7807  0.7989 -2.1831
   34MOL    C23 4709   5.532   6.851   4.054 -0.3251  0.9067  0.1486
   34MOL    C24 4710   5.385   6.829   3.992  0.0258 -0.0251 -0.0046
   34MOL    O25 4711   5.320   6.717   4.048 -0.5004  0.0288 -0.6924
   34MOL    H26 4712   5.527   6.855   4.163 -1.8280 -0.3421  0.1367
   34MOL    H27 4713   5.572   6.945   4.016  3.1025 -1.7773 -3.2762
   34MOL    H28 4714   5.397   6.806   3.886  1.3273  1.4321 -0.1947
   34MOL    H29 4715   5.392   6.657   4.050 -0.2097  0.2876 -2.4450
   34MOL    C30 4716   5.287   6.955   4.000  0.1434 -0.1792 -0.1091
   34MOL    C31 4717   5.155   6.945   3.932  0.4620  0.5738  0.4789
   34MOL    O32 4718   5.087   6.830   3.979 -0.5435  0.0805 -0.5523
   34MOL    H33 4719   5.273   6.994   4.101 -3.1986 -1.2730 -0.1119
   34MOL    H34 4720   5.340   7.041   3.958 -1.2169  1.1419  0.8367
   34MOL    H35 4721   5.167   6.953   3.824  0.6391 -0.1694  0.4444
   34MOL    H36 4722   5.153   6.763   3.987 -2.8841 -2.0026  3.1392
   34MOL    C37 4723   5.066   7.070   3.969 -0.3780 -0.6710  0.0782
   34MOL    C38 4724   5.116   7.211   3.916  0.2394  0.1420 -0.5443
   34MOL    O39 4725   5.097   7.223   3.777 -0.0078  0.3823 -0.6696
   34MOL    H40 4726   4.968   7.042   3.932 -0.2905  0.5507 -1.1091
   34MOL    H41 4727   5.061   7.082   4.078  2.3938  0.6898  0.1154
   34MOL    H42 4728   5.222   7.214   3.941 -0.4758  1.3418  2.5870
   34MOL    H43 4729   5.084   7.313   3.752  1.3065  1.2608  1.6557
   34MOL    C44 4730   5.039   7.331   3.972  0.3821  0.2325 -0.5802
   34MOL    C45 4731   5.024   7.352   4.127  0.0887 -0.8301 -0.3402
   34MOL    O46 4732   5.157   7.343   4.181 -0.1501 -0.5485  0.2927
   34MOL    H47 4733   5.090   7.416   3.927  0.4914  0.9651  0.9267
   34MOL    H48 4734   4.937   7.332   3.932 -0.0577 -0.4158  0.4996
   34MOL    H49 4735   4.967   7.275   4.180 -1.5017  0.1286 -0.6116
   34MOL    H50 4736   5.161   7.285   4.256 -0.7486  0.2050  0.9126
   34MOL    C51 4737   4.967   7.492   4.148  0.3243 -0.8854  0.3186
   34MOL    C52 4738   4.811   7.491   4.127  0.6188  0.2176  0.2154
   34MOL    O53 4739   4.758   0.016   4.251  0.1091  0.1220  0.3422
   34MOL    H54 4740   4.991   0.010   4.248  2.3202 -0.2005 -0.3941
   34MOL    H55 4741   5.007   0.046   4.078 -2.0607 -0.8048 -1.0165
   34MOL    H56 4742   4.780   7.386   4.118  0.2603  0.1878  1.5852
   34MOL    H57 4743   4.693   0.084   4.236 -0.6192 -0.5517  0.4286
   34MOL    C58 4744   4.759   0.054   4.010 -0.1274  0.0636 -0.5036
   34MOL    C59 4745   4.606   0.079   4.013 -0.4350 -0.4988 -0.9612
   34MOL    O60 4746   4.583   0.177   4.114 -0.7381  0.8897  0.1545
   34MOL    H61 4747   4.817   0.145   3.995 -2.8894  1.6916 -1.6305
   34MOL    H62 4748   4.765   7.513   3.920 -0.3423  0.9004 -1.0835
   34MOL    H63 4749   4.558   7.502   4.033 -0.9311 -0.3744 -1.5520
   34MOL    H64 4750   4.575   0.256   4.062 -1.8786  1.5893  1.3617
   34MOL    C65 4751   4.548   0.135   3.882  0.6178  0.0789 -0.5560
   34MOL    C66 4752   4.515   0.037   3.760  0.8290  0.2175 -0.2518
   34MOL    O67 4753   4.406   7.461   3.790 -0.6806  0.6085  0.0217
   34MOL    H68 4754   4.453   0.183   3.907  0.4106 -1.3272  1.4787
   34MOL    H69 4755   4.618   0.208   3.841 -0.0583  1.8342  1.3363
   34MOL    H70 4756   4.603   7.495   3.737  0.2469 -0.2225 -1.3285
   34MOL    H71 4757   4.325   7.509   3.785 -1.6097 -1.0146 -0.9464
   34MOL    C72 4758   4.463   0.105   3.628  0.5761  0.3818 -0.0310
   34MOL    C73 4759   4.570   0.174   3.541 -0.1515  0.4132 -0.1164
   34MOL    O74 4760   4.677   0.079   3.525  0.0585 -0.1222 -0.1625
   34MOL    H75 4761   4.399   0.040   3.568 -0.8946  0.5602  1.3125
   34MOL    H76 4762   4.399   0.191   3.647  0.9367  0.6905 -0.2077
   34MOL    H77 4763   4.615   0.257   3.595  1.2588 -0.1777 -0.3708
   34MOL    H78 4764   4.636   7.515   3.507 -0.6848  0.1831  0.1250
   34MOL    C79 4765   4.510   0.231   3.403 -0.2377 -0.3294  0.1423
   34MOL    C80 4766   4.605   0.311   3.308 -0.4528 -0.2074 -0.1988
   34MOL    O81 4767   4.630   0.445   3.350  0.1867 -0.5037  0.1503
   34MOL    H82 4768   4.457   0.156   3.345  0.6827 -1.1479  0.3352
   34MOL    H83 4769   4.425   0.297   3.421  0.0603  0.7295 -2.1436
   34MOL    H84 4770   4.545   0.323   3.217  1.3532  0.4830 -1.3327
   34MOL    H85 4771   4.618   0.497   3.272 -0.4912  0.9693  1.2286
   34MOL    C86 4772   4.731   0.228   3.273  0.1208 -0.1431  0.0622
   34MOL    C87 4773   4.812   0.291   3.157  0.4263 -0.0340 -0.0842
   34MOL    O88 4774   4.931   0.220   3.139 -0.1735 -0.3770 -0.4838
   34MOL    H89 4775   4.796   0.225   3.360 -0.4608  2.7313  0.6451
   34MOL    H90 4776   4.703   0.125   3.249  1.0674 -0.3838 -0.0008
   34MOL    H91 4777   4.852   0.387   3.191  0.1353  1.0160 -2.5894
   34MOL    H92 4778   4.985   0.230   3.216 -1.7908  0.9383  0.5177
   34MOL    C93 4779   4.742   0.303   3.021 -0.9445 -0.0648 -0.1849
   34MOL    C94 4780   4.678   0.185   2.947 -0.2841 -0.2886  0.1561
   34MOL    O95 4781   4.532   0.198   2.959 -0.1430  0.0952 -0.0277
   34MOL    H96 4782   4.679   0.387   3.048 -1.5017 -0.8601  1.0259
   34MOL    H97 4783   4.814   0.345   2.951  0.7426  0.1913  1.6512
   34MOL    H98 4784   4.702   0.090   2.995  0.3533 -2.0829 -3.4997
   34MOL    H99 4785   4.509   0.129   3.019  2.9081 -0.7643  0.2506
   34MOL   C100 4786   4.711   0.180   2.798 -0.1150 -0.1443 -0.0540
   34MOL   C101 4787   4.634   0.079   2.715 -0.3583 -0.5462 -0.1137
   34MOL   O102 4788   4.680   0.091   2.585 -0.2490  0.3060  0.2813
   34MOL   H103 4789   4.693   0.279   2.755 -3.3543  0.0772  1.5994
   34MOL   H104 4790   4.817   0.162   2.786 -0.3522 -0.3581 -2.0659
   34MOL   H105 4791   4.530   0.110   2.715  0.3383  1.9168 -0.8779
   34MOL   H106 4792   4.605   0.099   2.528  0.9820  1.2528 -1.2373
   34MOL   C107 4793   4.664   7.450   2.746  0.4321  1.1652  0.0420
   34MOL   C108 4794   4.559   7.362   2.670  0.3269 -0.2039 -0.4843
   34MOL   O109 4795   4.629   7.284   2.571 -0.5212 -0.0295  0.1946
   34MOL   H110 4796   4.767   7.420   2.726  0.4742  1.4073 -0.0953
   34MOL   H111 4797   4.648   7.434   2.853  1.9129  2.6308  0.4961
   34MOL   H112 4798   4.490   7.414   2.604 -0.1043 -0.8180 -0.5233
   34MOL   H113 4799   4.700   7.236   2.612  1.4096  1.7020 -0.9866
   34MOL   C114 4800   4.474   7.272   2.771 -0.0159 -0.0593  0.0500
   34MOL   C115 4801   4.387   7.354   2.863  0.5535  0.1130  0.4720
   34MOL   O116 4802   4.250   7.351   2.822 -0.3395  0.5176 -0.1863
   34MOL   H117 4803   4.412   7.200   2.718  0.6021 -0.9639  0.5200
   34MOL   H118 4804   4.531   7.196   2.826 -0.9317 -1.7559 -1.3119
   34MOL   H119 4805   4.423   7.457   2.871  1.8292 -0.4786  2.5342
   34MOL   H120 4806   4.205   7.295   2.882  0.2044 -0.8988 -1.0566
   34MOL   C121 4807   4.392   7.312   3.015 -0.0792 -0.2341  0.2141
   34MOL   C122 4808   4.504   7.373   3.097 -0.4381 -0.3016 -0.0045
   34MOL   O123 4809   4.486   7.506   3.136  0.0002 -0.3008  1.3266
   34MOL   H124 4810   4.301   7.343   3.066 -0.2891 -1.4515  0.5833
   34MOL   H125 4811   4.380   7.205   3.034 -2.1692  0.4516  3.0719
   34MOL   H126 4812   4.595   7.364   3.037 -0.5366  0.2380 -0.2368
   34MOL   H127 4813   4.402   7.513   3.179 -0.9763 -0.8488 -0.4774
   34MOL   C128 4814   4.521   7.301   3.230 -0.7208 -0.2563  0.9309
   34MOL   C129 4815   4.657   7.333   3.303  0.2189 -0.3068  0.2174
   34MOL   O130 4816   4.636   7.331   3.446  0.1773  0.7866 -0.2595
   34MOL   H131 4817   4.447   7.330   3.304 -2.7564  0.1810 -1.2130
   34MOL   H132 4818   4.524   7.194   3.209 -2.7952 -0.4372  1.5029
   34MOL   H133 4819   4.684   7.438   3.287 -5.3109  0.9241 -2.0317
   34MOL   H134 4820   4.610   7.242   3.464 -2.0081  1.2971 -0.6205
   34MOL   C135 4821   4.771   7.234   3.255  0.5042 -0.1894  0.4394
   34MOL   C136 4822   4.911   7.270   3.299  0.0044  0.5205  0.8985
   34MOL   O137 4823   5.005   7.167   3.280 -0.5010  0.1760 -0.0578
   34MOL   H138 4824   4.747   7.135   3.292  0.0435  0.0770  0.8507
   34MOL   H139 4825   4.780   7.234   3.146  0.8785  2.6517  0.4294
   34MOL   H140 4826   4.914   7.301   3.404  0.0713  4.1902 -0.1082
   34MOL   H141 4827   5.004   7.115   3.359 -0.4181  1.4393  0.8102
   34MOL   H142 4828   4.938   7.364   3.251 -0.3164  0.7872  1.2248
   35MOL     C1 4829   3.023   7.519   3.054 -0.2323  0.4607 -0.0785
   35MOL     C2 4830   2.945   0.045   2.930 -0.4194 -0.0768  0.3138
   35MOL     O3 4831   3.007   7.490   2.829 -0.0984 -0.1124 -0.0105
   35MOL     H4 4832   3.021   7.412   3.074 -0.7774  0.0131 -2.4718
   35MOL     H5 4833   2.985   0.062   3.135 -0.1974 -0.2965  0.5272
   35MOL     H6 4834   2.956   0.154   2.926  0.7600 -0.0647  2.6702
   35MOL     H7 4835   2.989   0.021   2.751  2.3953  0.0339 -0.5427
   35MOL     H8 4836   3.127   0.027   3.036  0.4892  0.7424  3.9896
   35MOL     C9 4837   2.793   0.014   2.921  0.1834 -0.2986  0.8280
   35MOL    C10 4838   2.703   0.076   3.025  0.0136 -0.1652  0.1430
   35MOL    O11 4839   2.710   0.219   3.007 -0.8229 -0.1028 -0.2531
   35MOL    H12 4840   2.762   0.037   2.819  1.4919 -3.1119 -0.2744
   35MOL    H13 4841   2.788   7.426   2.939  1.2388 -0.4549  0.2257
   35MOL    H14 4842   2.730   0.049   3.127  3.1232  2.2310  0.0481
   35MOL    H15 4843   2.761   0.246   3.082  0.1575 -1.9154 -0.2203
   35MOL    C16 4844   2.560   0.027   3.013 -0.3430  0.9145 -0.1019
   35MOL    C17 4845   2.455   0.082   3.101 -0.1399  0.7425 -0.2531
   35MOL    O18 4846   2.445   0.218   3.061  0.2162  0.8993 -0.2759
   35MOL    H19 4847   2.522   0.034   2.912 -0.4501 -3.1153 -0.4570
   35MOL    H20 4848   2.564   7.439   3.032 -0.0653  0.6162 -1.7958
   35MOL    H21 4849   2.478   0.066   3.206 -0.9514 -1.4369 -0.3987
   35MOL    H22 4850   2.536   0.235   3.038  1.1443 -1.2809  1.5355
   35MOL    C23 4851   2.316   0.010   3.077 -0.1469  0.6366 -0.1985
   35MOL    C24 4852   2.192   0.091   3.127  0.3457  0.5484  0.8833
   35MOL    O25 4853   2.073   0.026   3.086  0.4181 -0.0909  0.0631
   35MOL    H26 4854   2.298   0.001   2.970 -1.9789  1.7033  0.0168
   35MOL    H27 4855   2.300   7.429   3.118  1.4881  0.5035  0.1542
   35MOL    H28 4856   2.207   0.187   3.078  0.9084 -0.0931 -0.2200
   35MOL    H29 4857   2.001   0.077   3.121  0.7176 -0.1356  0.7440
   35MOL    C30 4858   2.196   0.110   3.284 -0.3195 -0.6716 -0.2928
   35MOL    C31 4859   2.152   0.249   3.336  0.1278 -0.0023 -1.0413
   35MOL    O32 4860   2.095   0.242   3.468 -0.3203 -0.4095 -0.3771
   35MOL    H33 4861   2.151   0.026   3.337 -3.3140  1.5599  0.8184
   35MOL    H34 4862   2.295   0.093   3.326 -2.1676 -1.3425  4.0796
   35MOL    H35 4863   2.068   0.285   3.277 -0.5407  0.5092  0.2075
   35MOL    H36 4864   2.147   0.178   3.514  0.6764 -0.8724 -2.1422
   35MOL    C37 4865   2.267   0.346   3.344 -0.4157  0.4306 -0.0710
   35MOL    C38 4866   2.218   0.493   3.345  0.4909 -0.7984  0.1221
   35MOL    O39 4867   2.209   0.548   3.477 -0.0188  0.2020  0.4501
   35MOL    H40 4868   2.337   0.320   3.423 -2.6936 -2.1526  1.1575
   35MOL    H41 4869   2.342   0.331   3.265 -1.4065 -2.1750 -0.5542
   35MOL    H42 4870   2.118   0.509   3.305 -0.1165  2.3605  2.7076
   35MOL    H43 4871   2.155   0.490   3.528 -1.0248 -0.7614 -1.6830
   35MOL    C44 4872   2.299   0.567   3.242 -0.7355 -0.0350  1.0662
   35MOL    C45 4873   2.287   0.531   3.090 -0.6343  0.5394 -0.1143
   35MOL    O46 4874   2.151   0.515   3.055 -0.0169 -0.0637 -0.8891
   35MOL    H47 4875   2.290   0.673   3.264 -0.1089  0.8373 -2.4803
   35MOL    H48 4876   2.404   0.546   3.262 -0.5898 -0.1089  0.2644
   35MOL    H49 4877   2.338   0.438   3.066 -0.8212  0.2869  0.4514
   35MOL    H50 4878   2.150   0.455   2.982  0.5860  1.4039 -2.1355
   35MOL    C51 4879   2.348   0.648   3.006  0.1456  0.8179  0.3543
   35MOL    C52 4880   2.435   0.605   2.885 -0.1332  0.3194 -0.2141
   35MOL    O53 4881   2.464   0.723   2.810  0.6190 -0.4411  0.3808
   35MOL    H54 4882   2.272   0.712   2.962 -1.0303 -0.0931  1.0290
   35MOL    H55 4883   2.421   0.701   3.068  1.6144 -0.2166 -0.4805
   35MOL    H56 4884   2.375   0.537   2.824 -2.3051  2.1428 -0.1975
   35MOL    H57 4885   2.471   0.704   2.718  0.4655  1.4781 -0.0411
   35MOL    C58 4886   2.567   0.536   2.937 -0.1580  0.7152 -0.3999
   35MOL    C59 4887   2.667   0.509   2.827  0.6006 -0.1099  0.0577
   35MOL    O60 4888   2.788   0.491   2.897  0.5452  0.4823  0.2185
   35MOL    H61 4889   2.621   0.606   3.001  2.5555 -0.4137 -1.3747
   35MOL    H62 4890   2.541   0.440   2.981 -1.1618 -0.0916 -2.6903
   35MOL    H63 4891   2.683   0.599   2.767  2.5951 -2.4749 -3.1219
   35MOL    H64 4892   2.768   0.409   2.939  0.6923  0.5333  0.3876
   35MOL    C65 4893   2.639   0.389   2.734 -0.0694 -0.0283 -0.6150
   35MOL    C66 4894   2.740   0.377   2.614  0.0914 -0.1783  0.1260
   35MOL    O67 4895   2.748   0.245   2.571  0.4339  0.5447  0.2480
   35MOL    H68 4896   2.629   0.304   2.803  0.9958  1.2421  1.1441
   35MOL    H69 4897   2.534   0.397   2.705 -0.6606 -1.1393  1.0853
   35MOL    H70 4898   2.838   0.411   2.647  1.3896 -1.6107 -2.1786
   35MOL    H71 4899   2.665   0.201   2.582  0.5024  0.0514 -1.0446
   35MOL    C72 4900   2.710   0.475   2.499 -0.3709 -0.3522 -0.0085
   35MOL    C73 4901   2.821   0.475   2.387 -0.3170  0.6040 -0.3491
   35MOL    O74 4902   2.794   0.353   2.314 -0.4736  0.1242 -0.4773
   35MOL    H75 4903   2.608   0.466   2.462 -0.7855  0.5943  0.8744
   35MOL    H76 4904   2.699   0.569   2.554 -0.1757 -0.8527  0.8998
   35MOL    H77 4905   2.913   0.479   2.444 -0.7800  0.4580  0.4140
   35MOL    H78 4906   2.791   0.282   2.376 -0.1511  1.0085  0.5704
   35MOL    C79 4907   2.805   0.585   2.281  0.2547 -0.2153  0.3121
   35MOL    C80 4908   2.939   0.617   2.200 -0.8482  0.0669  0.9079
   35MOL    O81 4909   2.905   0.653   2.066  0.0220  0.5606  0.0586
   35MOL    H82 4910   2.716   0.570   2.220  1.2189  0.8394 -1.4072
   35MOL    H83 4911   2.772   0.671   2.339  0.8009 -0.5223  1.0943
   35MOL    H84 4912   3.008   0.533   2.210 -1.6244 -0.4530  1.9291
   35MOL    H85 4913   2.990   0.654   2.025  0.9655 -1.6332  1.7983
   35MOL    C86 4914   3.005   0.742   2.250  0.2310 -0.1820  0.3651
   35MOL    C87 4915   3.072   0.751   2.387 -0.3483  0.2628  0.2265
   35MOL    O88 4916   3.171   0.860   2.392  0.2802 -0.0192 -0.1499
   35MOL    H89 4917   3.079   0.772   2.175 -1.0921 -1.7755 -1.6268
   35MOL    H90 4918   2.937   0.827   2.247 -0.6495 -0.8773  0.4703
   35MOL    H91 4919   3.124   0.658   2.414  1.0548  1.0936  0.4551
   35MOL    H92 4920   3.133   0.942   2.364  1.4299 -0.2234 -2.5030
   35MOL    C93 4921   2.973   0.778   2.492 -0.6586  0.1976 -0.5062
   35MOL    C94 4922   3.016   0.795   2.633  0.5350  0.0685 -0.9550
   35MOL    O95 4923   2.899   0.845   2.694  0.0719  0.0845  0.3845
   35MOL    H96 4924   2.902   0.854   2.459 -2.2201  0.0231  2.2608
   35MOL    H97 4925   2.914   0.687   2.499 -0.5591  0.1917  0.3360
   35MOL    H98 4926   3.098   0.865   2.648  0.7280 -0.4281  0.3920
   35MOL    H99 4927   2.910   0.823   2.786 -1.4922 -1.2090  0.2733
   35MOL   C100 4928   3.052   0.666   2.705  0.1124  0.3884 -0.9755
   35MOL   C101 4929   3.083   0.679   2.855 -0.3356  0.2195 -0.1446
   35MOL   O102 4930   2.960   0.692   2.923 -0.2145 -0.1120 -0.6209
   35MOL   H103 4931   2.975   0.592   2.683 -1.3604  1.5963 -0.0151
   35MOL   H104 4932   3.141   0.626   2.656  0.8739  0.7558  0.0766
   35MOL   H105 4933   3.146   0.767   2.871  0.0249  0.3734 -2.2699
   35MOL   H106 4934   2.895   0.635   2.885 -0.1703 -0.4381 -0.2075
   35MOL   C107 4935   3.164   0.553   2.900  0.2295  0.2362  0.8380
   35MOL   C108 4936   3.188   0.546   3.058  0.4349  0.7005 -0.3216
   35MOL   O109 4937   3.062   0.518   3.111  0.2888  0.1650 -0.3003
   35MOL   H110 4938   3.120   0.460   2.864  0.4221  0.5790 -0.3201
   35MOL   H111 4939   3.261   0.572   2.854 -0.1084  0.2918  0.1360
   35MOL   H112 4940   3.223   0.643   3.092  1.5069  0.7264 -1.4830
   35MOL   H113 4941   3.000   0.572   3.066  0.5066  1.4661  0.9158
   35MOL   C114 4942   3.289   0.444   3.113  0.5088  0.3133 -0.1512
   35MOL   C115 4943   3.434   0.457   3.069 -0.1050  0.5008 -0.3393
   35MOL   O116 4944   3.456   0.437   2.938 -0.7887 -0.3422 -0.1173
   35MOL   H117 4945   3.286   0.455   3.222 -0.9421  0.8936 -0.2355
   35MOL   H118 4946   3.262   0.341   3.091  0.7390  0.0235  0.8631
   35MOL   H119 4947   3.505   0.389   3.115 -1.1255 -1.5253 -1.6801
   35MOL   H120 4948   3.437   0.346   2.924 -0.9225 -0.1112 -1.5694
   35MOL   C121 4949   3.488   0.601   3.104 -0.1291 -0.0486  0.8501
   35MOL   C122 4950   3.528   0.616   3.254 -0.9184 -0.9757  0.1465
   35MOL   O123 4951   3.632   0.704   3.256  0.1682 -0.1342  0.3595
   35MOL   H124 4952   3.583   0.611   3.051  1.0614 -3.2936  2.2583
   35MOL   H125 4953   3.427   0.686   3.073 -0.1252 -0.9630 -1.8307
   35MOL   H126 4954   3.565   0.522   3.296 -1.9224 -0.7157  1.6580
   35MOL   H127 4955   3.665   0.709   3.168 -0.6773  1.5657  0.1314
   35MOL   C128 4956   3.410   0.670   3.338 -0.0139 -0.7081 -0.3002
   35MOL   C129 4957   3.413   0.649   3.489 -1.1090  0.4733 -0.7107
   35MOL   O130 4958   3.397   0.518   3.539  0.6073  0.6845  0.6241
   35MOL   H131 4959   3.387   0.776   3.328  1.5206 -0.4869 -1.7392
   35MOL   H132 4960   3.312   0.643   3.298 -0.8778  1.0536  0.5872
   35MOL   H133 4961   3.323   0.701   3.521  1.1577  4.5356 -0.6314
   35MOL   H134 4962   3.455   0.455   3.500 -0.5906  0.7077 -1.2741
   35MOL   C135 4963   3.534   0.718   3.560 -0.1780 -0.4094 -0.2692
   35MOL   C136 4964   3.517   0.755   3.707  0.1685  0.0514 -0.1048
   35MOL   O137 4965   3.598   0.862   3.756  0.1479 -0.0352  0.2884
   35MOL   H138 4966   3.620   0.651   3.557  0.0353 -0.0865 -2.3679
   35MOL   H139 4967   3.554   0.813   3.510  0.7605  0.6265  2.0154
   35MOL   H140 4968   3.532   0.669   3.771 -2.4623 -1.3389 -1.2892
   35MOL   H141 4969   3.604   0.857   3.850  0.8957  1.2515  0.3292
   35MOL   H142 4970   3.415   0.790   3.724 -0.5562 -0.6032 -2.8591
   36MOL     C1 4971   6.529   6.058   3.963 -0.3135  0.4463 -0.1724
   36MOL     C2 4972   6.579   5.938   4.052  0.2449 -0.3508 -0.3425
   36MOL     O3 4973   6.680   5.881   3.976  0.0686 -0.0471  0.5201
   36MOL     H4 4974   6.471   6.016   3.881  1.0477  1.8519 -1.9139
   36MOL     H5 4975   6.609   6.109   3.908  1.0816 -1.1212  0.3605
   36MOL     H6 4976   6.500   5.863   4.052  0.2379 -0.3408  0.1401
   36MOL     H7 4977   6.643   5.837   3.901  0.5877 -1.9257  1.3441
   36MOL     H8 4978   6.460   6.124   4.016 -1.9593 -0.5096 -1.0895
   36MOL     C9 4979   6.634   5.965   4.189 -0.8911 -0.2235  0.6233
   36MOL    C10 4980   6.533   6.048   4.278  0.0233 -0.3614  0.1827
   36MOL    O11 4981   6.554   6.011   4.414 -0.5769 -0.6073  0.0335
   36MOL    H12 4982   6.659   5.876   4.246 -1.6933 -1.1271 -0.4018
   36MOL    H13 4983   6.725   6.023   4.176 -1.6432  0.7924 -0.1932
   36MOL    H14 4984   6.431   6.026   4.247  0.4484 -1.4049 -0.4883
   36MOL    H15 4985   6.640   6.048   4.426 -0.4285 -1.2138  0.8024
   36MOL    C16 4986   6.551   6.202   4.272 -0.2382 -0.1709  0.1341
   36MOL    C17 4987   6.434   6.279   4.349 -0.0944  0.7722  0.0214
   36MOL    O18 4988   6.505   6.384   4.424  0.3475 -0.0882 -0.0928
   36MOL    H19 4989   6.652   6.224   4.309 -0.3505 -1.1147  1.0341
   36MOL    H20 4990   6.551   6.228   4.166 -0.5885  2.1552  0.6726
   36MOL    H21 4991   6.390   6.211   4.422  3.0610 -1.2753  0.1204
   36MOL    H22 4992   6.551   6.340   4.494  1.3492  0.6669 -0.2631
   36MOL    C23 4993   6.336   6.345   4.250 -0.1629 -0.0056 -0.2178
   36MOL    C24 4994   6.222   6.432   4.318 -0.4173  0.7853  0.5771
   36MOL    O25 4995   6.182   6.520   4.219  0.3146 -0.0240 -0.3940
   36MOL    H26 4996   6.395   6.411   4.186  1.0194  2.2834  3.0231
   36MOL    H27 4997   6.302   6.262   4.188  0.5686 -2.0004  1.9798
   36MOL    H28 4998   6.269   6.475   4.406  2.0265 -2.5718  0.9892
   36MOL    H29 4999   6.259   6.561   4.182  0.7600 -1.1317 -0.7122
   36MOL    C30 5000   6.100   6.354   4.382 -0.1765  0.0343 -0.0347
   36MOL    C31 5001   5.983   6.432   4.441 -0.2231  0.2999  0.1302
   36MOL    O32 5002   5.889   6.330   4.469 -0.0263  0.3212  0.2798
   36MOL    H33 5003   6.059   6.301   4.296  0.3995  1.2727 -1.0918
   36MOL    H34 5004   6.133   6.280   4.455  0.4621 -0.9748 -1.3208
   36MOL    H35 5005   5.942   6.508   4.375 -0.4522  0.0467 -0.0172
   36MOL    H36 5006   5.850   6.294   4.390 -0.3636  0.2122  0.4969
   36MOL    C37 5007   6.013   6.509   4.568 -0.2577 -1.0838  0.4252
   36MOL    C38 5008   5.905   6.621   4.614  0.0329 -0.4594  0.4210
   36MOL    O39 5009   5.890   6.731   4.532 -0.3018 -0.0717 -0.2753
   36MOL    H40 5010   6.035   6.442   4.650  1.5777 -0.0853  0.7678
   36MOL    H41 5011   6.101   6.568   4.545 -0.8264 -0.8590 -1.2809
   36MOL    H42 5012   5.940   6.656   4.711  0.2718  2.0351 -0.5297
   36MOL    H43 5013   5.978   6.765   4.531 -0.7174  1.0287 -0.4788
   36MOL    C44 5014   5.755   6.571   4.619  0.0176  0.1082  0.1085
   36MOL    C45 5015   5.737   6.456   4.718  0.3832 -0.4036  0.7869
   36MOL    O46 5016   5.721   6.518   4.838 -0.2038 -0.3268  0.8467
   36MOL    H47 5017   5.694   6.656   4.651 -0.0948 -0.1727  0.6333
   36MOL    H48 5018   5.721   6.553   4.517  1.1077 -2.3053  0.1375
   36MOL    H49 5019   5.834   6.407   4.727 -0.4868 -2.1913  0.6224
   36MOL    H50 5020   5.646   6.575   4.826  0.4682  0.3593 -0.1632
   36MOL    C51 5021   5.623   6.361   4.684  0.8740 -1.1066 -0.2581
   36MOL    C52 5022   5.620   6.230   4.767 -0.1687 -0.1446  0.1785
   36MOL    O53 5023   5.503   6.158   4.723 -0.2840 -0.3180 -0.6618
   36MOL    H54 5024   5.528   6.413   4.689  2.6240  2.1407  0.9077
   36MOL    H55 5025   5.636   6.338   4.579 -0.6906 -2.2049 -0.2190
   36MOL    H56 5026   5.608   6.251   4.873 -0.9450 -0.6993  0.2103
   36MOL    H57 5027   5.543   6.079   4.690 -0.5130 -1.3614  1.4296
   36MOL    C58 5028   5.754   6.151   4.739 -0.4387 -0.1282 -0.3997
   36MOL    C59 5029   5.771   6.011   4.802  0.2729 -0.7121  0.3244
   36MOL    O60 5030   5.712   5.912   4.722  0.4567 -0.1259 -0.0838
   36MOL    H61 5031   5.757   6.139   4.630  0.5511  0.1034 -0.4043
   36MOL    H62 5032   5.844   6.209   4.761 -0.8629  0.0069  1.0407
   36MOL    H63 5033   5.719   6.016   4.898  0.4082 -1.3381  0.4290
   36MOL    H64 5034   5.693   5.834   4.771 -0.6116  0.4488  0.4260
   36MOL    C65 5035   5.907   5.951   4.822 -0.1034  0.1739  0.7389
   36MOL    C66 5036   6.004   6.037   4.913 -0.0877  0.0662 -0.5306
   36MOL    O67 5037   5.973   6.025   5.054  0.0235  0.4142  0.3726
   36MOL    H68 5038   5.905   5.848   4.857  0.8971  0.1088  0.6140
   36MOL    H69 5039   5.953   5.941   4.723 -0.4475  1.4724  0.4329
   36MOL    H70 5040   5.985   6.142   4.894  1.7523  0.5080  0.0427
   36MOL    H71 5041   6.018   5.947   5.082  1.8676  0.8304 -1.3371
   36MOL    C72 5042   6.153   6.007   4.894 -0.0860  0.0167 -0.0198
   36MOL    C73 5043   6.203   6.036   4.746  0.9024 -0.4562  0.2520
   36MOL    O74 5044   6.164   6.172   4.719 -0.1721  0.3512 -0.1260
   36MOL    H75 5045   6.216   6.064   4.962 -1.1469 -1.1486  1.9861
   36MOL    H76 5046   6.177   5.906   4.928  2.3407  0.5996  0.1526
   36MOL    H77 5047   6.146   5.965   4.686  0.1043  0.2909  0.1019
   36MOL    H78 5048   6.118   6.190   4.638  1.3654  0.4910 -0.9734
   36MOL    C79 5049   6.351   6.012   4.719 -0.2163 -0.0129 -0.3203
   36MOL    C80 5050   6.387   5.876   4.658  0.2256 -0.3388 -0.3068
   36MOL    O81 5051   6.532   5.864   4.628  0.1128  0.3096 -0.1667
   36MOL    H82 5052   6.394   6.091   4.657 -0.9551  0.2727 -0.4739
   36MOL    H83 5053   6.403   6.013   4.815  2.6733  2.1579 -1.8434
   36MOL    H84 5054   6.347   5.868   4.557  0.9210 -0.9113 -0.5408
   36MOL    H85 5055   6.539   5.912   4.548  0.4516 -2.0400 -1.6027
   36MOL    C86 5056   6.354   5.745   4.742  0.1596  0.1989 -0.0500
   36MOL    C87 5057   6.384   5.613   4.667 -0.5230  0.6050 -0.0788
   36MOL    O88 5058   6.527   5.606   4.658  0.5779  0.0413  0.1424
   36MOL    H89 5059   6.412   5.750   4.835  0.8723 -1.7916 -0.3665
   36MOL    H90 5060   6.248   5.758   4.761 -0.4879 -1.3759 -2.4200
   36MOL    H91 5061   6.358   5.636   4.564 -0.2259  0.3942 -0.2036
   36MOL    H92 5062   6.559   5.695   4.663  0.6859 -0.1307  3.0488
   36MOL    C93 5063   6.315   5.486   4.721  0.3977  0.4826  0.9199
   36MOL    C94 5064   6.339   5.362   4.636 -0.3420 -0.0490  0.1383
   36MOL    O95 5065   6.321   5.249   4.713  0.1791  0.8711 -0.3665
   36MOL    H96 5066   6.345   5.467   4.824 -1.0825 -1.8885  0.9477
   36MOL    H97 5067   6.208   5.507   4.715 -0.2193 -3.0118 -2.7484
   36MOL    H98 5068   6.445   5.350   4.613 -0.1675  1.7414 -0.1243
   36MOL    H99 5069   6.407   5.229   4.746 -0.3586  1.2621  1.3550
   36MOL   C100 5070   6.257   5.361   4.507 -0.3935  0.0125  0.0254
   36MOL   C101 5071   6.109   5.318   4.508  0.2569  0.0599  0.3493
   36MOL   O102 5072   6.031   5.433   4.535 -0.2314 -0.2639  0.8612
   36MOL   H103 5073   6.270   5.455   4.454 -1.3089 -0.7523 -1.5986
   36MOL   H104 5074   6.318   5.293   4.447 -0.7430 -3.8416  3.8185
   36MOL   H105 5075   6.092   5.249   4.591  2.2741  0.9116  1.5015
   36MOL   H106 5076   5.944   5.402   4.552 -0.7005  0.6245  0.1281
   36MOL   C107 5077   6.065   5.265   4.373  0.6293  0.3695 -0.4121
   36MOL   C108 5078   6.141   5.150   4.318  0.1212  0.0914  0.2506
   36MOL   O109 5079   6.097   5.026   4.369 -0.0114 -0.1803  0.1872
   36MOL   H110 5080   5.960   5.239   4.389  1.0812 -0.5534  1.1078
   36MOL   H111 5081   6.070   5.349   4.303 -1.7107  1.2223  0.3962
   36MOL   H112 5082   6.249   5.147   4.332  0.0568 -2.0362  0.5299
   36MOL   H113 5083   6.149   5.001   4.444  2.4032  2.0310 -0.6825
   36MOL   C114 5084   6.139   5.139   4.165 -1.0442 -0.1479  0.0829
   36MOL   C115 5085   6.244   5.239   4.093  1.0241  0.2979  0.1771
   36MOL   O116 5086   6.380   5.203   4.103  0.4844  0.2628 -0.5440
   36MOL   H117 5087   6.162   5.038   4.128 -0.3391 -0.0547  0.2564
   36MOL   H118 5088   6.039   5.155   4.125 -0.6901  1.1120 -0.3217
   36MOL   H119 5089   6.234   5.337   4.139 -0.5352  0.8478 -1.3013
   36MOL   H120 5090   6.432   5.277   4.128  1.8552 -0.0256 -2.4322
   36MOL   C121 5091   6.218   5.266   3.946 -0.1088  0.6467 -0.2294
   36MOL   C122 5092   6.186   5.138   3.864 -0.2040  0.1228 -0.0245
   36MOL   O123 5093   6.102   5.183   3.753 -0.3870 -0.2186 -0.6834
   36MOL   H124 5094   6.126   5.325   3.939 -0.3167  0.3219 -0.2533
   36MOL   H125 5095   6.304   5.316   3.902  1.0664  1.3835  2.7680
   36MOL   H126 5096   6.117   5.075   3.921  0.7688 -1.1947 -0.2719
   36MOL   H127 5097   6.020   5.223   3.777 -0.1495  0.8552 -1.6218
   36MOL   C128 5098   6.315   5.069   3.807  1.2517  0.5905 -0.8338
   36MOL   C129 5099   6.350   4.945   3.889 -0.5647  0.0897  0.2907
   36MOL   O130 5100   6.263   4.840   3.856 -0.0416 -0.3133 -0.6204
   36MOL   H131 5101   6.301   5.031   3.706 -2.2293  0.9194 -0.5405
   36MOL   H132 5102   6.388   5.150   3.803  2.3645 -0.4944 -2.8539
   36MOL   H133 5103   6.338   4.964   3.996  1.2227  0.1146  0.5085
   36MOL   H134 5104   6.211   4.824   3.934  0.9286  2.3171  0.6221
   36MOL   C135 5105   6.496   4.893   3.887 -0.2180 -0.9458 -0.1195
   36MOL   C136 5106   6.588   4.970   3.983  0.4074 -0.3814 -0.0994
   36MOL   O137 5107   6.717   4.946   3.943  0.1317 -0.3577  0.4775
   36MOL   H138 5108   6.506   4.785   3.902 -2.9823 -0.8514  3.0039
   36MOL   H139 5109   6.521   4.905   3.782 -1.8303 -1.7147 -0.5925
   36MOL   H140 5110   6.579   4.923   4.081  0.1639  0.8687  0.4801
   36MOL   H141 5111   6.739   4.855   3.955  0.2058 -0.2305  1.3878
   36MOL   H142 5112   6.567   5.076   3.997 -0.1615 -0.4212 -0.6089
   37MOL     C1 5113   1.093   3.314   2.139  0.0736  0.1110 -0.1348
   37MOL     C2 5114   0.949   3.349   2.099  0.2663 -0.3112 -0.5315
   37MOL     O3 5115   0.867   3.248   2.137  0.4503  0.4986 -0.5249
   37MOL     H4 5116   1.102   3.325   2.247  2.8037  2.1882 -0.5213
   37MOL     H5 5117   1.169   3.371   2.086 -0.9442  1.6744  0.0479
   37MOL     H6 5118   0.934   3.356   1.992 -0.1264 -2.2686 -0.6266
   37MOL     H7 5119   0.868   3.194   2.060  2.1426 -1.3053  0.7012
   37MOL     H8 5120   1.113   3.212   2.106  0.5028  0.0499  0.3008
   37MOL     C9 5121   0.896   3.479   2.162 -0.1946 -0.2658  0.0838
   37MOL    C10 5122   0.977   3.614   2.150  0.4778  0.1901 -0.9421
   37MOL    O11 5123   0.882   3.711   2.177 -0.2770 -0.2071  0.0427
   37MOL    H12 5124   0.797   3.494   2.119 -0.4080 -1.1567  0.2566
   37MOL    H13 5125   0.874   3.446   2.263  0.1369 -1.4553 -0.2285
   37MOL    H14 5126   1.016   3.624   2.049  1.4389  1.0076 -0.4892
   37MOL    H15 5127   0.843   3.724   2.092 -0.0020  2.9237  0.3563
   37MOL    C16 5128   1.094   3.632   2.253 -0.0537  0.2627 -0.2914
   37MOL    C17 5129   1.199   3.737   2.221 -0.8371 -0.4810 -0.3342
   37MOL    O18 5130   1.274   3.695   2.102 -0.0265  0.2342 -0.2108
   37MOL    H19 5131   1.063   3.647   2.356 -0.0011 -0.3902 -0.1786
   37MOL    H20 5132   1.149   3.538   2.258 -0.5438  0.0075  0.4189
   37MOL    H21 5133   1.268   3.733   2.305 -0.8734  1.0043 -0.2244
   37MOL    H22 5134   1.225   3.727   2.028  1.5511  1.3943 -0.7993
   37MOL    C23 5135   1.152   3.885   2.210 -0.2588 -0.5053 -0.7271
   37MOL    C24 5136   1.116   3.955   2.342 -0.2983  0.2166  0.8739
   37MOL    O25 5137   1.234   3.993   2.406 -0.3384  0.4068  0.5890
   37MOL    H26 5138   1.228   3.943   2.157  2.7162 -2.4618  1.2808
   37MOL    H27 5139   1.079   3.893   2.130  2.1632  0.6140 -2.9005
   37MOL    H28 5140   1.070   3.880   2.406  1.5154 -0.0053  1.9815
   37MOL    H29 5141   1.279   4.065   2.365 -0.1069  0.0962  0.2880
   37MOL    C30 5142   1.020   4.079   2.328  0.0074 -0.0544  0.5035
   37MOL    C31 5143   0.866   4.037   2.336  0.3889  0.7062  0.0968
   37MOL    O32 5144   0.831   3.994   2.461 -0.2778 -0.5645 -0.4455
   37MOL    H33 5145   1.049   4.141   2.413 -2.1044  2.3152 -0.4418
   37MOL    H34 5146   1.040   4.129   2.234  1.5331  0.9779  1.3512
   37MOL    H35 5147   0.847   3.949   2.276  1.1115 -0.0921  1.0164
   37MOL    H36 5148   0.840   3.900   2.465  3.5904 -0.2545  0.3538
   37MOL    C37 5149   0.757   4.140   2.296 -0.4929 -0.3326 -0.2078
   37MOL    C38 5150   0.612   4.084   2.280  0.3282  0.1243 -0.4049
   37MOL    O39 5151   0.526   4.185   2.234 -0.2447  0.0712  0.6479
   37MOL    H40 5152   0.754   4.219   2.370 -2.3821  0.0975 -0.7037
   37MOL    H41 5153   0.783   4.193   2.204 -0.1744  0.3940  0.3047
   37MOL    H42 5154   0.582   4.058   2.381  2.0354  0.8596  0.3024
   37MOL    H43 5155   0.514   4.254   2.296  0.6863 -1.1782  2.2749
   37MOL    C44 5156   0.586   3.966   2.175 -0.1750 -0.2706  0.0804
   37MOL    C45 5157   0.441   3.905   2.178 -0.4129  0.0769  0.1227
   37MOL    O46 5158   0.441   3.822   2.062 -0.2113  0.9958  0.1043
   37MOL    H47 5159   0.617   4.007   2.079  0.5963 -0.4899  0.2292
   37MOL    H48 5160   0.652   3.885   2.207  1.1895  1.1959  1.0960
   37MOL    H49 5161   0.376   3.992   2.172 -1.8361 -0.9587  0.4305
   37MOL    H50 5162   0.362   3.841   2.013 -0.9945 -1.4636  0.3537
   37MOL    C51 5163   0.414   3.833   2.314  0.2548 -0.1610 -0.2461
   37MOL    C52 5164   0.282   3.763   2.331 -0.0436 -0.1651  0.6796
   37MOL    O53 5165   0.297   3.705   2.459 -0.3861 -0.0441 -0.3270
   37MOL    H54 5166   0.501   3.768   2.310  2.0671  2.2222 -1.2496
   37MOL    H55 5167   0.409   3.913   2.389  0.3298  1.0491 -1.5103
   37MOL    H56 5168   0.280   3.689   2.251 -0.0998  1.3591 -0.7520
   37MOL    H57 5169   0.325   3.615   2.450 -4.0184 -1.1831 -0.8700
   37MOL    C58 5170   0.148   3.847   2.328 -1.0297  0.5711 -0.1172
   37MOL    C59 5171   0.026   3.747   2.317 -0.4096 -1.1849  1.4384
   37MOL    O60 5172   0.037   3.649   2.421 -0.2288  0.5687 -0.4012
   37MOL    H61 5173   0.150   3.915   2.413  1.0872  0.2533  0.1117
   37MOL    H62 5174   0.152   3.911   2.239  1.7378  1.2225  0.4234
   37MOL    H63 5175   0.024   3.693   2.223 -1.9371  2.0751 -0.4630
   37MOL    H64 5176   0.128   3.629   2.435 -0.9879 -2.1054  1.1679
   37MOL    C65 5177   7.404   3.805   2.326  0.0174  0.0284 -0.3063
   37MOL    C66 5178   7.373   3.926   2.236  0.7370  0.1316 -0.7691
   37MOL    O67 5179   7.360   3.888   2.110 -0.0878  0.3842  0.5757
   37MOL    H68 5180   7.324   3.732   2.332  0.3559 -0.3174  0.0782
   37MOL    H69 5181   7.393   3.855   2.422  4.6475  0.2728  0.2292
   37MOL    H70 5182   7.459   3.992   2.232  0.3735  0.6537 -0.0131
   37MOL    H71 5183   7.286   3.829   2.115  1.0915 -1.1421  0.3484
   37MOL    C72 5184   7.250   4.000   2.286  1.2956  0.1044 -0.7212
   37MOL    C73 5185   7.214   4.138   2.228  0.6202 -0.4411  0.3497
   37MOL    O74 5186   7.088   4.169   2.289 -0.3841 -0.2412  0.4473
   37MOL    H75 5187   7.166   3.931   2.276  1.5918 -0.6385  1.5544
   37MOL    H76 5188   7.264   4.029   2.390  0.5800 -0.7509 -0.3745
   37MOL    H77 5189   7.189   4.125   2.122 -0.1470 -1.5603  0.6576
   37MOL    H78 5190   7.051   4.099   2.341 -1.7189 -0.2624 -0.5087
   37MOL    C79 5191   7.302   4.265   2.257  0.6188 -0.5185  0.6759
   37MOL    C80 5192   7.387   4.309   2.143  0.0300 -0.3082 -0.9623
   37MOL    O81 5193   7.310   4.395   2.073 -1.0523  0.1975  0.3974
   37MOL    H82 5194   7.238   4.349   2.284  0.0809 -0.9950  0.9040
   37MOL    H83 5195   7.363   4.247   2.345 -0.5715 -0.5847  1.5047
   37MOL    H84 5196   7.412   4.222   2.082  1.9152  0.8055 -1.8426
   37MOL    H85 5197   7.304   4.358   1.986  0.1657  1.2226 -0.1433
   37MOL    C86 5198   7.512   4.384   2.191  1.0533 -0.0380  0.4594
   37MOL    C87 5199   0.100   4.299   2.265 -0.2890 -0.2261  0.5701
   37MOL    O88 5200   0.167   4.215   2.173 -0.1887 -0.2811  0.4735
   37MOL    H89 5201   0.044   4.436   2.110 -0.4137 -0.9140 -1.0852
   37MOL    H90 5202   7.470   4.469   2.246  1.0320 -0.8624  1.7475
   37MOL    H91 5203   0.053   4.234   2.339  0.7141  0.0625  1.4663
   37MOL    H92 5204   0.223   4.266   2.116  0.8288  0.5869  2.2187
   37MOL    C93 5205   0.211   4.384   2.330  0.5222 -0.6159 -0.0187
   37MOL    C94 5206   0.298   4.307   2.426 -0.9989  0.1301  0.3692
   37MOL    O95 5207   0.435   4.351   2.434 -0.2378 -0.1686  0.0612
   37MOL    H96 5208   0.268   4.405   2.239  0.2306 -1.5971 -0.4400
   37MOL    H97 5209   0.161   4.468   2.378  0.4625 -0.4415 -0.3845
   37MOL    H98 5210   0.303   4.203   2.395  1.9741  0.7074 -1.2222
   37MOL    H99 5211   0.447   4.415   2.503  0.8510  0.8841 -1.0649
   37MOL   C100 5212   0.237   4.295   2.564  1.5412  0.4433 -0.0714
   37MOL   C101 5213   0.314   4.214   2.669  0.8005 -0.4064  0.0606
   37MOL   O102 5214   0.247   4.228   2.789 -0.3733 -0.1902  0.1551
   37MOL   H103 5215   0.223   4.394   2.606 -3.4703 -0.0841 -0.2369
   37MOL   H104 5216   0.136   4.255   2.555  1.1194  1.4990 -0.0187
   37MOL   H105 5217   0.410   4.262   2.688 -0.0200  0.9744  0.6850
   37MOL   H106 5218   0.317   4.221   2.852  0.3892 -0.2207 -0.6874
   37MOL   C107 5219   0.326   4.061   2.642 -0.3526  0.8963 -0.5518
   37MOL   C108 5220   0.389   3.974   2.752  0.1708 -0.0484 -0.3017
   37MOL   O109 5221   0.365   3.838   2.723  0.3454  0.1365 -0.3927
   37MOL   H110 5222   0.227   4.019   2.626 -0.8506  1.5386  0.8010
   37MOL   H111 5223   0.380   4.046   2.549 -3.3342 -1.0782 -2.0293
   37MOL   H112 5224   0.343   3.993   2.849  1.0857 -0.1777  0.1596
   37MOL   H113 5225   0.346   3.832   2.630  2.4253  0.0670 -0.8410
   37MOL   C114 5226   0.540   3.994   2.756 -0.2102  0.7207 -0.6575
   37MOL   C115 5227   0.604   3.935   2.881 -0.1234  0.0479 -0.1519
   37MOL   O116 5228   0.588   3.797   2.896 -0.7028 -0.7041  0.3423
   37MOL   H117 5229   0.575   3.955   2.661 -1.7672  0.2054 -1.0330
   37MOL   H118 5230   0.562   4.100   2.747  0.6051  0.6787  0.6976
   37MOL   H119 5231   0.560   3.985   2.968  0.2170  0.7328 -0.3731
   37MOL   H120 5232   0.506   3.785   2.851 -0.0335  1.4754 -1.5777
   37MOL   C121 5233   0.758   3.959   2.892  0.3400 -0.2619 -0.0962
   37MOL   C122 5234   0.804   4.098   2.931 -0.1635 -0.1757  0.5452
   37MOL   O123 5235   0.800   4.119   3.068  0.2679 -0.3152  0.2582
   37MOL   H124 5236   0.803   3.879   2.951 -1.3778 -0.4011  1.0504
   37MOL   H125 5237   0.802   3.939   2.794 -0.5028  1.0963 -0.7665
   37MOL   H126 5238   0.744   4.178   2.889 -0.9073 -0.8258  0.3463
   37MOL   H127 5239   0.713   4.127   3.104  0.5915  2.4708  0.5052
   37MOL   C128 5240   0.947   4.131   2.888 -0.3694 -0.3492 -0.1208
   37MOL   C129 5241   0.983   4.116   2.744  0.5713 -0.2469 -0.4345
   37MOL   O130 5242   0.884   4.182   2.661 -0.5097  0.5412  0.1130
   37MOL   H131 5243   0.991   4.217   2.938  0.9305 -1.5481  0.8511
   37MOL   H132 5244   1.013   4.060   2.937  1.0722  0.5910 -0.6534
   37MOL   H133 5245   0.982   4.011   2.714 -2.8173 -0.4287  0.1569
   37MOL   H134 5246   0.878   4.120   2.591 -0.5103 -1.2886  1.7021
   37MOL   C135 5247   1.125   4.161   2.711 -0.0909  0.4698  0.2307
   37MOL   C136 5248   1.238   4.070   2.758 -0.1643  0.1298 -0.3033
   37MOL   O137 5249   1.217   3.948   2.691 -0.2638  0.3009 -0.8840
   37MOL   H138 5250   1.138   4.165   2.603 -1.7669  2.1770  0.0601
   37MOL   H139 5251   1.159   4.251   2.761  1.8881  0.5691 -1.2329
   37MOL   H140 5252   1.236   4.045   2.864 -1.8194 -1.2983 -0.6581
   37MOL   H141 5253   1.222   3.966   2.598  2.9288 -1.2651 -1.0804
   37MOL   H142 5254   1.334   4.112   2.729  0.5598 -2.4050 -1.7110
   38MOL     C1 5255   4.057   4.570   6.671 -0.1507  0.7301  0.4796
   38MOL     C2 5256   4.114   4.433   6.620  0.0711 -0.7049 -0.4373
   38MOL     O3 5257   4.201   4.383   6.716  0.1334  0.0653 -0.2963
   38MOL     H4 5258   3.982   4.613   6.605  0.3479  0.0689 -0.5490
   38MOL     H5 5259   4.126   4.652   6.691 -0.4819  1.3825 -0.9869
   38MOL     H6 5260   4.180   4.454   6.535  0.4846 -1.4689 -0.3079
   38MOL     H7 5261   4.265   4.326   6.675  1.6479  1.7630 -0.3645
   38MOL     H8 5262   3.995   4.546   6.757  1.3142 -0.0564  1.3460
   38MOL     C9 5263   4.005   4.322   6.602  0.2998  0.1385  0.2442
   38MOL    C10 5264   3.909   4.345   6.483  0.5823 -0.2400  0.3927
   38MOL    O11 5265   3.974   4.329   6.361 -0.2192  0.0366  0.5644
   38MOL    H12 5266   4.049   4.223   6.605  1.1887  0.5460  1.0505
   38MOL    H13 5267   3.950   4.334   6.695 -1.8721  2.0286 -1.2165
   38MOL    H14 5268   3.880   4.450   6.485 -3.3950 -1.2061 -1.1988
   38MOL    H15 5269   3.916   4.361   6.295 -1.3071 -1.2768  0.8551
   38MOL    C16 5270   3.785   4.248   6.493  0.2049 -0.2788 -0.1983
   38MOL    C17 5271   3.652   4.313   6.504  0.7910 -0.5128  0.0502
   38MOL    O18 5272   3.617   4.364   6.377 -1.0467  0.1438  0.2704
   38MOL    H19 5273   3.795   4.161   6.428 -0.6376 -1.9423  1.8355
   38MOL    H20 5274   3.788   4.185   6.582  0.3025  0.7369  0.5274
   38MOL    H21 5275   3.659   4.404   6.563 -1.4207  0.3467 -0.9798
   38MOL    H22 5276   3.523   4.373   6.368 -0.9661  0.7272  0.0046
   38MOL    C23 5277   3.537   4.226   6.562  0.2259  0.5509 -0.5385
   38MOL    C24 5278   3.390   4.285   6.556 -0.1318  0.1387  0.2633
   38MOL    O25 5279   3.357   4.292   6.422 -0.7466  0.4407 -0.0857
   38MOL    H26 5280   3.532   4.126   6.519 -0.8727  0.9237 -1.3175
   38MOL    H27 5281   3.565   4.210   6.666  0.0520  0.7157 -0.4656
   38MOL    H28 5282   3.378   4.387   6.592  2.2110  0.5255  0.0343
   38MOL    H29 5283   3.369   4.207   6.382 -1.2928  0.8458 -1.1343
   38MOL    C30 5284   3.290   4.201   6.632 -0.4197 -0.1024 -0.1035
   38MOL    C31 5285   3.329   4.170   6.777 -0.2635 -0.6364  0.3514
   38MOL    O32 5286   3.360   4.295   6.844  0.1347  0.3046  0.1137
   38MOL    H33 5287   3.195   4.254   6.622 -0.7546 -0.7729 -0.5334
   38MOL    H34 5288   3.280   4.109   6.573  0.1450  1.7766 -3.2461
   38MOL    H35 5289   3.422   4.113   6.779  0.6822  0.7581 -2.4125
   38MOL    H36 5290   3.421   4.274   6.912 -0.3216  0.6155  0.6279
   38MOL    C37 5291   3.210   4.104   6.848 -0.3957 -0.2397  0.6158
   38MOL    C38 5292   3.155   3.969   6.791  0.2826  0.7600  0.0252
   38MOL    O39 5293   3.270   3.883   6.786 -0.1429  0.3511  0.2946
   38MOL    H40 5294   3.235   4.087   6.953 -1.7528 -0.7072  0.8695
   38MOL    H41 5295   3.126   4.173   6.850  1.0356  1.5791 -0.6235
   38MOL    H42 5296   3.114   3.989   6.692  0.9963 -1.5551 -0.7597
   38MOL    H43 5297   3.290   3.857   6.875  1.2922  1.9351  0.4670
   38MOL    C44 5298   3.040   3.904   6.875  0.4182  0.5913  0.1984
   38MOL    C45 5299   2.911   3.880   6.790 -0.0199 -0.6195  1.1117
   38MOL    O46 5300   2.841   3.762   6.828  0.1425  0.2709 -0.7363
   38MOL    H47 5301   3.071   3.809   6.919 -1.4104  0.1690  0.5985
   38MOL    H48 5302   3.017   3.953   6.970  0.8164  0.2141  0.4938
   38MOL    H49 5303   2.931   3.844   6.689 -1.0161 -0.4376  0.8420
   38MOL    H50 5304   2.777   3.748   6.760  0.5957  0.7512 -1.2650
   38MOL    C51 5305   2.807   3.995   6.790 -0.5144 -0.0215  0.1519
   38MOL    C52 5306   2.815   4.096   6.671 -0.3730 -0.0897 -0.3937
   38MOL    O53 5307   2.938   4.169   6.666  0.1497 -0.3390 -0.4130
   38MOL    H54 5308   2.707   3.952   6.782  0.3173 -2.0224  0.1602
   38MOL    H55 5309   2.809   4.043   6.887  0.2213 -0.8411  0.5511
   38MOL    H56 5310   2.737   4.170   6.688 -0.0570 -0.0260  0.8352
   38MOL    H57 5311   2.931   4.218   6.747 -1.1630  1.5534 -1.6390
   38MOL    C58 5312   2.764   4.028   6.541  0.1794  0.0674 -0.9208
   38MOL    C59 5313   2.690   4.109   6.437  0.1052  0.0232  0.0475
   38MOL    O60 5314   2.562   4.147   6.485 -0.0983 -0.0632 -0.5844
   38MOL    H61 5315   2.849   3.978   6.495  0.4294 -1.8917  1.5955
   38MOL    H62 5316   2.701   3.947   6.577 -0.7989  1.7624  1.3609
   38MOL    H63 5317   2.664   4.052   6.348  1.4086 -0.3603 -0.0925
   38MOL    H64 5318   2.497   4.115   6.425  0.6521 -3.3066  0.2449
   38MOL    C65 5319   2.761   4.230   6.381 -0.7488 -0.3492  0.6363
   38MOL    C66 5320   2.894   4.187   6.305  0.1753 -0.3321 -0.7937
   38MOL    O67 5321   2.860   4.102   6.199 -0.4038 -0.0963  0.3700
   38MOL    H68 5322   2.698   4.291   6.316 -1.1176 -2.3142 -0.9104
   38MOL    H69 5323   2.795   4.301   6.456  1.9440 -2.0314  1.0748
   38MOL    H70 5324   2.956   4.132   6.376 -0.2408 -1.6865 -1.4545
   38MOL    H71 5325   2.787   4.139   6.153  0.5640  0.2647 -0.9257
   38MOL    C72 5326   2.976   4.306   6.248 -0.5303  0.2916 -0.7168
   38MOL    C73 5327   3.023   4.407   6.367 -0.1995  0.3370 -0.2600
   38MOL    O74 5328   3.160   4.454   6.334  0.3780 -0.2986 -0.3138
   38MOL    H75 5329   3.067   4.272   6.199  1.1601  0.7667  2.0376
   38MOL    H76 5330   2.915   4.372   6.186 -0.0009  1.1571 -0.3269
   38MOL    H77 5331   3.019   4.363   6.466  0.1896 -1.0398 -0.8431
   38MOL    H78 5332   3.217   4.394   6.379 -0.4171 -3.0879 -2.8901
   38MOL    C79 5333   2.940   4.532   6.362 -0.2448  0.0805  0.0145
   38MOL    C80 5334   2.941   4.620   6.497 -0.2037  0.3283  0.0175
   38MOL    O81 5335   2.889   4.546   6.604 -0.1122 -0.6562 -0.5106
   38MOL    H82 5336   2.966   4.585   6.271  0.3920 -2.7502 -1.5243
   38MOL    H83 5337   2.835   4.504   6.352 -0.5985  1.5567 -0.5313
   38MOL    H84 5338   2.872   4.700   6.469 -1.5873 -1.3148 -1.3754
   38MOL    H85 5339   2.892   4.591   6.687  0.5022 -1.8305  0.1120
   38MOL    C86 5340   3.072   4.686   6.540  0.1666 -0.1743 -0.2710
   38MOL    C87 5341   3.143   4.772   6.432  0.2256  0.4141 -0.4202
   38MOL    O88 5342   3.063   4.891   6.390 -0.0620  0.0977  0.0399
   38MOL    H89 5343   3.044   4.735   6.633  2.6752  0.3560  0.2399
   38MOL    H90 5344   3.143   4.611   6.574 -0.4180 -1.5165 -1.9263
   38MOL    H91 5345   3.144   4.714   6.339 -3.0025 -0.0777 -0.2007
   38MOL    H92 5346   3.006   4.843   6.333  2.9620 -0.3122 -2.7238
   38MOL    C93 5347   3.287   4.804   6.472 -0.1034  0.0451  0.2202
   38MOL    C94 5348   3.380   4.684   6.447  0.1876 -0.0129  1.0148
   38MOL    O95 5349   3.393   4.648   6.316  0.2323 -0.0364 -0.3833
   38MOL    H96 5350   3.315   4.888   6.409  0.6914  0.2251  0.8116
   38MOL    H97 5351   3.284   4.834   6.577  1.2592 -2.8215  1.1380
   38MOL    H98 5352   3.338   4.597   6.499 -0.1625 -0.0839  0.6178
   38MOL    H99 5353   3.326   4.586   6.291  2.3787 -1.7233 -2.0770
   38MOL   C100 5354   3.516   4.700   6.512  0.7829  0.2172  0.9735
   38MOL   C101 5355   3.520   4.697   6.669 -0.0142 -0.3586  0.9193
   38MOL   O102 5356   3.507   4.567   6.706  0.0067 -0.0405  0.4202
   38MOL   H103 5357   3.590   4.627   6.480  0.6700 -0.3805  2.0666
   38MOL   H104 5358   3.549   4.797   6.475  3.0741 -1.1253 -0.6244
   38MOL   H105 5359   3.431   4.747   6.706  0.6754  1.3059  0.3467
   38MOL   H106 5360   3.442   4.569   6.775 -0.7017  1.7346 -0.2751
   38MOL   C107 5361   3.647   4.748   6.733 -0.2252 -0.6133  0.2856
   38MOL   C108 5362   3.687   4.897   6.697  0.0600  0.6254 -0.5339
   38MOL   O109 5363   3.602   4.985   6.763 -0.2282  0.5894 -0.7496
   38MOL   H110 5364   3.656   4.709   6.834 -1.6149  2.4883  1.6461
   38MOL   H111 5365   3.716   4.678   6.686 -0.1084  0.7291 -1.6018
   38MOL   H112 5366   3.690   4.921   6.591  0.7272  1.3017 -0.3603
   38MOL   H113 5367   3.644   5.069   6.749 -1.2694  0.8399 -2.3936
   38MOL   C114 5368   3.831   4.915   6.746  0.0681 -0.4840  0.0372
   38MOL   C115 5369   3.897   5.048   6.686  0.1329  0.6943 -0.0879
   38MOL   O116 5370   3.804   5.155   6.705  0.2781 -0.3161 -0.1884
   38MOL   H117 5371   3.832   4.907   6.855 -1.0873 -0.9460  0.0189
   38MOL   H118 5372   3.886   4.834   6.699  0.1932 -0.9804  1.0428
   38MOL   H119 5373   3.907   5.030   6.579 -0.4646  0.3504 -0.0919
   38MOL   H120 5374   3.799   5.171   6.798 -1.6716  1.2018 -0.5157
   38MOL   C121 5375   4.026   5.073   6.754  0.1732 -0.3542  0.4504
   38MOL   C122 5376   4.123   4.961   6.774  0.1662 -0.0345 -0.7876
   38MOL   O123 5377   4.142   4.898   6.650 -0.6825 -0.1807 -0.6706
   38MOL   H124 5378   4.086   5.151   6.706  1.3150 -2.2473 -1.3090
   38MOL   H125 5379   4.011   5.128   6.847  3.0751  2.2014 -0.4916
   38MOL   H126 5380   4.086   4.894   6.851  1.4663 -0.5234 -0.5698
   38MOL   H127 5381   4.158   4.967   6.588 -1.7484  0.7523  0.0833
   38MOL   C128 5382   4.256   5.011   6.825 -1.0371 -0.3231  0.4274
   38MOL   C129 5383   4.268   5.088   6.956 -0.5034 -0.2577  0.5626
   38MOL   O130 5384   4.275   4.999   7.067 -0.3977 -0.4502  0.3897
   38MOL   H131 5385   4.335   4.937   6.822  0.3188  1.1269  0.0147
   38MOL   H132 5386   4.295   5.072   6.744 -0.0644  0.1615  1.2509
   38MOL   H133 5387   4.187   5.160   6.973 -0.6994  0.1551 -1.8875
   38MOL   H134 5388   4.230   5.040   7.140  3.5726  0.1278  2.6836
   38MOL   C135 5389   4.400   5.169   6.956  0.2142 -0.3497 -1.1276
   38MOL   C136 5390   4.402   5.297   6.871 -0.3580  0.5701  0.1276
   38MOL   O137 5391   4.519   5.367   6.897  0.2745 -0.3505  0.2058
   38MOL   H138 5392   4.409   5.197   7.061 -0.7242  2.4699 -1.7295
   38MOL   H139 5393   4.479   5.099   6.931  0.7735  0.0679 -0.5429
   38MOL   H140 5394   4.317   5.356   6.905 -2.0273 -1.1244 -1.0061
   38MOL   H141 5395   4.508   5.452   6.856  2.7943  0.0597  0.2945
   38MOL   H142 5396   4.399   5.280   6.764 -0.3431  2.2414 -0.1478
   39MOL     C1 5397   7.167   3.698   0.649 -0.0217  0.2935  0.4579
   39MOL     C2 5398   7.146   3.780   0.529 -0.1496  0.0282  0.6119
   39MOL     O3 5399   7.017   3.834   0.538 -0.4496 -0.5164  1.4251
   39MOL     H4 5400   7.247   3.624   0.648  0.3532  0.6777  1.1059
   39MOL     H5 5401   7.078   3.636   0.662 -1.3077  1.5860 -1.7827
   39MOL     H6 5402   7.136   3.708   0.448 -2.1499  1.6837 -0.6829
   39MOL     H7 5403   6.948   3.780   0.503  0.1898 -0.1218 -0.5094
   39MOL     H8 5404   7.170   3.763   0.737  0.0093  1.8746 -0.6977
   39MOL     C9 5405   7.246   3.892   0.494 -0.3143 -0.0176  0.0293
   39MOL    C10 5406   7.392   3.846   0.469  0.5907  0.6117 -0.0262
   39MOL    O11 5407   7.412   3.803   0.334  0.1619 -0.4100 -0.0091
   39MOL    H12 5408   7.208   3.944   0.406  0.4199  0.0599 -0.2465
   39MOL    H13 5409   7.245   3.965   0.575  1.0993  1.2909 -1.0985
   39MOL    H14 5410   7.413   3.766   0.540 -0.6320 -0.0488 -0.4054
   39MOL    H15 5411   7.359   3.725   0.327 -1.2220  0.5613 -0.7100
   39MOL    C16 5412   7.499   3.956   0.502  0.0155  0.3750  0.0904
   39MOL    C17 5413   7.515   3.982   0.659  0.1136 -0.7213 -0.0457
   39MOL    O18 5414   0.099   3.897   0.711 -0.4020  0.3625  0.4601
   39MOL    H19 5415   0.074   3.928   0.456 -0.7722 -2.4893  0.0845
   39MOL    H20 5416   7.464   4.049   0.458 -2.3424 -0.5960 -0.1556
   39MOL    H21 5417   7.425   3.957   0.715 -1.0605  0.8217 -1.1893
   39MOL    H22 5418   0.062   3.876   0.795 -1.2025 -0.1313 -0.0013
   39MOL    C23 5419   0.046   4.121   0.699  0.5102  0.3367 -0.2785
   39MOL    C24 5420   7.455   4.229   0.722 -0.2525 -0.3700  0.5203
   39MOL    O25 5421   7.372   4.178   0.823  1.1263 -0.1255 -0.1152
   39MOL    H26 5422   0.107   4.124   0.789  1.2549  5.1614 -0.7936
   39MOL    H27 5423   0.117   4.162   0.627 -0.6925  2.2732 -0.4228
   39MOL    H28 5424   7.396   4.238   0.631 -0.7822  0.2292  0.9201
   39MOL    H29 5425   7.420   4.191   0.903  1.8525 -1.7304 -0.2858
   39MOL    C30 5426   7.518   4.364   0.763  0.0215  0.4094  0.8755
   39MOL    C31 5427   7.411   4.465   0.812  0.3500  0.0209 -0.0064
   39MOL    O32 5428   7.490   4.579   0.825  0.5120  0.2578  0.1131
   39MOL    H33 5429   0.068   4.344   0.845 -1.4229 -1.0463  1.7753
   39MOL    H34 5430   0.057   4.411   0.684  0.5205 -0.8205  0.5081
   39MOL    H35 5431   7.378   4.435   0.912 -0.6461  0.2058 -0.2764
   39MOL    H36 5432   0.056   4.559   0.860 -0.2725  0.8016  2.4281
   39MOL    C37 5433   7.292   4.489   0.714  0.2105 -0.6313 -0.1289
   39MOL    C38 5434   7.169   4.555   0.775 -0.2811 -0.5609  0.3643
   39MOL    O39 5435   7.074   4.587   0.679  0.6471  0.2209  0.3790
   39MOL    H40 5436   7.325   4.556   0.635  0.3208 -0.1159  0.3512
   39MOL    H41 5437   7.265   4.404   0.652 -2.0889 -1.5719  2.0773
   39MOL    H42 5438   7.215   4.648   0.809 -1.5120 -0.0323  0.5820
   39MOL    H43 5439   7.099   4.673   0.648  0.8361 -0.2383 -0.7466
   39MOL    C44 5440   7.111   4.487   0.896 -0.8076  0.3583 -0.0469
   39MOL    C45 5441   6.966   4.506   0.936 -0.5043 -0.2677 -0.2615
   39MOL    O46 5442   6.932   4.419   1.046 -0.1863  0.1390 -0.3970
   39MOL    H47 5443   7.135   4.381   0.895 -0.7551  0.3750 -0.4852
   39MOL    H48 5444   7.176   4.523   0.976 -0.8714  0.0984  0.1244
   39MOL    H49 5445   6.899   4.483   0.853 -1.4548  0.0600  0.4026
   39MOL    H50 5446   6.922   4.329   1.018  0.6019 -0.1277  0.1421
   39MOL    C51 5447   6.935   4.652   0.962  0.5106  0.1018  0.0396
   39MOL    C52 5448   6.788   4.691   0.974  0.0379  0.0285 -0.0603
   39MOL    O53 5449   6.788   4.826   1.025 -0.0554 -0.1752 -0.3232
   39MOL    H54 5450   6.997   4.701   1.037  0.6263 -1.4515  0.9955
   39MOL    H55 5451   6.974   4.700   0.872  1.1020 -2.2379 -1.0183
   39MOL    H56 5452   6.752   4.613   1.041  1.8854 -0.1757  0.7123
   39MOL    H57 5453   6.799   4.817   1.119 -2.7473 -1.9130 -0.1312
   39MOL    C58 5454   6.704   4.680   0.848 -0.7836  0.3844  0.3650
   39MOL    C59 5455   6.571   4.741   0.854 -0.8527 -0.1469  1.1090
   39MOL    O60 5456   6.587   4.880   0.875 -0.5550  0.1392  0.0684
   39MOL    H61 5457   6.763   4.737   0.776 -0.7976  0.0570  0.0885
   39MOL    H62 5458   6.702   4.577   0.813  1.5225  0.6494 -0.6308
   39MOL    H63 5459   6.528   4.701   0.946 -1.7304 -1.6934  0.0551
   39MOL    H64 5460   6.648   4.883   0.947  1.4322  1.5440 -1.6045
   39MOL    C65 5461   6.485   4.735   0.726  0.2309  0.1566 -0.2148
   39MOL    C66 5462   6.340   4.803   0.731 -0.0168 -0.1198 -0.0230
   39MOL    O67 5463   6.298   4.792   0.602 -0.4517  0.4034  1.0370
   39MOL    H68 5464   6.549   4.794   0.661  1.0938  2.8932  2.9273
   39MOL    H69 5465   6.488   4.630   0.697  2.5002  0.2045 -0.2280
   39MOL    H70 5466   6.339   4.906   0.766  0.4620  0.0277 -0.4428
   39MOL    H71 5467   6.293   4.876   0.559 -0.7088 -0.1792 -0.0833
   39MOL    C72 5468   6.254   4.712   0.819 -0.5761 -0.4394  0.4853
   39MOL    C73 5469   6.102   4.744   0.846  0.0955 -0.1831  0.0889
   39MOL    O74 5470   6.055   4.632   0.923  0.1033  0.2336  0.3852
   39MOL    H75 5471   6.264   4.605   0.805  2.0748 -0.3242  1.2111
   39MOL    H76 5472   6.309   4.731   0.911 -1.3114  0.1445  0.8122
   39MOL    H77 5473   6.044   4.735   0.753  2.3854  1.4078 -1.5487
   39MOL    H78 5474   6.088   4.651   1.010 -0.8671  3.1877  0.1691
   39MOL    C79 5475   6.078   4.885   0.897  0.3482  0.0769  0.8841
   39MOL    C80 5476   5.934   4.926   0.914 -0.2768  0.8524  0.5485
   39MOL    O81 5477   5.926   5.052   0.973 -0.2235 -0.3323 -0.1636
   39MOL    H82 5478   6.138   4.886   0.988  0.7023 -0.5633  0.6657
   39MOL    H83 5479   6.120   4.959   0.828 -1.4868  0.8907  0.6214
   39MOL    H84 5480   5.883   4.848   0.971 -0.3380  0.8062  0.4307
   39MOL    H85 5481   5.970   5.043   1.057  1.8854 -2.4469 -1.4436
   39MOL    C86 5482   5.850   4.936   0.784 -0.1848  0.1607  0.9149
   39MOL    C87 5483   5.703   4.982   0.815  0.8175 -1.0277 -0.0247
   39MOL    O88 5484   5.647   5.037   0.694 -0.5132 -0.5081  0.9565
   39MOL    H89 5485   5.898   5.014   0.725 -0.4054  0.5915  1.3056
   39MOL    H90 5486   5.847   4.845   0.724  3.6139 -0.7042  1.8433
   39MOL    H91 5487   5.715   5.053   0.897 -3.5606  1.5379 -1.4510
   39MOL    H92 5488   5.672   5.128   0.683  2.8203 -1.2681  1.8923
   39MOL    C93 5489   5.608   4.865   0.847  0.7626 -0.4423 -0.2994
   39MOL    C94 5490   5.461   4.907   0.881 -0.3488  0.6513  0.3982
   39MOL    O95 5491   5.372   4.801   0.884  0.2696  0.3131 -0.6227
   39MOL    H96 5492   5.594   4.800   0.761  0.5740 -1.9405  0.8502
   39MOL    H97 5493   5.657   4.804   0.922  1.1677  0.0980 -0.1175
   39MOL    H98 5494   5.417   4.977   0.811 -0.0091 -0.2828 -0.7671
   39MOL    H99 5495   5.289   4.839   0.859  0.6544  1.6325  0.0744
   39MOL   C100 5496   5.452   4.970   1.017  0.2100 -0.1860  0.6924
   39MOL   C101 5497   5.393   5.110   1.035  0.3790  0.3279  0.1833
   39MOL   O102 5498   5.255   5.120   0.997 -0.2786 -0.0425  0.5123
   39MOL   H103 5499   5.399   4.909   1.090  0.0267 -0.9709 -0.0824
   39MOL   H104 5500   5.554   4.970   1.057  0.8224  0.0628 -0.8441
   39MOL   H105 5501   5.447   5.162   0.956  0.3374  0.9436  0.5578
   39MOL   H106 5502   5.234   5.209   1.021  2.3224  1.3159 -1.8090
   39MOL   C107 5503   5.419   5.174   1.174  0.7996 -0.7577  0.5657
   39MOL   C108 5504   5.404   5.326   1.167 -0.1257  0.5325 -0.1664
   39MOL   O109 5505   5.265   5.357   1.139 -0.2728  0.6092  0.3424
   39MOL   H110 5506   5.347   5.123   1.239 -0.5385  0.5987  0.1547
   39MOL   H111 5507   5.519   5.139   1.202  1.5758  2.8925  2.6074
   39MOL   H112 5508   5.482   5.351   1.095  0.0091  1.1189  0.1770
   39MOL   H113 5509   5.241   5.444   1.110  1.2308  0.6776 -0.7225
   39MOL   C114 5510   5.427   5.382   1.314  0.3641 -0.4000 -0.1898
   39MOL   C115 5511   5.576   5.383   1.350 -0.1263 -0.0548  0.4438
   39MOL   O116 5512   5.649   5.453   1.249  0.7465 -0.2792  0.0959
   39MOL   H117 5513   5.378   5.480   1.314 -0.6055 -0.8720 -0.9775
   39MOL   H118 5514   5.365   5.328   1.386  2.3930  0.9310  2.6873
   39MOL   H119 5515   5.624   5.285   1.352 -2.8895 -1.4599 -0.1949
   39MOL   H120 5516   5.616   5.542   1.252 -3.1581 -1.5659 -1.8662
   39MOL   C121 5517   5.604   5.452   1.486 -0.5610  0.1405  0.1476
   39MOL   C122 5518   5.548   5.376   1.610 -0.7365  0.3642 -0.0341
   39MOL   O123 5519   5.647   5.278   1.632 -0.2725 -0.3618  0.5218
   39MOL   H124 5520   5.713   5.457   1.498 -0.3960 -0.0931 -1.2131
   39MOL   H125 5521   5.558   5.550   1.475 -2.1622 -0.7977 -1.5289
   39MOL   H126 5522   5.448   5.337   1.593 -0.7149  0.0554  0.5352
   39MOL   H127 5523   5.624   5.215   1.699  1.0039 -1.9216 -0.4711
   39MOL   C128 5524   5.551   5.478   1.724  0.3861 -0.3055  0.2393
   39MOL   C129 5525   5.496   5.430   1.862 -0.4298 -0.4826  0.2771
   39MOL   O130 5526   5.551   5.509   1.966  0.3396  0.0617 -0.0981
   39MOL   H131 5527   5.647   5.524   1.748 -1.6306  3.3447  1.6232
   39MOL   H132 5528   5.498   5.566   1.689  0.2219 -0.1184  0.9578
   39MOL   H133 5529   5.522   5.328   1.891  2.2022 -0.0191 -0.3127
   39MOL   H134 5530   5.536   5.481   2.055  2.0800 -0.7626 -0.0333
   39MOL   C135 5531   5.344   5.455   1.884  1.2090  0.3013 -0.2360
   39MOL   C136 5532   5.253   5.351   1.816  0.4713  0.0828 -0.0457
   39MOL   O137 5533   5.119   5.367   1.864  0.1042  0.5591 -0.5128
   39MOL   H138 5534   5.317   5.459   1.989  0.3478  2.1018 -0.5205
   39MOL   H139 5535   5.314   5.556   1.858 -1.2052 -0.6264 -1.2399
   39MOL   H140 5536   5.288   5.252   1.846  1.2728  0.7801  1.3642
   39MOL   H141 5537   5.091   5.450   1.828 -0.8457  0.4011 -0.1751
   39MOL   H142 5538   5.259   5.373   1.710 -0.0518 -2.1871 -0.5725
   40MOL     C1 5539   3.286   0.477   6.835 -0.1355 -0.3958  0.4238
   40MOL     C2 5540   3.442   0.481   6.820 -0.2414  0.8118  0.7728
   40MOL     O3 5541   3.503   0.522   6.944  0.0034  0.8932  0.7842
   40MOL     H4 5542   3.230   0.571   6.834 -1.3226 -1.0783  0.5575
   40MOL     H5 5543   3.272   0.432   6.934  1.3186 -3.1850 -0.5845
   40MOL     H6 5544   3.475   0.553   6.745  0.2468  0.1576  0.3499
   40MOL     H7 5545   3.595   0.537   6.933 -0.0006 -0.0876 -0.8700
   40MOL     H8 5546   3.233   0.414   6.762  2.8424 -3.4925  0.8123
   40MOL     C9 5547   3.496   0.343   6.780  0.3076  0.2983 -0.3996
   40MOL    C10 5548   3.461   0.281   6.643  0.4827 -0.4309 -0.1825
   40MOL    O11 5549   3.507   0.350   6.533 -0.0956 -0.2403  0.0220
   40MOL    H12 5550   3.604   0.354   6.781  0.6053 -2.3304  1.3600
   40MOL    H13 5551   3.466   0.273   6.858  1.8529 -0.0726 -0.1175
   40MOL    H14 5552   3.352   0.277   6.649  0.3231  1.0970 -1.7891
   40MOL    H15 5553   3.601   0.343   6.534 -0.1140 -0.4459  0.5764
   40MOL    C16 5554   3.508   0.137   6.633  0.4529  0.5177  0.0014
   40MOL    C17 5555   3.461   0.038   6.520  0.0681 -0.1257 -0.2534
   40MOL    O18 5556   3.510   7.427   6.563  0.2129 -0.2167  0.7705
   40MOL    H19 5557   3.616   0.142   6.623  0.3024  1.2219 -1.3709
   40MOL    H20 5558   3.486   0.083   6.726  0.0085 -1.0289 -0.9884
   40MOL    H21 5559   3.511   0.071   6.429 -0.8985  0.9939 -0.3819
   40MOL    H22 5560   3.484   7.405   6.651 -1.4162  1.9771  0.8744
   40MOL    C23 5561   3.311   0.017   6.509  0.4534 -0.5561  0.1836
   40MOL    C24 5562   3.224   0.117   6.430  0.6184 -0.1331 -0.6138
   40MOL    O25 5563   3.273   0.114   6.297 -0.1350 -0.2861 -0.1460
   40MOL    H26 5564   3.296   7.436   6.470 -1.2601 -0.7256  1.2392
   40MOL    H27 5565   3.278   7.518   6.611  0.8421  1.1591  0.6257
   40MOL    H28 5566   3.248   0.215   6.471 -1.1132  0.6547 -1.4184
   40MOL    H29 5567   3.282   0.023   6.273 -5.6764 -1.0789  0.1242
   40MOL    C30 5568   3.072   0.083   6.429  0.4921  0.7307  0.7567
   40MOL    C31 5569   3.004   0.109   6.570  0.3140  0.3465 -0.1940
   40MOL    O32 5570   2.986   0.253   6.595 -0.7434 -0.2354 -0.9128
   40MOL    H33 5571   3.011   0.130   6.352  0.7978  0.8647  0.5947
   40MOL    H34 5572   3.053   7.499   6.404 -0.9589  1.3650 -0.8463
   40MOL    H35 5573   3.070   0.069   6.647 -1.5561  0.4847  1.5028
   40MOL    H36 5574   2.988   0.263   6.689 -0.0455  2.3278 -1.1598
   40MOL    C37 5575   2.868   0.038   6.584 -0.2055 -1.3093  0.0223
   40MOL    C38 5576   2.868   7.407   6.582 -0.0297 -0.1100  0.4664
   40MOL    O39 5577   2.965   7.359   6.670  0.4560  0.4407  0.6194
   40MOL    H40 5578   2.817   0.067   6.676  0.1710  1.9202 -0.7177
   40MOL    H41 5579   2.805   0.074   6.503 -0.8756  2.2372  2.0139
   40MOL    H42 5580   2.887   7.372   6.480 -4.1366  0.8788 -0.7670
   40MOL    H43 5581   2.969   7.265   6.657 -0.5653  0.1842  2.0812
   40MOL    C44 5582   2.729   7.352   6.628  0.2272 -0.3839 -0.2360
   40MOL    C45 5583   2.618   7.360   6.519  0.2139 -0.1451  0.1526
   40MOL    O46 5584   2.638   7.247   6.436 -0.6506 -0.6780 -0.7137
   40MOL    H47 5585   2.744   7.247   6.652  1.6775 -0.0001  0.5929
   40MOL    H48 5586   2.698   7.408   6.717  0.1086  1.4764 -1.4281
   40MOL    H49 5587   2.635   7.443   6.450 -0.9541  0.0888  0.1259
   40MOL    H50 5588   2.701   7.266   6.368  0.9718 -3.0045  0.0944
   40MOL    C51 5589   2.476   7.360   6.593 -0.5060 -0.0595  0.2136
   40MOL    C52 5590   2.417   7.493   6.627 -0.2784 -0.6048 -0.0711
   40MOL    O53 5591   2.288   7.469   6.688  0.0244 -0.3424 -0.2446
   40MOL    H54 5592   2.404   7.307   6.531 -1.2958  1.0483  0.1548
   40MOL    H55 5593   2.491   7.308   6.688 -0.5442 -0.2720  0.1029
   40MOL    H56 5594   2.403   0.027   6.533 -0.2480 -0.9500 -0.2763
   40MOL    H57 5595   2.222   7.453   6.622  0.3776 -0.3699 -0.5946
   40MOL    C58 5596   2.507   0.072   6.715 -0.0486  0.1178  0.2755
   40MOL    C59 5597   2.443   0.204   6.753 -0.3310 -0.2384  0.7096
   40MOL    O60 5598   2.507   0.258   6.870  0.7039  0.3156  0.0853
   40MOL    H61 5599   2.530   0.010   6.802 -1.5653 -1.1505 -0.2118
   40MOL    H62 5600   2.608   0.086   6.676  0.5403 -1.8698  0.9887
   40MOL    H63 5601   2.338   0.177   6.767 -0.4399  0.3057  0.9467
   40MOL    H64 5602   2.486   0.206   6.946  1.2123 -0.1893 -0.1160
   40MOL    C65 5603   2.442   0.303   6.642 -0.6654  0.7539  0.4701
   40MOL    C66 5604   2.356   0.433   6.650 -0.0405 -0.8764 -0.1140
   40MOL    O67 5605   2.398   0.527   6.559 -0.2571 -0.0061  0.2844
   40MOL    H68 5606   2.547   0.332   6.630 -0.2275 -2.0285 -3.4910
   40MOL    H69 5607   2.413   0.241   6.557  0.1259  0.8001  0.1545
   40MOL    H70 5608   2.384   0.479   6.744 -1.3499  0.4516 -0.3601
   40MOL    H71 5609   2.440   0.593   6.613 -2.1647  0.9623  0.6048
   40MOL    C72 5610   2.195   0.401   6.642 -0.4940  0.2575  0.0295
   40MOL    C73 5611   2.113   0.428   6.764 -0.2259  0.6265  0.2627
   40MOL    O74 5612   1.975   0.440   6.744  0.1512  0.8702 -0.1058
   40MOL    H75 5613   2.154   0.474   6.573  1.3061 -0.4160 -1.7978
   40MOL    H76 5614   2.178   0.298   6.611  1.7180  0.2813 -1.3513
   40MOL    H77 5615   2.138   0.529   6.794 -0.0716  0.7361 -0.2253
   40MOL    H78 5616   1.954   0.530   6.764  0.0433  0.8072  0.0592
   40MOL    C79 5617   2.140   0.336   6.885  0.0320 -0.1131  1.2568
   40MOL    C80 5618   2.099   0.385   7.028  0.3529 -0.2493  0.5136
   40MOL    O81 5619   2.119   0.279   7.115  0.2072 -0.2603  0.2964
   40MOL    H82 5620   2.088   0.242   6.866 -0.5160  0.0746  1.7936
   40MOL    H83 5621   2.248   0.326   6.888  0.0566  0.4354  2.7037
   40MOL    H84 5622   1.993   0.413   7.028  0.6834  1.0271  0.1351
   40MOL    H85 5623   2.048   0.216   7.114 -0.0690 -0.0736  3.5376
   40MOL    C86 5624   2.184   0.508   7.064  0.7228  0.7601  0.8106
   40MOL    C87 5625   2.141   0.563   7.203  0.2079 -0.3494 -0.5539
   40MOL    O88 5626   2.256   0.615   7.276 -0.2104 -0.2018 -0.3134
   40MOL    H89 5627   2.282   0.465   7.041  0.0355 -0.6930  0.5624
   40MOL    H90 5628   2.173   0.586   6.988  0.1751  0.2534  0.3694
   40MOL    H91 5629   2.101   0.479   7.259 -1.8554  1.3428  0.5727
   40MOL    H92 5630   2.314   0.544   7.298  0.3505  0.5595  0.6927
   40MOL    C93 5631   2.029   0.664   7.193 -0.2923  0.3038 -0.0172
   40MOL    C94 5632   1.964   0.712   7.325 -0.6702  0.4989  0.5196
   40MOL    O95 5633   1.887   0.822   7.300  0.0383 -0.6549 -0.0189
   40MOL    H96 5634   2.079   0.743   7.138  0.2629 -0.8903 -1.2541
   40MOL    H97 5635   1.954   0.614   7.132 -0.7374 -0.4840  1.1476
   40MOL    H98 5636   2.044   0.747   7.390  0.3446 -1.0612  0.1283
   40MOL    H99 5637   1.809   0.825   7.354 -0.8380 -2.3971 -1.1453
   40MOL   C100 5638   1.889   0.606   7.401  0.5991 -0.4574  0.4881
   40MOL   C101 5639   1.971   0.497   7.490 -0.2844  0.4811  0.1448
   40MOL   O102 5640   1.936   0.511   0.102 -0.5498  0.3283 -0.1642
   40MOL   H103 5641   1.815   0.649   7.469 -1.3067 -1.6588 -0.7986
   40MOL   H104 5642   1.825   0.544   7.338 -0.3511  0.2708  0.7356
   40MOL   H105 5643   2.076   0.526   7.492 -0.6597  1.8671  0.2420
   40MOL   H106 5644   2.014   0.513   0.156  1.7333  0.6295 -3.3077
   40MOL   C107 5645   1.939   0.354   7.440 -0.1472  0.1403  0.2723
   40MOL   C108 5646   2.009   0.232   7.514 -0.6540 -0.0703 -0.4232
   40MOL   O109 5647   1.928   0.109   7.501 -0.3729 -0.7441  0.4108
   40MOL   H110 5648   1.831   0.344   7.447 -0.3565  1.7302 -0.5127
   40MOL   H111 5649   1.959   0.340   7.334 -0.6930  2.3210 -0.1357
   40MOL   H112 5650   2.000   0.255   0.100  1.6458 -0.3444 -0.1582
   40MOL   H113 5651   1.969   0.043   0.036 -2.1330  0.7813  3.7280
   40MOL   C114 5652   2.153   0.203   7.463 -0.1295  0.0556  0.2359
   40MOL   C115 5653   2.261   0.301   0.001  0.8690  0.3467  0.7735
   40MOL   O116 5654   2.271   0.286   0.140  0.0139 -0.6178 -0.2777
   40MOL   H117 5655   2.172   0.099   7.489  0.9423  0.6061  1.7489
   40MOL   H118 5656   2.148   0.196   7.355  1.9551 -0.1871  0.1487
   40MOL   H119 5657   2.237   0.400   7.480 -0.8846 -0.3344  0.0829
   40MOL   H120 5658   2.235   0.368   0.169 -1.2863 -1.3422  0.2182
   40MOL   C121 5659   2.396   0.255   7.473  0.1172 -0.0297 -0.2127
   40MOL   C122 5660   2.435   0.284   7.323 -0.0311 -0.3300  0.2242
   40MOL   O123 5661   2.450   0.429   7.319  0.0736  0.5468  0.0996
   40MOL   H124 5662   2.470   0.310   0.012 -0.5444 -1.2515  1.8383
   40MOL   H125 5663   2.422   0.154   7.503  1.2292  0.9340  2.2110
   40MOL   H126 5664   2.360   0.252   7.250  0.7482 -0.8177 -0.3755
   40MOL   H127 5665   2.500   0.443   7.240  1.9912 -0.3666  1.1130
   40MOL   C128 5666   2.574   0.225   7.280  0.7963 -0.2002  0.2924
   40MOL   C129 5667   2.558   0.077   7.241 -0.4080  0.3450 -0.2102
   40MOL   O130 5668   2.505   0.080   7.113 -0.2474  0.1356 -0.3454
   40MOL   H131 5669   2.636   0.268   7.201  0.2946  1.2362  0.6689
   40MOL   H132 5670   2.626   0.230   7.375 -1.5717 -0.9528  1.6581
   40MOL   H133 5671   2.486   0.032   7.309 -0.4823 -0.7490 -0.9996
   40MOL   H134 5672   2.506   7.515   7.072 -0.2960  0.0927 -0.2567
   40MOL   C135 5673   2.695   0.001   7.233 -0.2801  0.9815  0.4723
   40MOL   C136 5674   2.713   7.439   7.364  0.3143 -0.7242  0.4179
   40MOL   O137 5675   2.822   7.354   7.358 -0.8636  0.3448 -0.1691
   40MOL   H138 5676   2.696   7.447   7.153  0.7519 -0.7426  2.0310
   40MOL   H139 5677   2.776   0.072   7.215  0.4479  0.0580  0.0594
   40MOL   H140 5678   2.628   7.389   7.411  1.1982 -1.0491  1.7034
   40MOL   H141 5679   2.817   7.314   7.443 -0.8555  0.1407 -0.2640
   40MOL   H142 5680   2.740   7.511   7.441 -1.3593 -1.1265  1.4079
   41MOL     C1 5681   5.431   2.571   1.217  0.1118 -0.2148  0.4477
   41MOL     C2 5682   5.574   2.627   1.181 -0.2505 -0.4218  0.5706
   41MOL     O3 5683   5.561   2.761   1.149 -0.4603 -0.8842  0.3738
   41MOL     H4 5684   5.424   2.463   1.203 -0.2338  0.1110 -2.0120
   41MOL     H5 5685   5.347   2.601   1.155 -0.8821 -0.0072  1.8525
   41MOL     H6 5686   5.607   2.573   1.092  0.2047  0.2308  0.3453
   41MOL     H7 5687   5.542   2.762   1.057  0.4455 -0.1774  0.1886
   41MOL     H8 5688   5.408   2.604   1.319 -2.6298 -1.0995  0.1608
   41MOL     C9 5689   5.689   2.593   1.284 -0.2424  0.0093  0.6585
   41MOL    C10 5690   5.834   2.637   1.237 -0.9837  0.4083  0.2817
   41MOL    O11 5691   5.914   2.619   1.357  0.7964  0.3067 -0.4839
   41MOL    H12 5692   5.659   2.646   1.375  1.6905  2.2408  0.0529
   41MOL    H13 5693   5.699   2.486   1.297 -1.9597 -0.1532  0.7346
   41MOL    H14 5694   5.840   2.742   1.210 -0.7870  0.3179 -0.0267
   41MOL    H15 5695   5.881   2.666   1.432 -2.7539 -0.1993 -1.5963
   41MOL    C16 5696   5.896   2.565   1.120 -0.6608  0.7911 -0.6002
   41MOL    C17 5697   6.036   2.605   1.080 -0.6071 -0.4916  0.7890
   41MOL    O18 5698   6.108   2.500   1.040  0.6423  0.2113 -0.3223
   41MOL    H19 5699   5.898   2.457   1.135  1.4747  1.1777  2.3666
   41MOL    H20 5700   5.830   2.575   1.034 -2.5201 -0.3536  0.6453
   41MOL    H21 5701   6.087   2.644   1.169 -1.2721  2.6001 -0.1154
   41MOL    H22 5702   6.165   2.535   0.973 -0.6678  0.4497 -1.3477
   41MOL    C23 5703   6.031   2.710   0.974 -0.5993 -0.5714  0.5554
   41MOL    C24 5704   6.165   2.770   0.960  0.3818  0.2270  0.7873
   41MOL    O25 5705   6.250   2.673   0.901 -0.2429  0.4600  0.0228
   41MOL    H26 5706   6.002   2.664   0.880  0.1423  0.4745 -0.1968
   41MOL    H27 5707   5.971   2.797   1.002  1.9882  0.8841  1.7950
   41MOL    H28 5708   6.206   2.807   1.054  2.7665 -1.1456  0.3371
   41MOL    H29 5709   6.340   2.686   0.928  0.1721 -1.2995 -0.4442
   41MOL    C30 5710   6.167   2.884   0.852 -0.0112  0.5034 -0.4676
   41MOL    C31 5711   6.298   2.950   0.826 -0.2161  0.0677 -0.0358
   41MOL    O32 5712   6.267   3.054   0.734 -0.3863 -0.2014  0.2470
   41MOL    H33 5713   6.144   2.834   0.758 -0.5585  1.1323 -0.6781
   41MOL    H34 5714   6.094   2.962   0.875 -0.6718  0.1559 -1.3654
   41MOL    H35 5715   6.373   2.879   0.791  1.1951  1.2991  0.4291
   41MOL    H36 5716   6.266   3.015   0.648 -0.5510  1.5285 -0.5577
   41MOL    C37 5717   6.362   3.004   0.958  0.3836  0.1418  0.0446
   41MOL    C38 5718   6.497   3.069   0.941  0.4523  0.1793  0.2609
   41MOL    O39 5719   6.497   3.183   0.855 -0.2510 -0.4022  0.1393
   41MOL    H40 5720   6.279   3.071   0.980  1.3307  0.9439  1.2755
   41MOL    H41 5721   6.361   2.920   1.028  0.5777 -0.5885 -0.8322
   41MOL    H42 5722   6.564   2.996   0.896 -2.5666 -1.7501 -1.2855
   41MOL    H43 5723   6.432   3.171   0.788 -1.3113 -1.0268  1.2672
   41MOL    C44 5724   6.555   3.112   1.086 -0.3330 -0.3166 -0.0815
   41MOL    C45 5725   6.482   3.237   1.145 -0.4100 -0.2051  0.5042
   41MOL    O46 5726   6.482   3.230   1.288 -0.1386 -0.1686 -0.0035
   41MOL    H47 5727   6.536   3.023   1.147 -1.7506  0.9499  1.3661
   41MOL    H48 5728   6.663   3.121   1.085 -0.5809  3.1129 -1.1972
   41MOL    H49 5729   6.376   3.234   1.117 -0.8607  2.9102  1.6589
   41MOL    H50 5730   6.408   3.281   1.317 -1.8846 -1.4507 -1.9579
   41MOL    C51 5731   6.536   3.377   1.101 -0.0901 -0.5790  0.2216
   41MOL    C52 5732   6.687   3.401   1.120 -0.0314  0.8453 -0.3626
   41MOL    O53 5733   6.732   3.501   1.035 -0.0448 -0.7092 -0.5078
   41MOL    H54 5734   6.519   3.381   0.993 -3.2947 -0.4678  0.6817
   41MOL    H55 5735   6.475   3.450   1.154  0.4502  0.4550 -0.5591
   41MOL    H56 5736   6.739   3.313   1.084 -2.9100 -0.9472 -0.2749
   41MOL    H57 5737   6.825   3.515   1.047 -0.5265  2.1581  0.1203
   41MOL    C58 5738   6.730   3.433   1.269  0.8408 -0.2895 -0.1476
   41MOL    C59 5739   6.795   3.316   1.350 -0.3286 -0.2360  0.3303
   41MOL    O60 5740   6.921   3.276   1.303 -0.3159  0.1603 -0.5640
   41MOL    H61 5741   6.796   3.520   1.271  0.5855 -0.0807 -0.8506
   41MOL    H62 5742   6.636   3.459   1.318  0.5204  0.2659 -1.0434
   41MOL    H63 5743   6.736   3.228   1.328 -0.3526 -0.2375  0.4026
   41MOL    H64 5744   6.899   3.233   1.222  1.5401 -2.9150  0.5037
   41MOL    C65 5745   6.794   3.344   1.497  0.9187  0.6436 -0.1694
   41MOL    C66 5746   6.657   3.332   1.561 -0.0405 -0.2017 -0.0461
   41MOL    O67 5747   6.608   3.207   1.537 -0.8701 -0.0361  0.2902
   41MOL    H68 5748   6.864   3.282   1.553 -1.6075 -1.8594  0.3475
   41MOL    H69 5749   6.828   3.444   1.526  3.1233 -0.3837  0.9434
   41MOL    H70 5750   6.582   3.396   1.514  0.4681  0.4544  0.0179
   41MOL    H71 5751   6.569   3.219   1.452  2.0451  0.6376 -0.9857
   41MOL    C72 5752   6.667   3.345   1.712  0.0653  0.9012 -0.5228
   41MOL    C73 5753   6.535   3.320   1.798 -0.1937  0.3186 -0.4580
   41MOL    O74 5754   6.567   3.357   1.927 -0.0254  0.3795  0.0272
   41MOL    H75 5755   6.745   3.279   1.751  1.0018  1.2931 -1.6627
   41MOL    H76 5756   6.693   3.448   1.736 -2.1720  1.3385  0.0707
   41MOL    H77 5757   6.516   3.214   1.817 -0.4793  0.4326 -0.1087
   41MOL    H78 5758   6.624   3.287   1.954  0.8882  1.4246  0.8593
   41MOL    C79 5759   6.411   3.397   1.751 -0.4477 -0.4087  1.0930
   41MOL    C80 5760   6.320   3.328   1.644  0.1615 -0.0165  0.5276
   41MOL    O81 5761   6.275   3.212   1.711  0.3084  0.9159  0.3809
   41MOL    H82 5762   6.354   3.413   1.842  0.9552 -0.1447  1.9370
   41MOL    H83 5763   6.442   3.495   1.714  0.1343 -0.9825  0.0303
   41MOL    H84 5764   6.385   3.299   1.561  0.9709  1.2112  0.7183
   41MOL    H85 5765   6.226   3.241   1.787  1.0547 -1.4582  1.8383
   41MOL    C86 5766   6.214   3.417   1.593 -0.2630  0.0795 -0.4534
   41MOL    C87 5767   6.255   3.485   1.457  0.4494 -0.3890 -0.3527
   41MOL    O88 5768   6.290   3.386   1.361 -0.3194  0.2302 -0.7837
   41MOL    H89 5769   6.117   3.372   1.573 -0.2179  0.4112 -1.4475
   41MOL    H90 5770   6.196   3.489   1.674  0.1222 -0.6237  0.2662
   41MOL    H91 5771   6.343   3.548   1.468  0.2409 -0.4513  1.9109
   41MOL    H92 5772   6.223   3.320   1.360 -0.4731  0.3790 -2.6197
   41MOL    C93 5773   6.146   3.580   1.399  0.3149 -0.7473 -0.5068
   41MOL    C94 5774   6.188   3.646   1.276 -0.1324  0.0743  0.2729
   41MOL    O95 5775   6.073   3.700   1.215 -0.0178 -0.1696 -0.0261
   41MOL    H96 5776   6.051   3.528   1.388  0.7366 -1.4328 -0.9542
   41MOL    H97 5777   6.133   3.653   1.479  2.4391 -0.5283 -0.3403
   41MOL    H98 5778   6.230   3.571   1.209 -1.4749 -0.2790 -0.1766
   41MOL    H99 5779   6.087   3.699   1.121  0.8116  0.4360  0.0781
   41MOL   C100 5780   6.282   3.764   1.309 -0.1497 -0.7840 -0.6490
   41MOL   C101 5781   6.349   3.844   1.188 -0.2190 -0.2286 -0.2505
   41MOL   O102 5782   6.415   3.965   1.236 -0.4155  0.0997 -0.1945
   41MOL   H103 5783   6.222   3.835   1.366 -1.3748 -2.2720 -0.0497
   41MOL   H104 5784   6.361   3.739   1.379 -1.3976  0.3693  1.2237
   41MOL   H105 5785   6.275   3.885   1.119 -0.4092 -1.2180 -0.6448
   41MOL   H106 5786   6.430   4.002   1.151 -1.1242  2.6677  0.7297
   41MOL   C107 5787   6.460   3.768   1.110 -0.2910  0.0677  0.5464
   41MOL   C108 5788   6.483   3.819   0.962 -0.3641  0.6269  0.4750
   41MOL   O109 5789   6.540   3.947   0.958  0.3635  0.3730 -0.3654
   41MOL   H110 5790   6.557   3.767   1.159 -0.0531  1.7806  0.1328
   41MOL   H111 5791   6.427   3.665   1.095  1.1523 -0.1946 -1.0610
   41MOL   H112 5792   6.386   3.828   0.913 -1.3125 -1.7137  1.8287
   41MOL   H113 5793   6.559   3.961   0.867 -0.3128  0.2924 -0.5203
   41MOL   C114 5794   6.569   3.722   0.879  0.4808 -1.1045  0.1603
   41MOL   C115 5795   6.568   3.748   0.728  0.3668  0.5578  0.3046
   41MOL   O116 5796   6.617   3.881   0.705  0.4905  0.0263  0.8113
   41MOL   H117 5797   6.671   3.732   0.914  0.5507 -1.0474 -0.0555
   41MOL   H118 5798   6.534   3.619   0.888 -1.3998 -0.5802 -0.7672
   41MOL   H119 5799   6.464   3.741   0.697  0.5290 -1.4520  0.1570
   41MOL   H120 5800   6.623   3.889   0.611  0.1683 -1.5569  0.6306
   41MOL   C121 5801   6.664   3.646   0.657 -0.0760 -0.2195 -0.1400
   41MOL   C122 5802   6.618   3.498   0.667  0.0193 -0.0026  0.0280
   41MOL   O123 5803   6.480   3.494   0.619 -0.9098  0.1031  0.0948
   41MOL   H124 5804   6.670   3.671   0.551  2.1328  0.1161  0.0376
   41MOL   H125 5805   6.767   3.655   0.691  0.5865  0.3958 -2.2433
   41MOL   H126 5806   6.597   3.473   0.771  2.2512  0.5643  0.6356
   41MOL   H127 5807   6.430   3.436   0.674 -2.8801  1.7615  0.1227
   41MOL   C128 5808   6.711   3.397   0.588 -0.3377 -0.4882  0.2162
   41MOL   C129 5809   6.729   3.256   0.651 -0.4157 -1.3302  0.1764
   41MOL   O130 5810   6.808   3.169   0.576 -0.4219  0.4454 -0.1589
   41MOL   H131 5811   6.685   3.392   0.482 -1.0664  1.2086  0.3045
   41MOL   H132 5812   6.806   3.449   0.596  0.4848 -1.6223 -1.7413
   41MOL   H133 5813   6.635   3.200   0.652 -0.5648 -1.0696  0.9881
   41MOL   H134 5814   6.815   3.085   0.620  1.0721 -0.5259 -2.1583
   41MOL   C135 5815   6.793   3.257   0.792  0.4194  0.5977  0.8645
   41MOL   C136 5816   6.934   3.322   0.806  0.6072  0.0572  0.1986
   41MOL   O137 5817   7.013   3.289   0.913 -0.1347 -0.2578 -0.2294
   41MOL   H138 5818   6.726   3.299   0.867  0.2826  1.2477  0.3777
   41MOL   H139 5819   6.799   3.155   0.830 -0.1757 -1.0423 -3.1786
   41MOL   H140 5820   6.915   3.429   0.806  0.0171 -0.0298  1.3944
   41MOL   H141 5821   7.055   3.367   0.946  0.0658 -1.0846  1.5456
   41MOL   H142 5822   6.983   3.298   0.712  0.8463  3.5150 -0.6184
   42MOL     C1 5823   2.552   6.682   0.391  0.1560 -0.0928  0.2487
   42MOL     C2 5824   2.627   6.554   0.412  0.8025 -0.5838 -0.4799
   42MOL     O3 5825   2.654   6.513   0.279  0.2425  0.1174 -0.3449
   42MOL     H4 5826   2.463   6.666   0.330  0.6691 -0.1343 -0.5018
   42MOL     H5 5827   2.626   6.747   0.342 -0.8763  3.4087  3.0926
   42MOL     H6 5828   2.557   6.480   0.452  0.0979 -0.0203 -0.6747
   42MOL     H7 5829   2.730   6.555   0.242 -0.1218 -0.7377 -2.1219
   42MOL     H8 5830   2.526   6.736   0.482  1.4086  0.6277  0.1916
   42MOL     C9 5831   2.760   6.565   0.492  0.0298  0.3448 -0.0769
   42MOL    C10 5832   2.740   6.630   0.631 -0.2987  0.5101 -0.2617
   42MOL    O11 5833   2.810   6.553   0.725  0.3016 -0.4187 -0.2778
   42MOL    H12 5834   2.781   6.458   0.499 -1.5323 -0.0328 -0.8060
   42MOL    H13 5835   2.841   6.614   0.437  1.1604 -1.0462  0.3074
   42MOL    H14 5836   2.635   6.628   0.658 -0.1774 -1.1510  0.1702
   42MOL    H15 5837   2.751   6.482   0.745  0.4911 -0.5822 -0.3051
   42MOL    C16 5838   2.805   6.770   0.637 -0.2791  0.0312  0.5848
   42MOL    C17 5839   2.743   6.859   0.743  0.1502  0.2329  0.9848
   42MOL    O18 5840   2.790   6.805   0.860  0.3692  0.0893  0.0087
   42MOL    H19 5841   2.914   6.768   0.639 -0.2872  0.4671  3.2506
   42MOL    H20 5842   2.785   6.823   0.544  0.9834  1.5198  1.1426
   42MOL    H21 5843   2.637   6.846   0.764  0.2321 -0.1630  1.1650
   42MOL    H22 5844   2.827   6.722   0.834 -0.1731 -1.2262  3.1972
   42MOL    C23 5845   2.780   7.010   0.737 -0.1895  0.1346 -0.1907
   42MOL    C24 5846   2.718   7.091   0.626  0.3565  0.0881  0.5438
   42MOL    O25 5847   2.784   7.076   0.498 -0.4282 -0.5281  0.1374
   42MOL    H26 5848   2.751   7.045   0.837  0.9947 -2.6632  1.1831
   42MOL    H27 5849   2.888   7.025   0.731 -0.2755  1.3893  0.9834
   42MOL    H28 5850   2.735   7.194   0.658 -1.9068  1.0634 -1.2703
   42MOL    H29 5851   2.736   7.124   0.432  1.9767 -0.3527 -1.5681
   42MOL    C30 5852   2.566   7.080   0.610 -0.4448 -0.3535  0.6109
   42MOL    C31 5853   2.485   7.098   0.739 -0.4346  1.0070  0.1918
   42MOL    O32 5854   2.508   7.232   0.788 -0.3974  0.1370 -0.3344
   42MOL    H33 5855   2.527   7.149   0.535 -0.3450 -1.8031 -0.8032
   42MOL    H34 5856   2.530   6.986   0.567 -2.1938  0.9622 -0.9103
   42MOL    H35 5857   2.508   7.023   0.815  0.3097 -0.7074 -1.6744
   42MOL    H36 5858   2.456   7.294   0.738 -0.4953  0.6006  0.3395
   42MOL    C37 5859   2.338   7.072   0.715  0.0524 -0.4288 -0.6369
   42MOL    C38 5860   2.296   6.926   0.691  0.3812  0.4034 -0.0561
   42MOL    O39 5861   2.244   6.882   0.813 -0.6577 -0.4323  0.2353
   42MOL    H40 5862   2.295   7.107   0.809  0.5317 -0.6643 -0.3288
   42MOL    H41 5863   2.304   7.148   0.644 -0.3769 -0.2800 -0.2735
   42MOL    H42 5864   2.374   6.851   0.679 -1.7459 -1.5799 -1.9055
   42MOL    H43 5865   2.176   6.945   0.830 -0.6023 -0.3689  0.2232
   42MOL    C44 5866   2.185   6.901   0.575 -0.7361 -0.1566  0.9095
   42MOL    C45 5867   2.185   6.752   0.523 -0.7141 -0.1896  0.1886
   42MOL    O46 5868   2.139   6.659   0.618  0.5097  0.0708 -0.6763
   42MOL    H47 5869   2.082   6.916   0.606 -1.4886 -1.6916 -0.7790
   42MOL    H48 5870   2.208   6.966   0.491  1.3360  0.2087  1.7245
   42MOL    H49 5871   2.290   6.729   0.506 -0.6242  0.0897  0.3594
   42MOL    H50 5872   2.191   6.663   0.697 -0.9093 -0.1218  0.3023
   42MOL    C51 5873   2.097   6.715   0.396 -0.8230  0.1478 -0.3017
   42MOL    C52 5874   2.132   6.808   0.277 -0.6088  0.2280  0.2585
   42MOL    O53 5875   2.276   6.821   0.247 -0.2674 -0.4308  0.0714
   42MOL    H54 5876   2.123   6.614   0.365 -0.0708  0.4658 -0.7269
   42MOL    H55 5877   1.992   6.722   0.422 -0.6509  2.3238 -0.0833
   42MOL    H56 5878   2.090   6.906   0.296  2.0719  1.5816 -0.5906
   42MOL    H57 5879   2.300   6.759   0.180  0.9397  0.5662 -0.4311
   42MOL    C58 5880   2.067   6.768   0.148 -0.0548  0.1241  0.7950
   42MOL    C59 5881   1.913   6.784   0.132 -0.1345  0.1748  0.2229
   42MOL    O60 5882   1.867   6.914   0.151 -0.4828  0.2205  0.3481
   42MOL    H61 5883   2.113   6.835   0.075 -1.6056  0.8409  0.4661
   42MOL    H62 5884   2.107   6.675   0.107  0.1270  0.8121 -0.6116
   42MOL    H63 5885   1.875   6.705   0.197  1.5291 -1.6813 -0.9993
   42MOL    H64 5886   1.776   6.918   0.124 -1.0904  1.1459  2.4487
   42MOL    C65 5887   1.869   6.742   7.509  0.7340  0.0935 -0.3863
   42MOL    C66 5888   1.722   6.732   7.485  0.8376  0.0038 -0.3468
   42MOL    O67 5889   1.676   6.863   7.466 -0.0205  0.3569  0.2292
   42MOL    H68 5890   1.919   6.801   7.433 -2.0607  0.3320 -2.1172
   42MOL    H69 5891   1.914   6.643   7.503  1.5785  0.4458  0.0604
   42MOL    H70 5892   1.678   6.689   0.056 -0.6263  1.3118 -0.4225
   42MOL    H71 5893   1.727   6.905   7.399  0.8194  0.7273  1.0828
   42MOL    C72 5894   1.683   6.642   7.361 -0.1766 -0.9438 -0.1584
   42MOL    C73 5895   1.535   6.601   7.366 -0.3645  0.1340 -0.7599
   42MOL    O74 5896   1.489   6.606   7.238 -0.1780 -0.1451  0.7517
   42MOL    H75 5897   1.701   6.693   7.267  1.1237  1.9759  1.6024
   42MOL    H76 5898   1.744   6.553   7.342  0.4935 -0.1167 -2.0225
   42MOL    H77 5899   1.467   6.669   7.418  1.6501  0.3748  1.7193
   42MOL    H78 5900   1.505   6.693   7.205  0.9167 -0.4813  0.3797
   42MOL    C79 5901   1.514   6.456   7.410  0.1250 -0.6071  0.0201
   42MOL    C80 5902   1.510   6.436   0.044  0.8290  0.1515  0.5846
   42MOL    O81 5903   1.397   6.502   0.105  0.3388  0.3330  0.8472
   42MOL    H82 5904   1.425   6.415   7.362  0.5958  1.0224 -2.3188
   42MOL    H83 5905   1.590   6.391   7.367 -1.5429 -3.1379  0.7576
   42MOL    H84 5906   1.598   6.488   0.083 -0.3893  1.5837  1.4712
   42MOL    H85 5907   1.392   6.461   0.190  2.7971 -2.4397 -0.2728
   42MOL    C86 5908   1.541   6.294   0.094  0.1363 -0.1192 -0.3750
   42MOL    C87 5909   1.438   6.183   0.058 -0.3525  0.0093 -0.2794
   42MOL    O88 5910   1.495   6.056   0.093  0.1823  0.5281 -0.3346
   42MOL    H89 5911   1.637   6.258   0.056  0.5330  1.4102 -0.8631
   42MOL    H90 5912   1.557   6.307   0.201 -1.4075 -1.1225 -0.0113
   42MOL    H91 5913   1.426   6.182   7.469 -0.0656 -2.2804 -0.3178
   42MOL    H92 5914   1.420   6.006   0.122  1.3746 -1.9089 -1.3706
   42MOL    C93 5915   1.301   6.202   0.131  0.9846 -0.2599  0.0062
   42MOL    C94 5916   1.197   6.088   0.098  0.2197 -0.6319  0.1931
   42MOL    O95 5917   1.257   5.971   0.156 -0.1880 -0.6716 -0.0855
   42MOL    H96 5918   1.304   6.205   0.240 -0.9077  2.0425  0.0272
   42MOL    H97 5919   1.274   6.302   0.099  0.4395 -0.1085  0.9364
   42MOL    H98 5920   1.183   6.075   7.510 -0.9022 -0.2080  0.2810
   42MOL    H99 5921   1.194   5.900   0.157 -0.5920 -0.3038  0.5751
   42MOL   C100 5922   1.061   6.106   0.166 -0.0449  0.1306 -0.3024
   42MOL   C101 5923   0.961   5.996   0.124 -0.1472 -0.0117  0.2386
   42MOL   O102 5924   1.006   5.866   0.161 -0.4210 -0.6542 -0.1546
   42MOL   H103 5925   1.060   6.108   0.275  2.9718 -3.4217 -0.1108
   42MOL   H104 5926   1.020   6.203   0.139  0.4120  0.1163 -1.0449
   42MOL   H105 5927   0.956   5.998   0.015 -0.4836 -0.5962  0.2408
   42MOL   H106 5928   0.952   5.802   0.118 -2.6342  0.7360  0.4430
   42MOL   C107 5929   0.817   6.009   0.189  0.0576 -0.1704  0.0549
   42MOL   C108 5930   0.739   6.140   0.163  0.0835  0.1561 -0.4431
   42MOL   O109 5931   0.697   6.122   0.031  0.4684 -0.6524 -1.2343
   42MOL   H110 5932   0.749   5.927   0.165 -2.7217  2.6163 -2.1404
   42MOL   H111 5933   0.818   6.003   0.297  1.4438  1.4697  0.1536
   42MOL   H112 5934   0.797   6.232   0.158 -1.3136  1.1503  0.9567
   42MOL   H113 5935   0.694   6.209   7.514 -0.9006 -0.9684 -1.8704
   42MOL   C114 5936   0.628   6.150   0.265  0.0415  0.4260 -0.1636
   42MOL   C115 5937   0.538   6.278   0.250  1.3095  0.7095 -0.7353
   42MOL   O116 5938   0.399   6.242   0.283  0.0907 -0.0798 -0.1693
   42MOL   H117 5939   0.565   6.061   0.267 -1.8826  1.7733  1.2060
   42MOL   H118 5940   0.672   6.150   0.365 -0.7616 -1.3873  0.2058
   42MOL   H119 5941   0.530   6.299   0.144  1.9051  0.0314 -0.9183
   42MOL   H120 5942   0.393   6.163   0.232 -2.7070  0.0668 -0.1696
   42MOL   C121 5943   0.578   6.405   0.326 -0.2355 -0.2449 -0.1641
   42MOL   C122 5944   0.726   6.452   0.313  0.3340  0.5063  0.4635
   42MOL   O123 5945   0.770   6.493   0.186  0.0310 -0.2072  0.2990
   42MOL   H124 5946   0.517   6.493   0.307  1.5466  1.1968  0.5973
   42MOL   H125 5947   0.560   6.387   0.432  1.6083 -0.6030  0.1127
   42MOL   H126 5948   0.784   6.363   0.338 -0.3907  0.0856  0.6625
   42MOL   H127 5949   0.721   6.573   0.176  1.3779  0.7292  1.1585
   42MOL   C128 5950   0.758   6.563   0.408  0.1299 -0.3502 -0.6541
   42MOL   C129 5951   0.902   6.627   0.412 -0.1137  0.3708 -0.3449
   42MOL   O130 5952   0.907   6.748   0.487 -0.1403  0.1789  0.1843
   42MOL   H131 5953   0.689   6.645   0.391  1.1438  0.7864  0.6295
   42MOL   H132 5954   0.754   6.529   0.512  0.8365  0.0647 -0.4918
   42MOL   H133 5955   0.939   6.669   0.319  0.2521  0.5946 -0.0946
   42MOL   H134 5956   0.996   6.777   0.495 -0.1768  0.3187  0.0854
   42MOL   C135 5957   1.010   6.530   0.470  0.1417 -0.1807  0.3539
   42MOL   C136 5958   1.087   6.439   0.368 -0.0750  0.2432 -0.0272
   42MOL   O137 5959   1.132   6.327   0.435  0.2979 -0.2156 -0.4129
   42MOL   H138 5960   1.091   6.587   0.517  1.4526 -1.6947 -0.0097
   42MOL   H139 5961   0.961   6.477   0.552 -0.0665  0.6842  0.7952
   42MOL   H140 5962   1.166   6.489   0.312 -0.6484  1.3286  0.1236
   42MOL   H141 5963   1.066   6.278   0.483 -1.1439  2.4415  0.4064
   42MOL   H142 5964   1.026   6.383   0.296  0.1241  1.4679 -1.1616
   43MOL     C1 5965   3.553   6.134   6.168  0.9008  0.0804  0.4000
   43MOL     C2 5966   3.573   6.003   6.095  0.4468 -0.0659  0.6517
   43MOL     O3 5967   3.637   6.026   5.975  0.2668  0.5529 -0.2285
   43MOL     H4 5968   3.492   6.204   6.112  2.0495  1.9048  1.3997
   43MOL     H5 5969   3.649   6.173   6.202  0.9375 -0.6924  1.2324
   43MOL     H6 5970   3.479   5.957   6.063  1.3885 -0.7311 -1.1926
   43MOL     H7 5971   3.578   6.068   5.915  1.2843  2.0321 -0.2159
   43MOL     H8 5972   3.499   6.113   6.261 -0.9882  1.9778 -0.2202
   43MOL     C9 5973   3.662   5.911   6.180 -0.3885 -0.6786 -0.0403
   43MOL    C10 5974   3.676   5.770   6.127  0.3486 -0.2800 -0.1435
   43MOL    O11 5975   3.737   5.780   5.991 -0.5738  0.4975  0.2762
   43MOL    H12 5976   3.758   5.959   6.201 -1.1753  0.1295  1.8544
   43MOL    H13 5977   3.611   5.889   6.274  1.2382 -0.3813  0.9331
   43MOL    H14 5978   3.576   5.731   6.108  0.0597  0.5887 -0.4848
   43MOL    H15 5979   3.700   5.859   5.957 -0.0778 -0.5961 -2.9382
   43MOL    C16 5980   3.764   5.680   6.212  0.0143  0.3241  0.6341
   43MOL    C17 5981   3.702   5.615   6.331 -0.1448  0.1674 -0.2032
   43MOL    O18 5982   3.613   5.517   6.285  0.5736  0.1712 -0.1870
   43MOL    H19 5983   3.790   5.603   6.139  0.3499  0.5295  0.5385
   43MOL    H20 5984   3.848   5.747   6.230  0.6242 -0.3635  0.3404
   43MOL    H21 5985   3.650   5.682   6.399  1.1704  0.0479  0.9497
   43MOL    H22 5986   3.525   5.552   6.291  0.3674 -0.5029  0.8343
   43MOL    C23 5987   3.814   5.538   6.409  0.3054 -0.6262 -0.0883
   43MOL    C24 5988   3.778   5.422   6.510 -0.6214 -0.0078 -0.0144
   43MOL    O25 5989   3.896   5.346   6.531  0.7503 -0.3598 -0.1017
   43MOL    H26 5990   3.868   5.487   6.330  1.0257  0.9055 -0.6200
   43MOL    H27 5991   3.880   5.610   6.459 -0.4204  0.2371 -0.3595
   43MOL    H28 5992   3.711   5.359   6.450  0.8319  0.6834 -2.4278
   43MOL    H29 5993   3.877   5.273   6.588 -2.1913 -0.2453 -0.8512
   43MOL    C30 5994   3.711   5.462   6.641  0.7003 -0.3553  0.0378
   43MOL    C31 5995   3.771   5.568   6.728  0.3680 -0.2938  0.2180
   43MOL    O32 5996   3.674   5.595   6.828  0.2602  0.1282  0.6737
   43MOL    H33 5997   3.616   5.502   6.604  1.1037  2.3724  1.8469
   43MOL    H34 5998   3.683   5.372   6.696  0.8144  0.7754  1.9578
   43MOL    H35 5999   3.787   5.660   6.672 -1.3124 -0.6294 -0.8709
   43MOL    H36 6000   3.610   5.649   6.784  0.2864  0.0886  0.5880
   43MOL    C37 6001   3.904   5.511   6.791  0.2579 -0.2403  0.0864
   43MOL    C38 6002   3.964   5.600   6.903  0.1665  0.7905 -0.1482
   43MOL    O39 6003   4.086   5.541   6.938 -0.1400 -0.5023 -0.0815
   43MOL    H40 6004   3.868   5.412   6.818 -0.7982 -0.3510 -1.6468
   43MOL    H41 6005   3.980   5.481   6.719  1.6347 -1.0812  1.8742
   43MOL    H42 6006   3.888   5.608   6.981  0.7600  2.4222  0.2791
   43MOL    H43 6007   4.070   5.468   6.996  1.1109 -0.1214  0.7566
   43MOL    C44 6008   4.006   5.744   6.850 -0.8266  0.2835 -0.7299
   43MOL    C45 6009   4.089   5.840   6.948  0.9035  0.0435 -0.1408
   43MOL    O46 6010   4.118   5.965   6.883 -0.0426 -0.0154 -0.2117
   43MOL    H47 6011   4.056   5.727   6.755 -0.1044 -2.4415  0.0975
   43MOL    H48 6012   3.908   5.791   6.837 -1.0427  1.0632  2.9676
   43MOL    H49 6013   4.188   5.797   6.962  2.0292  2.2677 -1.0228
   43MOL    H50 6014   4.042   6.019   6.867  0.4647  0.2462 -1.8771
   43MOL    C51 6015   4.014   5.874   7.085 -0.5203 -0.0774 -0.6357
   43MOL    C52 6016   4.113   5.921   7.185  0.3177 -0.3499  0.1554
   43MOL    O53 6017   4.048   6.035   7.243  0.2467  0.0342 -0.0026
   43MOL    H54 6018   3.939   5.951   7.063 -1.4447 -1.3593 -2.0615
   43MOL    H55 6019   3.958   5.782   7.103 -2.0279  0.7840 -0.7902
   43MOL    H56 6020   4.206   5.946   7.134  1.8492 -3.7373  1.0801
   43MOL    H57 6021   4.095   6.110   7.212 -0.6221  0.2106 -0.9041
   43MOL    C58 6022   4.122   5.813   7.301 -0.1638  0.1403  0.3154
   43MOL    C59 6023   4.179   5.861   7.431  0.8191  0.4668  0.3830
   43MOL    O60 6024   4.149   5.761   0.015 -0.0541 -0.2080  0.6988
   43MOL    H61 6025   4.021   5.776   7.318 -0.5177 -0.2462 -2.4037
   43MOL    H62 6026   4.160   5.716   7.269 -0.0734  0.7437 -1.4607
   43MOL    H63 6027   4.132   5.955   7.461 -1.3099 -0.2333 -0.6989
   43MOL    H64 6028   4.170   5.804   0.097 -1.5931  2.7426 -0.3909
   43MOL    C65 6029   4.330   5.874   7.421  0.0208 -0.8555  0.0981
   43MOL    C66 6030   4.415   5.942   0.013  0.5191  0.5005 -0.1219
   43MOL    O67 6031   4.552   5.901   0.001  0.2925  0.6170 -0.3562
   43MOL    H68 6032   4.361   5.771   7.407  0.4342 -0.4542 -2.0957
   43MOL    H69 6033   4.358   5.926   7.330 -1.0416  2.1385  1.4148
   43MOL    H70 6034   4.374   5.914   0.109  0.4275 -2.2402 -0.9151
   43MOL    H71 6035   4.572   5.854   0.081  0.1773 -0.8888 -1.1961
   43MOL    C72 6036   4.403   6.099   0.001 -1.2654 -0.1665  0.0086
   43MOL    C73 6037   4.496   6.169   0.105  0.4329  0.5762  0.0941
   43MOL    O74 6038   4.502   6.303   0.072  0.2850  0.2148 -0.2405
   43MOL    H75 6039   4.421   6.129   7.417 -1.7815 -0.2936 -0.1206
   43MOL    H76 6040   4.302   6.135   0.019 -0.1527  3.0635  0.0523
   43MOL    H77 6041   4.592   6.122   0.085 -0.1657 -0.9752  0.7493
   43MOL    H78 6042   4.586   6.340   0.093  0.6980 -0.4693 -0.7026
   43MOL    C79 6043   4.452   6.156   0.258  0.0598 -0.0728 -0.1092
   43MOL    C80 6044   4.568   6.142   0.364  0.0960  0.1885 -1.0222
   43MOL    O81 6045   4.500   6.123   0.492 -0.1661 -0.7480  0.3557
   43MOL    H82 6046   4.366   6.218   0.282 -1.1121 -2.0562  0.9962
   43MOL    H83 6047   4.404   6.058   0.266 -1.6697  0.3855 -3.7059
   43MOL    H84 6048   4.628   6.233   0.351  1.7780 -0.9732 -1.5561
   43MOL    H85 6049   4.537   6.176   0.561  0.9675  1.3324 -1.7622
   43MOL    C86 6050   4.658   6.018   0.356  0.1264  0.4126  0.4065
   43MOL    C87 6051   4.782   6.041   0.445 -0.4940 -0.0326 -0.0503
   43MOL    O88 6052   4.748   6.025   0.581 -0.0772  0.4684 -0.0734
   43MOL    H89 6053   4.598   5.929   0.373  0.3509  0.0781 -0.4941
   43MOL    H90 6054   4.691   6.013   0.252 -1.6640  0.7021 -0.1890
   43MOL    H91 6055   4.819   6.142   0.427 -4.3295  1.1357 -1.9118
   43MOL    H92 6056   4.729   6.109   0.621 -0.7554 -0.4237  1.5252
   43MOL    C93 6057   4.898   5.952   0.413  0.3803  0.1402  0.3266
   43MOL    C94 6058   5.012   5.941   0.515 -0.2418 -1.0446  0.5384
   43MOL    O95 6059   5.096   5.840   0.462  0.2288  0.3825  0.1343
   43MOL    H96 6060   4.865   5.849   0.400  0.0746  0.1991  0.6265
   43MOL    H97 6061   4.943   5.974   0.316 -0.4188  0.3500  0.0019
   43MOL    H98 6062   4.978   5.920   0.617 -2.1767  0.1683  0.1490
   43MOL    H99 6063   5.074   5.757   0.501  1.4943 -1.0958 -2.1575
   43MOL   C100 6064   5.100   6.070   0.528 -0.5299 -0.0802  0.1853
   43MOL   C101 6065   5.082   6.156   0.655  0.0973  1.1091  0.1137
   43MOL   O102 6066   5.150   6.099   0.760 -0.2925  0.4950 -0.0645
   43MOL   H103 6067   5.205   6.044   0.535 -0.1233  0.9269 -2.0202
   43MOL   H104 6068   5.088   6.133   0.440  1.8221 -0.2749 -0.2928
   43MOL   H105 6069   4.976   6.149   0.679 -0.2415  1.4883 -1.2318
   43MOL   H106 6070   5.241   6.080   0.746 -0.0148  0.5185  1.5663
   43MOL   C107 6071   5.125   6.306   0.639  0.0821  0.3002  0.4626
   43MOL   C108 6072   5.013   6.383   0.574 -0.1287  0.1969 -0.0870
   43MOL   O109 6073   4.888   6.387   0.635 -0.6865 -0.6883 -0.2387
   43MOL   H110 6074   5.167   6.347   0.731 -0.3067  0.8530  0.4028
   43MOL   H111 6075   5.211   6.298   0.574  0.8993 -0.1995  1.6032
   43MOL   H112 6076   4.996   6.337   0.476 -1.1022 -0.8703  0.5613
   43MOL   H113 6077   4.904   6.412   0.725 -0.2989 -0.3978 -0.3921
   43MOL   C114 6078   5.062   6.527   0.557 -0.3901 -0.4815 -0.0976
   43MOL   C115 6079   5.174   6.552   0.458 -0.7477 -0.0393  0.0740
   43MOL   O116 6080   5.119   6.548   0.329 -0.3638  0.3034  0.4663
   43MOL   H117 6081   4.973   6.583   0.527  1.0463  1.4531 -0.8344
   43MOL   H118 6082   5.074   6.569   0.657  1.6759  0.9692 -0.9239
   43MOL   H119 6083   5.253   6.479   0.472 -2.4989 -1.6580  1.8388
   43MOL   H120 6084   5.162   6.610   0.272  0.8507  0.0831  1.1139
   43MOL   C121 6085   5.244   6.691   0.470  0.5003 -0.7437  0.5715
   43MOL   C122 6086   5.347   6.712   0.583 -0.6158  0.2808 -0.1220
   43MOL   O123 6087   5.293   6.666   0.704 -0.2473  0.3483 -0.2330
   43MOL   H124 6088   5.284   6.741   0.382 -0.2997 -3.3885 -1.3564
   43MOL   H125 6089   5.173   6.770   0.494  2.4285  1.1094  0.2356
   43MOL   H126 6090   5.378   6.816   0.594  0.1255 -0.0244  0.6964
   43MOL   H127 6091   5.343   6.703   0.775 -2.1956 -2.4189  2.7703
   43MOL   C128 6092   5.473   6.629   0.553 -0.0069  0.1665 -0.1004
   43MOL   C129 6093   5.575   6.693   0.461 -0.5464 -0.0851  0.1185
   43MOL   O130 6094   5.638   6.798   0.538  0.0467  0.2848  0.3123
   43MOL   H131 6095   5.530   6.604   0.643 -0.7347 -0.7731  0.1087
   43MOL   H132 6096   5.448   6.536   0.502  6.1917 -0.6626 -2.0421
   43MOL   H133 6097   5.537   6.733   0.368  1.5942  0.3637 -0.5951
   43MOL   H134 6098   5.677   6.854   0.472  1.0523 -2.6780 -1.7094
   43MOL   C135 6099   5.676   6.584   0.428  0.3890  0.1709 -0.1167
   43MOL   C136 6100   5.786   6.611   0.331 -0.0949 -0.5573 -1.2365
   43MOL   O137 6101   5.734   6.607   0.203  0.0817 -0.0969  0.2076
   43MOL   H138 6102   5.715   6.565   0.528  1.3802 -0.1113 -0.5493
   43MOL   H139 6103   5.626   6.491   0.403  0.2889  0.1090  0.3048
   43MOL   H140 6104   5.853   6.525   0.344 -1.0594 -1.3278 -1.3165
   43MOL   H141 6105   5.795   6.549   0.159  0.8736  2.1234 -1.7123
   43MOL   H142 6106   5.848   6.698   0.353  1.9567 -2.2003 -0.2604
   44MOL     C1 6107   1.835   0.051   5.340 -0.1929 -0.5347  0.4521
   44MOL     C2 6108   1.882   7.451   5.254 -0.4319 -0.4897 -0.2309
   44MOL     O3 6109   1.899   7.502   5.123  0.1380  0.4163  0.4938
   44MOL     H4 6110   1.803   0.025   5.440 -0.1330  1.2657  0.9472
   44MOL     H5 6111   1.753   0.101   5.290  0.9093 -0.8577 -1.7575
   44MOL     H6 6112   1.793   7.389   5.250 -1.0913  0.5206 -1.6228
   44MOL     H7 6113   1.958   7.442   5.081  0.0742  1.2205 -0.7510
   44MOL     H8 6114   1.917   0.120   5.359  1.8055 -2.5900 -0.4419
   44MOL     C9 6115   2.002   7.375   5.314 -0.4110 -0.3207 -0.5701
   44MOL    C10 6116   2.002   7.227   5.299  0.0415  0.1570  0.5370
   44MOL    O11 6117   2.052   7.195   5.174  0.2064 -0.5584 -0.5961
   44MOL    H12 6118   2.093   7.427   5.284 -1.9389  1.7741 -1.6910
   44MOL    H13 6119   2.004   7.386   5.422  2.9049 -2.1118 -0.3665
   44MOL    H14 6120   1.903   7.182   5.310  0.0181  0.5177  1.9591
   44MOL    H15 6121   1.986   7.142   5.132  1.0936 -1.7986 -0.4736
   44MOL    C16 6122   2.092   7.157   5.398  0.0824 -0.2299 -0.6942
   44MOL    C17 6123   2.039   7.143   5.540  0.5745  0.1466  0.3912
   44MOL    O18 6124   1.947   7.040   5.541  0.0514  0.3443 -1.1006
   44MOL    H19 6125   2.105   7.054   5.366  4.1112 -1.1754  3.4352
   44MOL    H20 6126   2.192   7.200   5.388  0.3305 -0.8013 -0.6975
   44MOL    H21 6127   1.987   7.232   5.575  0.2724 -0.8846  2.6940
   44MOL    H22 6128   1.984   6.953   5.540 -0.3111  0.1656  0.1472
   44MOL    C23 6129   2.144   7.118   5.648  0.1705  0.2090  0.4195
   44MOL    C24 6130   2.216   7.255   5.679 -0.3843 -0.1424 -0.2444
   44MOL    O25 6131   2.171   7.303   5.799 -0.1496  0.4162 -0.1792
   44MOL    H26 6132   2.088   7.081   5.734  1.1765 -0.2686  0.8713
   44MOL    H27 6133   2.208   7.033   5.622 -0.6612 -0.7428  1.4248
   44MOL    H28 6134   2.185   7.333   5.610  1.0151  2.6217  2.0819
   44MOL    H29 6135   2.077   7.303   5.798 -0.1647 -1.1028  0.5446
   44MOL    C30 6136   2.370   7.242   5.684  0.4233  0.3768  1.1125
   44MOL    C31 6137   2.431   7.215   5.546  0.1581 -0.0519  0.1982
   44MOL    O32 6138   2.447   7.341   5.485 -0.4797  0.2571  0.8553
   44MOL    H33 6139   2.418   7.327   5.732 -1.3987  3.3242 -2.0694
   44MOL    H34 6140   2.397   7.153   5.741 -0.4415 -0.6226 -0.0076
   44MOL    H35 6141   2.363   7.164   5.478 -1.0940  0.0388  1.3577
   44MOL    H36 6142   2.502   7.401   5.534  0.3519 -0.8865  1.3463
   44MOL    C37 6143   2.565   7.139   5.553 -0.5321 -0.6479  0.0676
   44MOL    C38 6144   2.627   7.109   5.417 -1.0428  0.1729  0.2287
   44MOL    O39 6145   2.771   7.085   5.440  0.6406 -0.1254 -0.0678
   44MOL    H40 6146   2.637   7.199   5.609  1.8511 -2.6513 -0.7455
   44MOL    H41 6147   2.548   7.051   5.616  2.1074 -0.2566  1.4234
   44MOL    H42 6148   2.631   7.205   5.367  0.4287  0.7357  1.3983
   44MOL    H43 6149   2.804   7.168   5.470  3.4100 -1.6444  1.2747
   44MOL    C44 6150   2.567   6.994   5.341 -0.1276  0.3653 -0.1757
   44MOL    C45 6151   2.546   7.020   5.195  0.4105  0.3789  0.4573
   44MOL    O46 6152   2.474   6.906   5.165  0.1238  0.3131  0.1061
   44MOL    H47 6153   2.640   6.913   5.352 -0.3603  0.0485 -0.9006
   44MOL    H48 6154   2.480   6.955   5.394  0.0062 -0.6421 -0.6690
   44MOL    H49 6155   2.643   7.019   5.146  0.0289 -2.5907 -0.3058
   44MOL    H50 6156   2.532   6.834   5.186 -0.3465  0.1577  0.9070
   44MOL    C51 6157   2.453   7.135   5.175 -0.0697 -0.3878  0.5638
   44MOL    C52 6158   2.383   7.149   5.038  0.7489  0.0060  0.6400
   44MOL    O53 6159   2.302   7.261   5.061  0.0525  0.1654  0.1490
   44MOL    H54 6160   2.371   7.120   5.245 -2.0703  0.6388 -1.5009
   44MOL    H55 6161   2.501   7.230   5.197 -1.5025  0.0212  2.0267
   44MOL    H56 6162   2.330   7.057   5.016 -0.1525  1.2551 -2.7801
   44MOL    H57 6163   2.234   7.228   5.117  0.2489  1.7291  1.3612
   44MOL    C58 6164   2.469   7.176   4.909  0.1590 -0.3158 -0.8689
   44MOL    C59 6165   2.541   7.052   4.851  0.1302  0.1527  0.5660
   44MOL    O60 6166   2.433   6.966   4.808  0.2999  0.2371 -0.1477
   44MOL    H61 6167   2.402   7.205   4.827  0.2276 -1.1225 -1.2118
   44MOL    H62 6168   2.540   7.258   4.925 -1.6755  1.0407  0.5285
   44MOL    H63 6169   2.600   7.000   4.927  0.5993  0.0416  0.1242
   44MOL    H64 6170   2.466   6.892   4.760 -1.1385 -0.3587 -0.2418
   44MOL    C65 6171   2.632   7.072   4.726  0.3385  0.1782  0.2491
   44MOL    C66 6172   2.766   7.147   4.761 -0.2917  0.1822 -0.6556
   44MOL    O67 6173   2.858   7.055   4.814 -0.7184  0.0388 -0.2077
   44MOL    H68 6174   2.664   6.983   4.673 -1.5682 -1.3541  1.6019
   44MOL    H69 6175   2.576   7.118   4.645  2.6469 -1.2481 -2.2585
   44MOL    H70 6176   2.737   7.223   4.833 -3.4137 -1.3439 -0.2153
   44MOL    H71 6177   2.886   7.085   4.899 -2.1592 -2.9018  1.3721
   44MOL    C72 6178   2.812   7.235   4.644 -0.6554  0.5822  0.4996
   44MOL    C73 6179   2.757   7.374   4.617 -0.3730  0.2669  0.4258
   44MOL    O74 6180   2.622   7.375   4.616  0.1569 -0.1258  0.2594
   44MOL    H75 6181   2.920   7.252   4.653 -0.1984 -1.8137 -0.1651
   44MOL    H76 6182   2.810   7.178   4.551  0.2334 -2.4747  2.2783
   44MOL    H77 6183   2.794   7.408   4.520 -1.0407  2.5046  0.9277
   44MOL    H78 6184   2.598   7.308   4.553  2.1873 -0.1503 -0.5299
   44MOL    C79 6185   2.794   7.487   4.719 -1.1130  0.1977 -0.3607
   44MOL    C80 6186   2.943   7.519   4.735  0.2574  0.1509  0.0344
   44MOL    O81 6187   2.970   0.125   4.684  0.4496 -0.0174  0.2717
   44MOL    H82 6188   2.743   0.061   4.697  0.3277  1.0621 -0.0271
   44MOL    H83 6189   2.762   7.461   4.820 -1.7822 -1.7290 -1.0319
   44MOL    H84 6190   3.012   7.453   4.683 -0.8866  0.8013 -2.3732
   44MOL    H85 6191   2.958   0.184   4.757  0.8762  1.1521 -0.5711
   44MOL    C86 6192   2.983   0.011   4.888  0.1609  0.4863 -0.2917
   44MOL    C87 6193   3.016   7.401   4.959 -0.6609 -0.6451 -0.3172
   44MOL    O88 6194   3.126   7.327   4.913 -0.6105  0.6628  0.8011
   44MOL    H89 6195   3.082   0.058   4.884  1.7259 -2.7955 -2.1820
   44MOL    H90 6196   2.912   0.068   4.947  0.5846 -1.1631  1.8831
   44MOL    H91 6197   2.935   7.331   4.939 -0.6738 -0.7196 -0.0063
   44MOL    H92 6198   3.200   7.342   4.971 -1.5395  0.6881  2.0117
   44MOL    C93 6199   3.029   7.424   5.120  0.1717 -0.0148  0.6522
   44MOL    C94 6200   2.890   7.430   5.196  0.0392  0.1805  0.2034
   44MOL    O95 6201   2.832   7.300   5.200  0.1416  0.6259 -0.0019
   44MOL    H96 6202   3.077   7.331   5.151  0.2870 -0.8289 -1.8577
   44MOL    H97 6203   3.100   7.503   5.145  0.8386  0.0318 -1.2577
   44MOL    H98 6204   2.819   7.497   5.146 -1.0318  0.4834  2.0957
   44MOL    H99 6205   2.776   7.291   5.275 -1.1014 -3.2972 -1.2809
   44MOL   C100 6206   2.910   7.483   5.347  0.4888 -0.0681 -0.5956
   44MOL   C101 6207   2.786   7.479   5.442 -0.1422  0.5280  0.1855
   44MOL   O102 6208   2.783   7.347   5.496  0.0486  0.4296 -0.1113
   44MOL   H103 6209   2.987   7.434   5.407 -0.3763 -0.1373  0.4822
   44MOL   H104 6210   2.931   0.071   5.342  3.2926 -0.5784 -0.6470
   44MOL   H105 6211   2.697   7.498   5.381  1.2098  0.9842 -1.6643
   44MOL   H106 6212   2.732   7.372   5.571 -0.5652  0.2923 -0.4845
   44MOL   C107 6213   2.799   0.066   5.560  0.5465  0.5864 -0.0233
   44MOL   C108 6214   2.660   0.101   5.618  0.0302 -0.4427  0.1484
   44MOL   O109 6215   2.583   7.507   5.657  0.3132  0.4060  0.3035
   44MOL   H110 6216   2.866   0.026   5.637 -0.5922  0.0864  0.7200
   44MOL   H111 6217   2.845   0.158   5.525 -2.7724  1.7709 -1.3952
   44MOL   H112 6218   2.601   0.145   5.538  0.5279 -2.0697 -1.1283
   44MOL   H113 6219   2.624   7.464   5.731 -1.3929 -0.4408  0.7847
   44MOL   C114 6220   2.662   0.202   5.735 -0.0803 -0.4530  0.9310
   44MOL   C115 6221   2.696   0.347   5.687  0.5721 -0.2824  0.0833
   44MOL   O116 6222   2.599   0.392   5.591 -0.2572 -0.1958 -0.3608
   44MOL   H117 6223   2.572   0.187   5.794 -0.1722 -1.6639  0.4920
   44MOL   H118 6224   2.753   0.177   5.789 -0.0765 -0.8904  0.7206
   44MOL   H119 6225   2.789   0.341   5.631  1.2276  0.6709  1.0427
   44MOL   H120 6226   2.516   0.379   5.634 -0.5184  0.0361 -0.7871
   44MOL   C121 6227   2.690   0.457   5.799  0.7594  0.0602  0.8547
   44MOL   C122 6228   2.782   0.456   5.919  0.1523 -0.0165  0.0778
   44MOL   O123 6229   2.914   0.453   5.876  0.2824 -0.0852  0.1884
   44MOL   H124 6230   2.714   0.555   5.757 -0.7135  0.6509  1.3544
   44MOL   H125 6231   2.587   0.472   5.833  0.7050  0.0185  0.7099
   44MOL   H126 6232   2.763   0.365   5.975 -1.2863  0.7739  0.8965
   44MOL   H127 6233   2.943   0.536   5.841 -0.9572  0.5363  0.6109
   44MOL   C128 6234   2.762   0.580   6.004 -0.1562  0.6295 -0.2418
   44MOL   C129 6235   2.824   0.585   6.147 -0.3595 -0.5687  0.7258
   44MOL   O130 6236   2.824   0.722   6.193  0.2104 -0.0417 -0.0833
   44MOL   H131 6237   2.800   0.660   5.940 -0.1098  1.8273  1.2630
   44MOL   H132 6238   2.655   0.602   5.994  0.1069  1.5094 -1.2155
   44MOL   H133 6239   2.930   0.564   6.133 -0.3911 -0.3682  0.1948
   44MOL   H134 6240   2.916   0.746   6.196  0.0823  0.3698  0.5382
   44MOL   C135 6241   2.758   0.501   6.262 -0.8479 -0.0947  0.3510
   44MOL   C136 6242   2.851   0.389   6.306  0.0375 -0.1131 -0.1682
   44MOL   O137 6243   2.781   0.312   6.403 -0.6827 -0.4149 -0.0277
   44MOL   H138 6244   2.747   0.575   6.341  0.2014  0.3639  0.0825
   44MOL   H139 6245   2.657   0.466   6.245 -0.4536 -1.0158 -0.1357
   44MOL   H140 6246   2.952   0.410   6.339 -0.2554  1.3728 -0.2050
   44MOL   H141 6247   2.840   0.285   6.472 -3.2451  1.7828  3.2109
   44MOL   H142 6248   2.867   0.323   6.220 -1.2412 -2.5129  1.3797
   45MOL     C1 6249   2.102   5.682   6.715 -0.3914 -0.4637 -0.7567
   45MOL     C2 6250   2.068   5.822   6.775  0.1804  0.2056  0.9600
   45MOL     O3 6251   2.144   5.920   6.705  0.2233 -0.0997  0.1329
   45MOL     H4 6252   2.078   5.678   6.609 -1.1914 -2.5878 -0.5054
   45MOL     H5 6253   2.046   5.610   6.774  1.0427 -0.1823  0.9904
   45MOL     H6 6254   2.108   5.822   6.876  0.5632 -1.1418  0.8140
   45MOL     H7 6255   2.129   6.004   6.745  1.5422  2.0315 -3.5825
   45MOL     H8 6256   2.202   5.643   6.736  0.0668  1.8014  1.5656
   45MOL     C9 6257   1.914   5.853   6.782  0.0006 -0.0680  0.5651
   45MOL    C10 6258   1.871   5.979   6.857 -0.0650  0.5315  0.4352
   45MOL    O11 6259   1.891   6.099   6.783 -0.4209  0.3178 -0.3635
   45MOL    H12 6260   1.884   5.853   6.677 -0.8075 -0.5234  0.7978
   45MOL    H13 6261   1.853   5.769   6.813 -3.3197  2.3157  0.7847
   45MOL    H14 6262   1.931   5.999   6.945 -1.0330 -1.6656  1.6324
   45MOL    H15 6263   1.966   6.144   6.819 -0.0940 -0.9311  0.5617
   45MOL    C16 6264   1.721   5.970   6.908  0.6637  0.2335  0.7506
   45MOL    C17 6265   1.697   5.863   7.019  0.3886  0.0385  0.2261
   45MOL    O18 6266   1.718   5.934   7.139  0.6405  0.5687  0.7018
   45MOL    H19 6267   1.697   6.076   6.924 -1.3989 -0.0870 -0.0690
   45MOL    H20 6268   1.668   5.938   6.819  3.9873  2.2529 -2.1234
   45MOL    H21 6269   1.764   5.779   7.008  2.6460  1.7569  0.5734
   45MOL    H22 6270   1.670   6.015   7.132 -0.1217  0.1513  1.0120
   45MOL    C23 6271   1.555   5.806   7.018 -0.1205 -0.8629  0.3616
   45MOL    C24 6272   1.523   5.687   6.927  1.1963  0.2298  0.0040
   45MOL    O25 6273   1.396   5.636   6.980 -0.0213  0.8371  0.2130
   45MOL    H26 6274   1.547   5.767   7.120  1.2098 -0.2070  0.7371
   45MOL    H27 6275   1.477   5.882   7.011  0.0153 -0.8963 -1.5694
   45MOL    H28 6276   1.608   5.620   6.938  2.5160  2.1619  2.1026
   45MOL    H29 6277   1.390   5.637   7.074  1.1662 -0.8136  0.3223
   45MOL    C30 6278   1.498   5.730   6.780 -0.6083  0.0641  0.5180
   45MOL    C31 6279   1.447   5.612   6.700  0.1181 -0.8964  0.7841
   45MOL    O32 6280   1.423   5.647   6.563 -0.7865 -0.3499  0.5253
   45MOL    H33 6281   1.415   5.799   6.768  0.3966  1.0528 -0.8362
   45MOL    H34 6282   1.581   5.777   6.729 -0.7302 -0.6180 -0.3257
   45MOL    H35 6283   1.353   5.580   6.747  0.0383 -1.0838  0.4973
   45MOL    H36 6284   1.391   5.736   6.557  0.6432  0.1699  0.4391
   45MOL    C37 6285   1.553   5.501   6.680  0.6517  0.3097 -0.4324
   45MOL    C38 6286   1.535   5.376   6.772  0.9395  0.2103 -0.1102
   45MOL    O39 6287   1.411   5.311   6.742  0.4651  0.0515  0.3747
   45MOL    H40 6288   1.554   5.459   6.579  3.3920 -0.8940  0.0433
   45MOL    H41 6289   1.653   5.543   6.689  1.0353 -0.8080  0.7093
   45MOL    H42 6290   1.521   5.405   6.876  0.4041 -0.9349  0.1480
   45MOL    H43 6291   1.378   5.289   6.828  0.2748  0.1978  0.3389
   45MOL    C44 6292   1.649   5.273   6.759 -0.3780 -0.3960  0.8660
   45MOL    C45 6293   1.787   5.326   6.808 -0.1640 -0.2503  0.0190
   45MOL    O46 6294   1.776   5.357   6.949 -0.2162 -0.3009  0.2614
   45MOL    H47 6295   1.621   5.177   6.802  2.4895 -1.7553 -0.2093
   45MOL    H48 6296   1.654   5.246   6.654 -2.3912 -0.6187  0.8052
   45MOL    H49 6297   1.824   5.420   6.769  0.8421 -0.5549  0.2353
   45MOL    H50 6298   1.827   5.435   6.961  1.0116 -0.4676 -3.2268
   45MOL    C51 6299   1.906   5.235   6.777 -0.2555 -0.3068 -0.7169
   45MOL    C52 6300   1.956   5.251   6.625  0.6787 -0.9017 -1.0331
   45MOL    O53 6301   1.987   5.385   6.585 -0.2365  0.0872 -0.3287
   45MOL    H54 6302   1.984   5.263   6.847  1.1168  0.7113 -2.5953
   45MOL    H55 6303   1.877   5.132   6.798 -3.8633  0.7645  0.0091
   45MOL    H56 6304   1.867   5.223   6.568 -0.8528  0.1072  0.8201
   45MOL    H57 6305   1.970   5.407   6.494  0.4625  0.5968 -0.3387
   45MOL    C58 6306   2.064   5.149   6.592 -0.2419 -0.4615  0.2713
   45MOL    C59 6307   2.211   5.182   6.640  0.2162 -0.4617  0.2297
   45MOL    O60 6308   2.293   5.070   6.631  0.1689 -0.6173  0.0085
   45MOL    H61 6309   2.046   5.060   6.653  2.7017 -0.1578  1.6984
   45MOL    H62 6310   2.073   5.129   6.485  2.8141 -0.2431  0.4257
   45MOL    H63 6311   2.204   5.226   6.739 -2.4813 -0.2206 -0.0512
   45MOL    H64 6312   2.268   5.019   6.707 -0.7846  0.8160  0.6789
   45MOL    C65 6313   2.294   5.294   6.574  0.3814 -0.0709  0.0825
   45MOL    C66 6314   2.429   5.332   6.642 -0.6845  0.0571  0.2877
   45MOL    O67 6315   2.511   5.408   6.549  0.4239 -0.2809  0.7445
   45MOL    H68 6316   2.321   5.272   6.471  1.5879  2.4604 -0.1749
   45MOL    H69 6317   2.233   5.381   6.547  0.9972  0.5008  0.5419
   45MOL    H70 6318   2.479   5.239   6.668  0.6142  0.0288 -2.1610
   45MOL    H71 6319   2.467   5.492   6.549 -2.1733 -1.5747  0.1396
   45MOL    C72 6320   2.416   5.428   6.767 -0.7945 -0.9412  0.2547
   45MOL    C73 6321   2.547   5.475   6.835 -0.2647  0.0287  0.1859
   45MOL    O74 6322   2.509   5.572   6.925  0.4608 -0.2787  0.0686
   45MOL    H75 6323   2.359   5.515   6.737 -0.3027 -0.3038  1.1557
   45MOL    H76 6324   2.347   5.385   6.840 -1.1827  0.8878  0.9778
   45MOL    H77 6325   2.603   5.516   6.752 -1.2468  0.6976 -0.1602
   45MOL    H78 6326   2.498   5.649   6.871  2.4415  0.2883  0.4284
   45MOL    C79 6327   2.619   5.356   6.893 -0.0966 -0.5134  0.0099
   45MOL    C80 6328   2.753   5.388   6.959 -0.0130 -0.3160 -0.0796
   45MOL    O81 6329   2.809   5.277   7.019 -0.3958 -0.4661  0.8377
   45MOL    H82 6330   2.548   5.317   6.967 -0.6434  1.0992  0.3413
   45MOL    H83 6331   2.634   5.276   6.820  1.1850 -0.2927  0.0233
   45MOL    H84 6332   2.728   5.462   7.036 -0.8965  0.6684 -1.2893
   45MOL    H85 6333   2.762   5.238   7.092 -0.8502 -0.1705  0.7065
   45MOL    C86 6334   2.862   5.453   6.870  0.2920 -0.2874  0.3476
   45MOL    C87 6335   2.884   5.373   6.737  0.1744  0.1201  0.1335
   45MOL    O88 6336   2.991   5.454   6.681  0.0297  0.2753 -0.3974
   45MOL    H89 6337   2.816   5.549   6.846  0.4356  0.0608  1.4375
   45MOL    H90 6338   2.960   5.475   6.912  0.1943 -1.3919  1.1627
   45MOL    H91 6339   2.794   5.378   6.676 -1.7352 -0.4048  2.7948
   45MOL    H92 6340   3.067   5.404   6.656 -0.9949 -1.3961 -0.1969
   45MOL    C93 6341   2.927   5.227   6.739  0.6796 -0.0814 -0.0056
   45MOL    C94 6342   2.941   5.150   6.610  0.5901  0.2451  0.0488
   45MOL    O95 6343   2.994   5.019   6.642  0.2099 -0.0104  0.0549
   45MOL    H96 6344   3.027   5.231   6.784  0.6660 -0.1585  0.0323
   45MOL    H97 6345   2.863   5.170   6.806 -1.8634  1.3598 -1.1559
   45MOL    H98 6346   3.008   5.210   6.547  0.1985  2.1435  1.3765
   45MOL    H99 6347   3.013   4.983   6.557 -1.2169 -2.0519  0.5670
   45MOL   C100 6348   2.810   5.126   6.532  0.5393  0.2827  0.3105
   45MOL   C101 6349   2.823   5.131   6.378 -0.1770  0.4668 -0.7850
   45MOL   O102 6350   2.736   5.035   6.314 -0.1537  0.1807  0.1701
   45MOL   H103 6351   2.775   5.024   6.548  2.2162 -0.4122 -0.3040
   45MOL   H104 6352   2.736   5.199   6.564 -1.9963 -1.4600 -1.3312
   45MOL   H105 6353   2.920   5.102   6.339  1.2133 -0.5419  3.1822
   45MOL   H106 6354   2.711   4.975   6.383  2.1394 -0.5359  0.4137
   45MOL   C107 6355   2.783   5.269   6.311  0.6538  0.4080  0.1016
   45MOL   C108 6356   2.873   5.389   6.346  0.2707  0.8332 -0.1843
   45MOL   O109 6357   3.003   5.367   6.297  0.0943  0.4048 -0.4454
   45MOL   H110 6358   2.799   5.263   6.204 -0.2601  1.0202 -0.0672
   45MOL   H111 6359   2.677   5.294   6.317  0.4713 -0.2357 -0.3961
   45MOL   H112 6360   2.876   5.390   6.455 -1.6194 -1.1669 -0.0817
   45MOL   H113 6361   2.996   5.319   6.215  1.7042 -1.4037  0.4367
   45MOL   C114 6362   2.817   5.526   6.296 -0.3824  1.0951 -0.3459
   45MOL   C115 6363   2.896   5.650   6.339  0.3238 -0.3212 -0.0798
   45MOL   O116 6364   2.956   5.716   6.231 -0.0218  0.4325 -0.1334
   45MOL   H117 6365   2.812   5.512   6.188  2.3727  0.2129 -0.3953
   45MOL   H118 6366   2.711   5.533   6.322  0.0419  1.4223  1.3238
   45MOL   H119 6367   2.974   5.634   6.414 -0.5356 -1.5681  0.5573
   45MOL   H120 6368   3.031   5.665   6.203  0.3566 -0.2409  2.0607
   45MOL   C121 6369   2.809   5.752   6.429 -0.6270  0.2486  0.3096
   45MOL   C122 6370   2.776   5.703   6.569 -0.3762  0.6370  1.0073
   45MOL   O123 6371   2.894   5.704   6.661 -0.0064 -0.2026 -0.4645
   45MOL   H124 6372   2.862   5.846   6.439  1.8120 -1.2105  1.8409
   45MOL   H125 6373   2.717   5.764   6.372 -0.7314  1.4300  0.7338
   45MOL   H126 6374   2.748   5.598   6.556 -1.7206  1.1244 -0.1454
   45MOL   H127 6375   2.927   5.617   6.678 -0.1914 -0.2958 -0.5754
   45MOL   C128 6376   2.676   5.788   6.649 -0.2259 -0.2657 -0.2229
   45MOL   C129 6377   2.524   5.785   6.613 -0.1923 -0.3248  0.2558
   45MOL   O130 6378   2.433   5.769   6.724 -0.2641  0.2321  0.1608
   45MOL   H131 6379   2.676   5.752   6.752 -1.8214 -0.2104 -0.1923
   45MOL   H132 6380   2.718   5.887   6.662  0.1859 -0.3785 -0.6945
   45MOL   H133 6381   2.514   5.698   6.548  0.7080  0.3297 -0.7865
   45MOL   H134 6382   2.349   5.809   6.710 -1.3060 -1.6992  0.6503
   45MOL   C135 6383   2.473   5.908   6.528 -0.3200  0.3499 -0.5529
   45MOL   C136 6384   2.446   6.035   6.610 -0.0152  0.1141  0.6103
   45MOL   O137 6385   2.424   6.149   6.529  0.1868 -0.4541 -0.6345
   45MOL   H138 6386   2.531   5.933   6.439 -0.3775  0.4915 -0.5499
   45MOL   H139 6387   2.388   5.871   6.471  1.0630  0.7069 -2.9154
   45MOL   H140 6388   2.536   6.062   6.665 -1.0572  2.2013  1.3397
   45MOL   H141 6389   2.508   6.171   6.492  0.6393 -1.1982 -0.0649
   45MOL   H142 6390   2.365   6.021   6.682  0.6965 -1.3112  1.1563
   46MOL     C1 6391   2.545   1.064   0.527 -0.4839  0.1587 -0.3890
   46MOL     C2 6392   2.608   0.924   0.522  0.0077 -0.2079 -0.5442
   46MOL     O3 6393   2.649   0.899   0.387  0.3425 -0.0575 -0.3872
   46MOL     H4 6394   2.445   1.066   0.484  0.1111  1.1892 -1.7620
   46MOL     H5 6395   2.603   1.140   0.475 -0.2437 -1.4361 -2.4885
   46MOL     H6 6396   2.533   0.847   0.542  0.7366 -0.6950  0.4196
   46MOL     H7 6397   2.569   0.893   0.337  0.2593 -1.8055 -0.0534
   46MOL     H8 6398   2.538   1.094   0.632 -0.6852 -0.2705 -0.2783
   46MOL     C9 6399   2.720   0.909   0.632  0.2521 -0.0197  0.4002
   46MOL    C10 6400   2.669   0.859   0.771  0.0779  0.0141  0.6501
   46MOL    O11 6401   2.637   0.726   0.752  0.1002 -0.2665  0.5163
   46MOL    H12 6402   2.795   0.840   0.594 -0.7046 -0.6439 -0.3693
   46MOL    H13 6403   2.778   1.001   0.640  1.8110 -0.8224 -1.3827
   46MOL    H14 6404   2.577   0.914   0.794 -1.2090 -1.7640 -0.1466
   46MOL    H15 6405   2.715   0.680   0.725  1.7234  2.1398  0.9344
   46MOL    C16 6406   2.768   0.884   0.886 -0.2020 -0.2575  0.2940
   46MOL    C17 6407   2.743   1.008   0.973  0.2090 -0.1951  0.8086
   46MOL    O18 6408   2.793   0.971   1.102  0.0363 -0.0799 -0.4766
   46MOL    H19 6409   2.745   0.801   0.952  1.8631 -0.9136  0.2164
   46MOL    H20 6410   2.868   0.865   0.847 -0.3877 -0.7935  0.0760
   46MOL    H21 6411   2.639   1.013   1.003  0.1595  0.0723  0.6083
   46MOL    H22 6412   2.830   1.049   1.142  0.2116 -1.0724  1.3400
   46MOL    C23 6413   2.795   1.137   0.915 -0.2696 -0.0942  0.8889
   46MOL    C24 6414   2.777   1.253   1.017  0.2681 -0.3804  0.3458
   46MOL    O25 6415   2.867   1.236   1.118  0.0299  0.3444  0.0643
   46MOL    H26 6416   2.900   1.114   0.896 -0.5635  0.9292 -2.2748
   46MOL    H27 6417   2.748   1.154   0.818 -0.6828 -0.0215  1.0994
   46MOL    H28 6418   2.674   1.262   1.053  0.1886  1.3598 -0.2800
   46MOL    H29 6419   2.842   1.277   1.199 -1.6236 -0.7764  0.1487
   46MOL    C30 6420   2.810   1.395   0.952 -0.4320 -0.4753  0.3300
   46MOL    C31 6421   2.736   1.516   1.025  0.4573 -0.0913  0.0293
   46MOL    O32 6422   2.798   1.646   0.997  0.9686 -0.0612 -0.5762
   46MOL    H33 6423   2.918   1.412   0.953 -0.7744  1.9210 -0.4251
   46MOL    H34 6424   2.794   1.397   0.844  1.0494  1.4099  0.1146
   46MOL    H35 6425   2.735   1.497   1.132 -1.4237  0.8859  0.2085
   46MOL    H36 6426   2.891   1.639   0.982  0.6195  1.1284 -3.6256
   46MOL    C37 6427   2.585   1.516   0.974  0.7999 -0.0909 -0.2188
   46MOL    C38 6428   2.499   1.637   1.041 -0.3977  0.0778  0.1147
   46MOL    O39 6429   2.376   1.633   0.970  0.0928  0.2953  0.8128
   46MOL    H40 6430   2.581   1.535   0.867  0.8864 -2.6506 -0.7037
   46MOL    H41 6431   2.529   1.425   0.994 -2.3718  1.5885 -1.0714
   46MOL    H42 6432   2.544   1.737   1.034 -2.0188  1.1532  3.7510
   46MOL    H43 6433   2.321   1.700   1.006 -0.5647  0.9947 -1.4192
   46MOL    C44 6434   2.461   1.598   1.191  0.7014 -0.2176  0.2592
   46MOL    C45 6435   2.510   1.700   1.304  0.6727 -0.9214 -0.5555
   46MOL    O46 6436   2.471   1.642   1.424  0.7058  0.2412 -0.4264
   46MOL    H47 6437   2.353   1.601   1.203  0.7807  2.6681  0.6390
   46MOL    H48 6438   2.495   1.496   1.210  1.7685 -0.1895 -1.3681
   46MOL    H49 6439   2.456   1.795   1.299  0.1315 -1.2507 -1.0669
   46MOL    H50 6440   2.384   1.670   1.448  1.6095  1.3519  1.6020
   46MOL    C51 6441   2.664   1.720   1.318  0.3339 -0.3534  0.3150
   46MOL    C52 6442   2.706   1.849   1.402 -0.2043 -0.0403  0.7031
   46MOL    O53 6443   2.834   1.832   1.455  0.0854 -0.0761 -0.0066
   46MOL    H54 6444   2.712   1.629   1.353  1.4715  0.1715  0.1538
   46MOL    H55 6445   2.696   1.734   1.214  0.4158  0.4490  0.4423
   46MOL    H56 6446   2.635   1.834   1.484 -0.4343 -2.8299  0.0582
   46MOL    H57 6447   2.820   1.789   1.537 -3.2075  1.6471  0.4138
   46MOL    C58 6448   2.675   1.991   1.353 -0.0947 -0.0956 -0.1065
   46MOL    C59 6449   2.707   2.106   1.456  0.1300 -0.2383  0.0028
   46MOL    O60 6450   2.728   2.230   1.382  0.1034  0.1920 -0.1040
   46MOL    H61 6451   2.729   2.002   1.258 -0.8311  1.0196 -0.4015
   46MOL    H62 6452   2.571   1.995   1.321  0.2079 -2.6042 -1.5803
   46MOL    H63 6453   2.806   2.089   1.500 -1.0359 -0.1729  2.7633
   46MOL    H64 6454   2.818   2.248   1.402  0.7190 -1.5283 -1.1978
   46MOL    C65 6455   2.596   2.127   1.561  0.2000 -0.9168 -0.3927
   46MOL    C66 6456   2.643   2.198   1.696  0.0628  0.2399 -0.1158
   46MOL    O67 6457   2.533   2.247   1.758 -0.4041  0.4837 -0.7321
   46MOL    H68 6458   2.518   2.184   1.509 -0.0125 -0.7456  0.1126
   46MOL    H69 6459   2.543   2.033   1.579 -2.1718  0.5328  0.4440
   46MOL    H70 6460   2.711   2.277   1.663 -0.8311 -0.1891 -3.2015
   46MOL    H71 6461   2.497   2.320   1.710 -0.2580  0.3644 -1.0189
   46MOL    C72 6462   2.717   2.107   1.799  0.3040 -0.1785  0.1910
   46MOL    C73 6463   2.793   2.188   1.910 -0.4009 -0.4500  0.3009
   46MOL    O74 6464   2.704   2.263   1.987 -0.4315  0.4238  0.2502
   46MOL    H75 6465   2.646   2.030   1.830  2.5558 -2.4950 -0.2814
   46MOL    H76 6466   2.789   2.054   1.737 -1.5953 -0.1594 -2.1430
   46MOL    H77 6467   2.851   2.269   1.865  0.1191 -1.1598 -0.3078
   46MOL    H78 6468   2.614   2.246   1.964 -1.0202  0.8707  2.1472
   46MOL    C79 6469   2.871   2.089   2.002  0.1284 -0.6926  0.7124
   46MOL    C80 6470   2.978   2.149   2.093  0.7828 -0.2810  0.0999
   46MOL    O81 6471   3.007   2.040   2.186  0.1588  0.1481  0.1258
   46MOL    H82 6472   2.792   2.036   2.056 -0.0806  0.4515  1.5533
   46MOL    H83 6473   2.930   2.019   1.942 -0.0694 -0.2789  0.0363
   46MOL    H84 6474   2.930   2.234   2.142 -0.9452 -1.1678  0.0157
   46MOL    H85 6475   3.079   1.987   2.154 -0.6232  0.1615 -1.7239
   46MOL    C86 6476   3.097   2.201   2.014 -0.7505  0.3619 -0.0330
   46MOL    C87 6477   3.214   2.263   2.103  0.1267  0.9800  0.3784
   46MOL    O88 6478   3.307   2.317   2.008 -0.4758 -0.4572 -0.3681
   46MOL    H89 6479   3.149   2.127   1.954  2.5206  2.4650  0.0579
   46MOL    H90 6480   3.054   2.282   1.955  0.7737  0.4696 -1.0439
   46MOL    H91 6481   3.273   2.188   2.156 -0.3816  0.8252  0.7296
   46MOL    H92 6482   3.310   2.284   1.919  0.0894  0.7426 -0.8088
   46MOL    C93 6483   3.168   2.364   2.206 -0.1597 -0.3470  0.6992
   46MOL    C94 6484   3.267   2.410   2.315 -0.9720 -0.4093  0.5772
   46MOL    O95 6485   3.359   2.502   2.258 -0.0380  0.3013  0.7808
   46MOL    H96 6486   3.138   2.451   2.148  2.3136 -0.4549 -0.7687
   46MOL    H97 6487   3.078   2.328   2.257 -0.5584  1.4131  1.2758
   46MOL    H98 6488   3.324   2.324   2.350 -2.5164 -1.6830  0.0490
   46MOL    H99 6489   3.382   2.473   2.171 -2.4003  1.1148 -0.1496
   46MOL   C100 6490   3.202   2.490   2.433  0.1849  0.0736  0.0546
   46MOL   C101 6491   3.279   2.493   2.566 -0.3635 -0.3729  0.3016
   46MOL   O102 6492   3.327   2.625   2.598 -0.8803 -0.6959 -0.0857
   46MOL   H103 6493   3.179   2.590   2.396  4.3608  0.7052 -1.1108
   46MOL   H104 6494   3.102   2.457   2.462  0.7378  1.0674  3.4040
   46MOL   H105 6495   3.365   2.430   2.548 -0.6531 -0.5883 -0.3372
   46MOL   H106 6496   3.420   2.618   2.586 -0.7719  0.6571 -0.1171
   46MOL   C107 6497   3.197   2.443   2.693 -0.1606 -0.6118  0.5378
   46MOL   C108 6498   3.194   2.293   2.715  0.9029 -0.9501  0.2696
   46MOL   O109 6499   3.137   2.226   2.611  0.5809 -0.4290 -0.2244
   46MOL   H110 6500   3.239   2.465   2.791 -0.3688 -1.4435  0.8213
   46MOL   H111 6501   3.096   2.484   2.696 -0.3102 -0.9573  0.2704
   46MOL   H112 6502   3.118   2.281   2.791 -1.1031  0.8071 -1.4231
   46MOL   H113 6503   3.047   2.237   2.637  0.1192 -0.7064 -1.7019
   46MOL   C114 6504   3.325   2.221   2.749  0.2572  0.3988 -0.8602
   46MOL   C115 6505   3.382   2.250   2.893 -0.4946 -0.2093  0.1088
   46MOL   O116 6506   3.280   2.216   2.986  0.2884  0.3175 -0.1409
   46MOL   H117 6507   3.299   2.116   2.742  1.8563 -0.2269  1.9541
   46MOL   H118 6508   3.401   2.243   2.674  2.2175  2.6354  1.6468
   46MOL   H119 6509   3.394   2.357   2.909 -2.3837  0.1949 -1.0263
   46MOL   H120 6510   3.308   2.252   3.069  0.5629 -1.1621  0.4210
   46MOL   C121 6511   3.520   2.179   2.922  0.4829 -0.6997 -0.1410
   46MOL   C122 6512   3.634   2.222   2.828  0.2157  0.0824  0.3418
   46MOL   O123 6513   3.751   2.214   2.901 -0.1998  0.0436 -0.0624
   46MOL   H124 6514   3.541   2.193   3.028  2.0212  0.6009 -0.5936
   46MOL   H125 6515   3.506   2.071   2.913  0.2327 -0.7178  0.4641
   46MOL   H126 6516   3.610   2.323   2.794  2.0209  0.6693  0.7430
   46MOL   H127 6517   3.763   2.127   2.937  2.6243  0.7940  0.9750
   46MOL   C128 6518   3.652   2.141   2.696 -0.0274  0.4390  0.5806
   46MOL   C129 6519   3.732   2.209   2.583  0.3359  0.2149 -0.1720
   46MOL   O130 6520   3.856   2.266   2.637 -0.2769  0.1533 -0.1685
   46MOL   H131 6521   3.701   2.051   2.733 -0.3693 -0.5205 -1.2431
   46MOL   H132 6522   3.555   2.104   2.665  1.3144  1.0462 -4.9020
   46MOL   H133 6523   3.669   2.291   2.551 -1.0674 -0.5166  0.6884
   46MOL   H134 6524   3.853   2.238   2.728  0.8129 -3.8639 -1.2531
   46MOL   C135 6525   3.786   2.122   2.466  0.3669 -0.3084 -0.6179
   46MOL   C136 6526   3.668   2.072   2.384 -0.3057 -0.3521 -0.1240
   46MOL   O137 6527   3.704   1.995   2.278 -0.2515 -0.1212 -0.1736
   46MOL   H138 6528   3.854   2.174   2.399 -0.5086  1.2479 -0.3133
   46MOL   H139 6529   3.847   2.042   2.508  0.7522  0.7066  0.7777
   46MOL   H140 6530   3.605   2.158   2.363  0.5435  0.4637  0.6052
   46MOL   H141 6531   3.662   1.911   2.287 -0.0657 -0.2644 -0.6557
   46MOL   H142 6532   3.612   2.011   2.454  0.6506 -2.6491 -1.3174
   47MOL     C1 6533   0.548   3.081   0.422  0.0731  0.0819  0.7591
   47MOL     C2 6534   0.415   3.088   0.350 -0.3687  0.0662  0.5859
   47MOL     O3 6535   0.310   3.136   0.435 -0.7448 -0.0595 -0.3224
   47MOL     H4 6536   0.579   3.181   0.452  3.7342 -0.9124  0.4694
   47MOL     H5 6537   0.622   3.045   0.351 -1.4870  0.7312 -1.2495
   47MOL     H6 6538   0.392   2.984   0.326 -0.2142  0.0433  0.5401
   47MOL     H7 6539   0.231   3.110   0.392 -3.1236  2.6327  2.1841
   47MOL     H8 6540   0.531   3.016   0.508  0.4618 -0.8351  0.1481
   47MOL     C9 6541   0.411   3.175   0.218  0.0742 -0.0683  1.2397
   47MOL    C10 6542   0.519   3.153   0.102  0.2851  0.6990 -0.3344
   47MOL    O11 6543   0.511   3.017   0.046  0.0413  0.2102  0.4984
   47MOL    H12 6544   0.312   3.194   0.177 -0.0939 -0.7883  1.3047
   47MOL    H13 6545   0.430   3.280   0.241 -0.4798  0.1866  0.5540
   47MOL    H14 6546   0.613   3.156   0.156  0.0234 -0.7216  0.2265
   47MOL    H15 6547   0.585   3.002   7.509  0.9176 -0.3652  1.7808
   47MOL    C16 6548   0.509   3.246   7.498 -0.0365  0.0535 -0.4918
   47MOL    C17 6549   0.539   3.396   0.008 -0.4176  0.3524  0.7889
   47MOL    O18 6550   0.680   3.408   0.012 -0.5033  0.0503 -0.3478
   47MOL    H19 6551   0.574   3.212   7.417  0.0216  0.9716 -0.8413
   47MOL    H20 6552   0.407   3.232   7.463 -1.0645  2.6288  1.3482
   47MOL    H21 6553   0.492   3.415   0.104 -1.8080  2.2009 -0.2261
   47MOL    H22 6554   0.704   3.446   0.095  0.0522 -0.8963 -0.0657
   47MOL    C23 6555   0.465   3.484   7.420 -0.2861 -0.3996 -0.1173
   47MOL    C24 6556   0.476   3.635   7.440  0.1896  0.7351  0.9189
   47MOL    O25 6557   0.507   3.704   7.315  0.2294  0.6003 -0.0475
   47MOL    H26 6558   0.506   3.454   7.323 -2.5355 -1.3935 -0.7751
   47MOL    H27 6559   0.360   3.459   7.425  0.2020 -2.4253  0.6147
   47MOL    H28 6560   0.564   3.669   7.495  1.0550  0.6218 -0.3753
   47MOL    H29 6561   0.538   3.790   7.339 -0.0879  0.6912  0.0479
   47MOL    C30 6562   0.353   3.697   7.502 -0.0377 -0.2476  0.3711
   47MOL    C31 6563   0.213   3.727   7.433 -0.1964 -0.0923 -0.0615
   47MOL    O32 6564   0.138   3.608   7.420 -0.0264  0.0718 -0.6011
   47MOL    H33 6565   0.341   3.625   0.064 -0.8503 -2.2402 -1.4688
   47MOL    H34 6566   0.383   3.789   0.034  0.1368 -1.3594  2.3351
   47MOL    H35 6567   0.236   3.781   7.342 -2.0605 -1.0054 -1.1179
   47MOL    H36 6568   0.199   3.538   7.400  0.1631 -0.7658  2.6641
   47MOL    C37 6569   0.138   3.821   0.011 -0.9424 -0.5344 -0.4021
   47MOL    C38 6570   7.510   3.856   7.489  0.3853  0.8126  0.8281
   47MOL    O39 6571   7.461   3.940   0.076 -0.0611  0.2046 -0.1286
   47MOL    H40 6572   0.141   3.783   0.113 -1.4770 -1.0283 -0.5647
   47MOL    H41 6573   0.189   3.917   0.012 -0.3866 -0.8347  0.0853
   47MOL    H42 6574   7.445   3.769   7.483  0.8159  0.4417  1.4760
   47MOL    H43 6575   7.445   3.887   0.152  1.9977 -0.4723 -0.1338
   47MOL    C44 6576   7.498   3.932   7.349  0.6623 -0.0917 -0.0029
   47MOL    C45 6577   7.364   3.927   7.272  0.1362 -0.3574  0.1277
   47MOL    O46 6578   7.386   4.001   7.156  0.0617  0.3094  0.0112
   47MOL    H47 6579   0.002   4.036   7.370  1.2505  0.1150 -1.5854
   47MOL    H48 6580   0.057   3.900   7.280  0.2587  0.7910 -0.8806
   47MOL    H49 6581   7.278   3.965   7.328  1.2326 -1.0624  2.3748
   47MOL    H50 6582   7.457   3.959   7.110 -1.6710 -1.6173 -0.9852
   47MOL    C51 6583   7.316   3.779   7.238 -0.0428  0.2548  0.0041
   47MOL    C52 6584   7.203   3.754   7.139 -0.1191  0.3165 -0.2695
   47MOL    O53 6585   7.192   3.616   7.109 -0.3563 -0.1778  0.0662
   47MOL    H54 6586   7.410   3.739   7.201  0.4520 -2.3082  3.7802
   47MOL    H55 6587   7.311   3.720   7.329  3.9415  1.2151  0.9504
   47MOL    H56 6588   7.227   3.805   7.045 -0.0937  0.9062  0.0525
   47MOL    H57 6589   7.105   3.597   7.077  0.0861 -1.2935 -0.5204
   47MOL    C58 6590   7.061   3.811   7.191 -0.0731 -0.4551 -0.2364
   47MOL    C59 6591   6.939   3.798   7.100  0.8221 -0.2781  0.7220
   47MOL    O60 6592   6.902   3.667   7.089 -0.0837  0.8481  0.1951
   47MOL    H61 6593   7.040   3.755   7.282  0.1209 -1.1460 -0.6128
   47MOL    H62 6594   7.079   3.914   7.221  0.1660 -1.0991  1.9334
   47MOL    H63 6595   6.951   3.833   6.997 -3.3982  1.0583  0.5996
   47MOL    H64 6596   6.812   3.660   7.116  0.0559 -1.5654  0.2119
   47MOL    C65 6597   6.820   3.885   7.152  0.0146 -0.2080  1.0108
   47MOL    C66 6598   6.826   4.038   7.164 -0.3388 -0.9992 -0.5029
   47MOL    O67 6599   6.811   4.094   7.037  0.1032 -0.1058 -0.0726
   47MOL    H68 6600   6.742   3.865   7.079  2.0318  0.1089 -1.3140
   47MOL    H69 6601   6.789   3.840   7.246 -0.6866  1.6459  1.6823
   47MOL    H70 6602   6.919   4.068   7.211 -0.1781 -1.8711 -0.2584
   47MOL    H71 6603   6.897   4.082   6.999 -0.1434  1.8246 -1.3148
   47MOL    C72 6604   6.706   4.079   7.253  0.1284  0.5718  0.6632
   47MOL    C73 6605   6.752   4.118   7.397 -0.1382 -0.4609  0.4455
   47MOL    O74 6606   6.641   4.179   7.466 -0.6101 -1.0487 -0.4408
   47MOL    H75 6607   6.666   4.170   7.208 -0.5924  0.9254  1.9879
   47MOL    H76 6608   6.618   4.015   7.258 -0.0043  0.7761  0.9982
   47MOL    H77 6609   6.834   4.189   7.393 -0.3207 -0.3355 -2.4572
   47MOL    H78 6610   6.659   4.164   0.039 -0.2684 -0.1400 -0.3598
   47MOL    C79 6611   6.814   3.999   7.481  0.1199 -0.0550 -0.1033
   47MOL    C80 6612   6.889   4.044   0.091  0.0164  0.1702 -0.6429
   47MOL    O81 6613   6.794   4.079   0.192  0.3083 -0.3658  0.0142
   47MOL    H82 6614   6.738   3.922   7.498 -0.3676  0.1927 -1.1258
   47MOL    H83 6615   6.885   3.950   7.416  0.9084 -1.3433  1.6859
   47MOL    H84 6616   6.942   4.136   0.067  1.6481 -0.9122 -1.2717
   47MOL    H85 6617   6.835   4.105   0.273  1.5558 -4.3706  0.7957
   47MOL    C86 6618   6.989   3.935   0.143  0.5825  0.0750 -0.2256
   47MOL    C87 6619   7.104   3.895   0.050 -0.1662  0.8591  0.3239
   47MOL    O88 6620   7.190   4.002   0.030  0.3602 -0.1552  1.1070
   47MOL    H89 6621   7.036   3.974   0.234 -4.2116 -0.4105  2.6059
   47MOL    H90 6622   6.933   3.854   0.189  1.8190 -0.5083  0.2730
   47MOL    H91 6623   7.071   3.860   7.471  1.6776  1.2727 -0.4532
   47MOL    H92 6624   7.270   3.992   0.080  0.5339 -1.1743  0.6267
   47MOL    C93 6625   7.174   3.769   0.111  0.3241 -0.4198 -0.1744
   47MOL    C94 6626   7.131   3.636   0.054  0.3593  0.8341  0.2491
   47MOL    O95 6627   7.215   3.538   0.117 -0.0402 -0.1095  0.1349
   47MOL    H96 6628   7.282   3.774   0.099  0.3135  1.4274  0.4101
   47MOL    H97 6629   7.165   3.787   0.218  1.6278 -0.2813 -0.0762
   47MOL    H98 6630   7.136   3.632   7.465 -0.6010  0.4959  0.2125
   47MOL    H99 6631   7.286   3.519   0.058  1.2690 -1.1207  1.9702
   47MOL   C100 6632   6.998   3.592   0.105  0.6834  0.2420 -0.3139
   47MOL   C101 6633   6.925   3.469   0.039  0.3280  0.0135 -0.2379
   47MOL   O102 6634   6.797   3.461   0.102 -0.2436  0.5392 -0.0439
   47MOL   H103 6635   7.003   3.586   0.214 -1.3511 -1.4127 -0.2743
   47MOL   H104 6636   6.927   3.673   0.086  1.4985  0.8792 -0.6448
   47MOL   H105 6637   6.980   3.379   0.067 -0.0493  0.2583  1.3479
   47MOL   H106 6638   6.804   3.423   0.188 -1.3033  0.0268 -0.1799
   47MOL   C107 6639   6.902   3.473   7.405  0.1312 -1.0959  0.1252
   47MOL   C108 6640   6.821   3.359   7.341 -0.0703  0.3221 -0.1901
   47MOL   O109 6641   6.683   3.371   7.376  0.5949  0.0528 -0.4674
   47MOL   H110 6642   6.867   3.568   7.365  0.2250 -0.5018  1.4161
   47MOL   H111 6643   7.004   3.474   7.369  0.1800 -0.4792  0.2690
   47MOL   H112 6644   6.851   3.267   7.392  1.7640  1.2841  0.5109
   47MOL   H113 6645   6.695   3.385   7.468  1.8624  0.7918 -0.7338
   47MOL   C114 6646   6.825   3.341   7.185 -0.1147  0.9445  0.1644
   47MOL   C115 6647   6.968   3.308   7.137  0.7649  0.9159  0.4025
   47MOL   O116 6648   7.007   3.180   7.173 -0.7509  0.1149  0.2757
   47MOL   H117 6649   6.759   3.259   7.157 -0.5493  1.4721 -0.3671
   47MOL   H118 6650   6.782   3.426   7.133 -2.8718 -1.4667 -1.6453
   47MOL   H119 6651   7.039   3.368   7.194  1.4715  1.0700 -0.6387
   47MOL   H120 6652   7.076   3.160   7.112  1.4297  0.4583  2.5458
   47MOL   C121 6653   6.981   3.332   6.986  0.6855 -0.7493 -0.3442
   47MOL   C122 6654   7.125   3.307   6.938 -0.1220 -0.7279 -0.8316
   47MOL   O123 6655   7.150   3.173   6.949 -0.5590 -0.5536  0.3858
   47MOL   H124 6656   6.907   3.267   6.939 -1.1084 -0.0938  1.4996
   47MOL   H125 6657   6.958   3.432   6.952 -0.0743 -0.8461 -0.1128
   47MOL   H126 6658   7.192   3.364   7.002 -0.0268  0.2101 -1.7489
   47MOL   H127 6659   7.238   3.164   6.916 -0.7113 -0.4786 -0.0458
   47MOL   C128 6660   7.135   3.330   6.779 -0.5479 -0.1131  0.0163
   47MOL   C129 6661   7.176   3.479   6.753  0.1515 -0.5650  0.2000
   47MOL   O130 6662   7.312   3.503   6.721  0.6284  0.8958  0.1308
   47MOL   H131 6663   7.215   3.269   6.737 -3.4682 -3.2614 -1.2530
   47MOL   H132 6664   7.043   3.296   6.731 -0.3660 -0.5125 -0.0474
   47MOL   H133 6665   7.159   3.534   6.846 -0.1576 -1.7996  0.8957
   47MOL   H134 6666   7.324   3.596   6.713  1.0604  0.7662 -0.7810
   47MOL   C135 6667   7.104   3.550   6.635 -0.6144 -0.0349  0.1472
   47MOL   C136 6668   6.959   3.577   6.671 -0.5189 -0.0118 -0.1977
   47MOL   O137 6669   6.902   3.655   6.568  0.4540  0.0762  0.2914
   47MOL   H138 6670   7.150   3.648   6.624 -2.9409  1.0437 -0.3705
   47MOL   H139 6671   7.112   3.489   6.545  0.4103  0.7793 -0.3173
   47MOL   H140 6672   6.943   3.639   6.759  0.9944 -1.7618  1.3487
   47MOL   H141 6673   6.813   3.673   6.592 -0.5307 -1.1757 -2.1564
   47MOL   H142 6674   6.906   3.482   6.678  2.4908 -2.0438 -3.1566
   48MOL     C1 6675   3.974   5.655   0.649  0.3827  0.8368  0.3132
   48MOL     C2 6676   3.959   5.632   0.796 -0.7329  0.3320 -0.4583
   48MOL     O3 6677   4.085   5.621   0.863  0.2470  0.8171  0.4970
   48MOL     H4 6678   4.008   5.559   0.610 -2.5786 -0.8479  1.7429
   48MOL     H5 6679   4.066   5.714   0.640  2.6120 -2.6481 -0.6181
   48MOL     H6 6680   3.906   5.541   0.823 -2.3957  1.8340  1.5518
   48MOL     H7 6681   4.066   5.622   0.955 -0.9738  0.7250  0.2576
   48MOL     H8 6682   3.892   5.701   0.594 -0.1388 -1.3561 -0.7763
   48MOL     C9 6683   3.882   5.751   0.862 -0.1062 -0.0365  0.7709
   48MOL    C10 6684   3.837   5.725   1.006  0.1278  0.0973 -0.0572
   48MOL    O11 6685   3.947   5.738   1.094 -0.8671 -0.4365  0.2386
   48MOL    H12 6686   3.936   5.845   0.860  0.6381 -0.4732 -1.3444
   48MOL    H13 6687   3.801   5.780   0.796  0.7051 -1.2838 -0.8034
   48MOL    H14 6688   3.791   5.627   1.016 -1.7537  0.7428 -1.7886
   48MOL    H15 6689   3.960   5.829   1.116  0.0433 -0.9143  1.7002
   48MOL    C16 6690   3.726   5.819   1.053  0.1018  0.9107  0.0726
   48MOL    C17 6691   3.647   5.774   1.179  0.0842 -0.2219  0.5003
   48MOL    O18 6692   3.671   5.869   1.281 -0.0679  0.2513  0.5530
   48MOL    H19 6693   3.759   5.923   1.054 -0.2828  1.2259 -4.9493
   48MOL    H20 6694   3.651   5.823   0.973  1.3948  0.9085 -1.1713
   48MOL    H21 6695   3.694   5.684   1.218  3.0206  0.6027 -0.9460
   48MOL    H22 6696   3.720   5.829   1.352  0.6085  1.5941  0.8728
   48MOL    C23 6697   3.499   5.750   1.164  0.5703  0.6490 -0.0303
   48MOL    C24 6698   3.464   5.621   1.083 -0.4617  0.3414 -0.2851
   48MOL    O25 6699   3.468   5.505   1.172  0.2985 -0.0938 -1.0603
   48MOL    H26 6700   3.449   5.730   1.258 -1.4890 -1.0447 -1.4399
   48MOL    H27 6701   3.451   5.842   1.129 -0.9109  0.0342  0.3722
   48MOL    H28 6702   3.519   5.607   0.990  1.2776  0.7783  0.6503
   48MOL    H29 6703   3.416   5.534   1.245  0.1346  1.5019 -1.7758
   48MOL    C30 6704   3.327   5.635   1.011 -0.6788  0.2552  0.1699
   48MOL    C31 6705   3.208   5.666   1.095  0.1568  0.5783 -0.3897
   48MOL    O32 6706   3.137   5.775   1.052  0.6166  0.2658  0.6014
   48MOL    H33 6707   3.337   5.712   0.935 -1.0539  0.5134  0.3766
   48MOL    H34 6708   3.304   5.545   0.954  1.6630  1.0899 -2.2112
   48MOL    H35 6709   3.243   5.695   1.193 -0.4445  2.8212 -0.8282
   48MOL    H36 6710   3.118   5.779   0.960 -0.0529 -2.5766  0.5598
   48MOL    C37 6711   3.115   5.548   1.130 -0.2069  0.3614  0.0573
   48MOL    C38 6712   3.033   5.574   1.261 -0.0971  0.1207 -0.0718
   48MOL    O39 6713   2.938   5.681   1.234  0.1739  0.0440 -0.5429
   48MOL    H40 6714   3.049   5.531   1.045  2.2621  0.9013 -2.0297
   48MOL    H41 6715   3.181   5.462   1.145  0.7237  0.7967 -1.5446
   48MOL    H42 6716   3.103   5.606   1.339  1.0432 -2.3676 -0.0247
   48MOL    H43 6717   2.990   5.753   1.202  1.1423 -1.2080 -1.8343
   48MOL    C44 6718   2.953   5.445   1.307 -0.2654  0.0633  1.2168
   48MOL    C45 6719   3.031   5.325   1.362  0.5511 -0.1919 -0.0052
   48MOL    O46 6720   3.040   5.355   1.504 -0.4342  0.5453 -0.7183
   48MOL    H47 6721   2.879   5.470   1.383 -2.5810 -2.3489 -0.1634
   48MOL    H48 6722   2.898   5.407   1.221  2.4371  0.1144 -0.5933
   48MOL    H49 6723   3.127   5.326   1.311  0.9802 -1.6327  0.7543
   48MOL    H50 6724   3.072   5.270   1.533 -0.8452 -0.0744 -2.0359
   48MOL    C51 6725   2.949   5.193   1.347 -0.4933 -0.9615  0.2179
   48MOL    C52 6726   2.918   5.149   1.208 -0.4429  0.2575  1.2565
   48MOL    O53 6727   3.023   5.175   1.120 -0.1905 -0.2167 -0.3345
   48MOL    H54 6728   3.015   5.117   1.388 -2.0111 -1.7672  1.2009
   48MOL    H55 6729   2.855   5.189   1.402 -0.1188 -0.9018  0.8692
   48MOL    H56 6730   2.827   5.197   1.172 -0.1864  1.9975  2.8199
   48MOL    H57 6731   3.001   5.190   1.029 -0.5699  1.1689 -0.0387
   48MOL    C58 6732   2.894   4.996   1.200  0.3652 -0.0495 -0.5479
   48MOL    C59 6733   2.772   4.936   1.269 -0.2837  0.3595  0.1438
   48MOL    O60 6734   2.664   4.982   1.196  0.1753  0.3530 -0.0437
   48MOL    H61 6735   2.898   4.964   1.096 -0.9645  0.7216 -0.8459
   48MOL    H62 6736   2.988   4.964   1.246  0.0843 -1.2921 -0.8335
   48MOL    H63 6737   2.756   4.976   1.369  1.9447  0.0603  0.6502
   48MOL    H64 6738   2.679   4.945   1.110 -1.0955  1.3570 -0.7268
   48MOL    C65 6739   2.767   4.776   1.267 -0.4266 -0.0400 -0.0636
   48MOL    C66 6740   2.870   4.702   1.359 -0.3588 -0.3943 -0.0366
   48MOL    O67 6741   2.795   4.633   1.456  0.6718 -0.3625 -0.4652
   48MOL    H68 6742   2.667   4.739   1.292 -1.3289  2.4616  0.1103
   48MOL    H69 6743   2.778   4.734   1.167  1.5611 -1.8689  0.8747
   48MOL    H70 6744   2.948   4.761   1.407 -1.0394  1.5769 -1.3060
   48MOL    H71 6745   2.770   4.693   1.525  0.8295 -1.0775  0.2153
   48MOL    C72 6746   2.949   4.602   1.276  0.6316  0.0894 -0.1930
   48MOL    C73 6747   3.048   4.660   1.177  0.2170  0.5385  0.1667
   48MOL    O74 6748   3.167   4.700   1.249 -0.0644 -0.0986 -0.0820
   48MOL    H75 6749   2.999   4.526   1.337  1.1811 -0.0419 -0.8034
   48MOL    H76 6750   2.884   4.539   1.217  0.8952 -1.2069  0.8801
   48MOL    H77 6751   3.011   4.750   1.127 -0.2121  0.2937  0.0381
   48MOL    H78 6752   3.228   4.741   1.190  0.7159  1.6502  1.8816
   48MOL    C79 6753   3.093   4.552   1.069  0.2033  0.6599 -0.2049
   48MOL    C80 6754   3.192   4.613   0.966 -0.1126 -0.1558 -0.4609
   48MOL    O81 6755   3.243   4.508   0.882 -0.0013 -0.2803 -0.2375
   48MOL    H82 6756   3.138   4.467   1.121 -1.7606 -0.1573  0.2403
   48MOL    H83 6757   3.002   4.514   1.022  0.4952  0.6324 -0.7523
   48MOL    H84 6758   3.277   4.653   1.022  2.5322 -0.0770 -4.3315
   48MOL    H85 6759   3.336   4.521   0.883 -0.1609  1.0499  2.2502
   48MOL    C86 6760   3.144   4.723   0.874 -0.0418  0.2325 -0.1171
   48MOL    C87 6761   3.036   4.676   0.773 -0.1963  0.6129 -0.3516
   48MOL    O88 6762   2.911   4.719   0.825 -0.4041 -1.0534 -0.0671
   48MOL    H89 6763   3.106   4.812   0.923 -0.7819  1.4220 -2.7528
   48MOL    H90 6764   3.233   4.749   0.817 -0.3371  1.8142  0.1122
   48MOL    H91 6765   3.038   4.567   0.771  1.0117  0.6158  0.3586
   48MOL    H92 6766   2.845   4.668   0.782 -0.7456 -1.4560  0.9146
   48MOL    C93 6767   3.069   4.731   0.632  0.7652  0.1496 -0.4336
   48MOL    C94 6768   3.173   4.647   0.554  0.0337  0.0425  0.2363
   48MOL    O95 6769   3.105   4.545   0.486  0.4979  0.8106  1.1315
   48MOL    H96 6770   2.982   4.717   0.569 -1.5432 -1.6243  2.9640
   48MOL    H97 6771   3.097   4.833   0.657  1.2044  0.3301 -1.6612
   48MOL    H98 6772   3.237   4.599   0.628  1.6317 -0.9353 -1.7407
   48MOL    H99 6773   3.136   4.466   0.527 -1.7579 -1.2838 -1.0944
   48MOL   C100 6774   3.251   4.722   0.445  1.2039  0.3172  0.1434
   48MOL   C101 6775   3.360   4.836   0.488 -0.7388  0.1645 -1.4487
   48MOL   O102 6776   3.301   4.957   0.542  0.4076 -0.2064 -0.0120
   48MOL   H103 6777   3.301   4.641   0.393 -1.8934 -1.1851 -0.6124
   48MOL   H104 6778   3.190   4.759   0.362  0.3576 -0.5736  0.3615
   48MOL   H105 6779   3.431   4.854   0.408  0.0352  0.0583 -0.7876
   48MOL   H106 6780   3.293   5.014   0.467  1.7472  0.3740  0.2684
   48MOL   C107 6781   3.451   4.787   0.601  0.1915 -0.5830  0.1753
   48MOL   C108 6782   3.514   4.650   0.586 -0.2046 -0.6300  0.1410
   48MOL   O109 6783   3.579   4.626   0.464  0.0458 -0.1070  0.2426
   48MOL   H110 6784   3.519   4.868   0.626 -0.6294 -0.3365  1.6939
   48MOL   H111 6785   3.384   4.776   0.686 -1.3994  2.6292 -0.6040
   48MOL   H112 6786   3.443   4.568   0.597 -2.4861  1.3700  0.7935
   48MOL   H113 6787   3.570   4.532   0.456  1.1095 -0.2280  0.2817
   48MOL   C114 6788   3.625   4.631   0.688  0.7145  0.1160 -0.0900
   48MOL   C115 6789   3.573   4.634   0.840  0.0966  0.3736  0.3597
   48MOL   O116 6790   3.508   4.512   0.866 -0.1018 -0.0683  0.1400
   48MOL   H117 6791   3.681   4.542   0.660  0.7917  0.2018 -0.2083
   48MOL   H118 6792   3.702   4.708   0.676 -0.1923  0.5980 -3.3315
   48MOL   H119 6793   3.503   4.715   0.862 -0.6766  0.1860 -1.3756
   48MOL   H120 6794   3.577   4.454   0.895 -0.7897 -1.2913 -0.6102
   48MOL   C121 6795   3.685   4.642   0.956 -0.0292 -0.0198 -0.3055
   48MOL   C122 6796   3.756   4.781   0.958  0.4491 -1.0787 -0.1299
   48MOL   O123 6797   3.672   4.879   1.010 -0.3600 -0.1873 -0.2204
   48MOL   H124 6798   3.630   4.631   1.050 -0.7406  0.5881 -0.6451
   48MOL   H125 6799   3.751   4.556   0.962  1.5452  1.2077  0.4207
   48MOL   H126 6800   3.766   4.814   0.855  1.1892  0.1552  0.3364
   48MOL   H127 6801   3.722   4.959   1.006 -0.4383 -0.1889 -1.4067
   48MOL   C128 6802   3.891   4.789   1.026  0.1407  1.5204  0.2432
   48MOL   C129 6803   3.999   4.719   0.953  0.2882 -0.2463 -0.8306
   48MOL   O130 6804   4.030   4.796   0.837  0.2360  0.5648 -0.0354
   48MOL   H131 6805   3.922   4.892   1.046  0.9101  1.3029  0.1908
   48MOL   H132 6806   3.874   4.741   1.123  1.4710 -2.8976 -1.6006
   48MOL   H133 6807   3.965   4.619   0.928 -0.8039  0.8133 -3.7065
   48MOL   H134 6808   4.065   4.735   0.774 -1.3454 -0.2960 -0.1114
   48MOL   C135 6809   4.128   4.710   1.035  0.6678 -0.5014 -0.2929
   48MOL   C136 6810   4.212   4.605   0.974  0.7838 -0.9262  0.0940
   48MOL   O137 6811   4.310   4.576   1.067  0.6352  0.1111 -0.3877
   48MOL   H138 6812   4.174   4.808   1.051 -1.2688  0.6399 -1.4294
   48MOL   H139 6813   4.097   4.680   1.135  0.6529  0.8030  0.1114
   48MOL   H140 6814   4.250   4.631   0.875  2.2149  0.3351  0.9648
   48MOL   H141 6815   4.366   4.650   1.082  0.5640  0.3470 -1.2703
   48MOL   H142 6816   4.160   4.513   0.946 -0.2364 -0.0951 -0.7785
   49MOL     C1 6817   4.475   5.150   6.434 -0.5326  0.2164 -0.5770
   49MOL     C2 6818   4.351   5.057   6.432 -0.4197 -0.2856 -0.3298
   49MOL     O3 6819   4.248   5.114   6.507 -0.1474  0.2246  0.4988
   49MOL     H4 6820   4.495   5.178   6.538  0.0081 -0.4966 -0.4850
   49MOL     H5 6821   4.466   5.241   6.375 -0.0091 -1.8292 -3.8933
   49MOL     H6 6822   4.364   4.956   6.472 -1.4171  0.1767  1.2365
   49MOL     H7 6823   4.222   5.200   6.476  0.4291 -0.6720 -2.6119
   49MOL     H8 6824   4.566   5.103   6.399 -1.6446 -1.0069 -1.8518
   49MOL     C9 6825   4.303   5.040   6.296  0.5162 -0.5397 -0.2482
   49MOL    C10 6826   4.400   4.978   6.198  0.0921  0.3643  0.0405
   49MOL    O11 6827   4.424   4.844   6.211  0.2481  0.3271  0.3653
   49MOL    H12 6828   4.211   4.982   6.300  0.7475 -1.1280 -2.8174
   49MOL    H13 6829   4.270   5.130   6.244 -1.1593 -0.9769  0.0379
   49MOL    H14 6830   4.494   5.030   6.213  0.3554 -0.9376  3.2121
   49MOL    H15 6831   4.463   4.820   6.293 -0.4066  1.4670  1.0102
   49MOL    C16 6832   4.365   4.999   6.047 -0.2285 -0.0905  0.5423
   49MOL    C17 6833   4.491   4.989   5.961  0.5331  0.6904 -0.2638
   49MOL    O18 6834   4.438   4.987   5.831  0.5456 -0.2914  0.6654
   49MOL    H19 6835   4.295   4.925   6.011 -2.1219  0.1981  3.5034
   49MOL    H20 6836   4.321   5.098   6.038 -0.0822 -0.2092 -1.8606
   49MOL    H21 6837   4.537   4.894   5.987 -0.4580  1.0151  2.9580
   49MOL    H22 6838   4.348   5.014   5.840  0.1717 -1.3927  0.3581
   49MOL    C23 6839   4.586   5.108   5.960  0.1466  0.3854 -0.1296
   49MOL    C24 6840   4.741   5.075   5.966 -0.2000  1.0279 -0.4174
   49MOL    O25 6841   4.819   5.185   5.925 -0.2769 -0.7743  0.7433
   49MOL    H26 6842   4.574   5.188   5.888  0.4536 -0.0679 -0.6891
   49MOL    H27 6843   4.563   5.165   6.050  0.6041  0.6010 -0.1467
   49MOL    H28 6844   4.764   4.985   5.909  1.5535  0.0355  1.7891
   49MOL    H29 6845   4.780   5.229   5.851 -0.8109 -1.0575  0.8508
   49MOL    C30 6846   4.794   5.033   6.103  0.1702 -0.1919 -0.3248
   49MOL    C31 6847   4.945   5.018   6.125  0.6064 -0.3064 -0.0424
   49MOL    O32 6848   5.004   5.148   6.101  0.1213  0.3537 -0.1304
   49MOL    H33 6849   4.755   5.111   6.168  1.6636 -0.5089  0.9940
   49MOL    H34 6850   4.744   4.949   6.151  1.0072  0.3453  1.5227
   49MOL    H35 6851   4.995   4.949   6.057  1.6819  0.1557  0.2702
   49MOL    H36 6852   4.953   5.180   6.029  0.5142 -1.0840 -1.0643
   49MOL    C37 6853   4.969   4.970   6.270 -0.4260  0.3725  0.5309
   49MOL    C38 6854   4.961   4.820   6.301  0.0572  0.0339  0.5703
   49MOL    O39 6855   5.046   4.755   6.208  0.4504  0.1094 -0.2225
   49MOL    H40 6856   5.074   4.993   6.288 -0.0385 -0.8825 -0.0423
   49MOL    H41 6857   4.911   5.032   6.339  0.0857  1.4399  0.0129
   49MOL    H42 6858   4.857   4.793   6.279  0.2526 -0.9677  0.8351
   49MOL    H43 6859   5.007   4.670   6.195  2.6013 -1.4716  2.9770
   49MOL    C44 6860   4.998   4.773   6.446 -0.4453 -0.0012  0.2454
   49MOL    C45 6861   4.951   4.876   6.559  0.0166 -0.0081 -0.3142
   49MOL    O46 6862   4.813   4.915   6.544  0.3232  0.2140 -0.1222
   49MOL    H47 6863   4.954   4.675   6.465 -0.4466 -0.1101 -0.3014
   49MOL    H48 6864   5.107   4.776   6.445 -0.4179  0.3501  2.2635
   49MOL    H49 6865   5.015   4.965   6.556 -0.9277  0.8517  2.7887
   49MOL    H50 6866   4.798   5.004   6.574  0.3973 -0.0052  0.5837
   49MOL    C51 6867   4.962   4.808   6.696 -0.4854 -0.7131 -0.3214
   49MOL    C52 6868   4.934   4.897   6.818  1.0266 -0.0078  0.1585
   49MOL    O53 6869   4.798   4.921   6.827  0.1136  0.5449  0.3122
   49MOL    H54 6870   4.908   4.713   6.697  0.4111 -1.2369 -0.1410
   49MOL    H55 6871   5.064   4.771   6.709 -0.6807 -0.9088  0.6931
   49MOL    H56 6872   4.983   4.994   6.806 -0.0294  0.6283  0.8750
   49MOL    H57 6873   4.778   5.012   6.843 -1.3802  0.6343 -1.8278
   49MOL    C58 6874   4.982   4.845   6.960 -0.1019  0.6002  0.1425
   49MOL    C59 6875   5.132   4.843   6.977  0.7461 -0.2671 -0.2222
   49MOL    O60 6876   5.178   4.969   6.935 -0.0601  0.3227  0.7889
   49MOL    H61 6877   4.939   4.911   7.035  0.2961  0.6128  0.3604
   49MOL    H62 6878   4.938   4.748   6.981  2.2022 -0.7809 -1.2121
   49MOL    H63 6879   5.167   4.756   6.921  2.1037 -0.7844  1.3668
   49MOL    H64 6880   5.153   5.030   7.003 -0.4185  2.1070 -0.9081
   49MOL    C65 6881   5.178   4.806   7.122  0.2681 -1.1765  0.9555
   49MOL    C66 6882   5.136   4.679   7.191 -0.0886  0.4215  0.1454
   49MOL    O67 6883   5.238   4.649   7.280  0.1781 -0.2123  0.2443
   49MOL    H68 6884   5.285   4.826   7.112 -0.2887  0.5242 -2.3802
   49MOL    H69 6885   5.147   4.886   7.189 -1.5131  0.6511 -1.9357
   49MOL    H70 6886   5.122   4.600   7.117 -1.7345  2.2320 -1.5517
   49MOL    H71 6887   5.305   4.605   7.230 -0.7281 -1.2714 -0.0506
   49MOL    C72 6888   5.003   4.682   7.270 -0.1862  0.4577 -0.2467
   49MOL    C73 6889   4.977   4.556   7.352 -0.6225  0.4617  0.8190
   49MOL    O74 6890   5.072   4.557   7.456  0.2228  0.3807  0.4330
   49MOL    H75 6891   4.988   4.775   7.324 -1.7897 -0.5615  1.1416
   49MOL    H76 6892   4.931   4.681   7.188 -1.0015 -0.0152  0.4641
   49MOL    H77 6893   5.002   4.471   7.288  0.9156  0.8703  0.8756
   49MOL    H78 6894   5.150   4.584   7.410 -0.8721 -0.3996 -1.9020
   49MOL    C79 6895   4.831   4.537   7.406 -0.4078 -0.5343 -0.0994
   49MOL    C80 6896   4.800   4.408   7.484 -0.1610  0.4435 -0.1400
   49MOL    O81 6897   4.838   4.422   0.099 -0.1779  0.4367 -0.1311
   49MOL    H82 6898   4.809   4.620   7.473 -1.5084 -2.3602  1.8648
   49MOL    H83 6899   4.762   4.558   7.323 -0.6009  2.0137  0.6639
   49MOL    H84 6900   4.860   4.330   7.436  0.6808 -0.5277  2.4091
   49MOL    H85 6901   4.928   4.452   0.097  0.7884 -2.3266  0.3307
   49MOL    C86 6902   4.652   4.361   7.508 -0.3904 -0.4723 -0.9607
   49MOL    C87 6903   4.579   4.320   7.380  0.2989  0.4499  0.2468
   49MOL    O88 6904   4.665   4.238   7.301 -0.2490  0.6367  0.1093
   49MOL    H89 6905   4.653   4.268   0.045  1.4873 -0.0204 -0.2131
   49MOL    H90 6906   4.590   4.426   0.051 -0.6324 -0.6256 -1.0373
   49MOL    H91 6907   4.563   4.406   7.315  0.0772 -0.0590 -0.3794
   49MOL    H92 6908   4.650   4.251   7.208 -2.2169 -0.8831  0.1951
   49MOL    C93 6909   4.445   4.246   7.408  0.2348 -0.4558  0.6116
   49MOL    C94 6910   4.343   4.329   7.497 -1.2373  0.5327 -0.4928
   49MOL    O95 6911   4.338   4.473   7.472 -0.4563  0.8982 -0.5368
   49MOL    H96 6912   4.398   4.222   7.313 -1.0323 -1.9465  1.5811
   49MOL    H97 6913   4.470   4.147   7.446  1.0921 -0.4976 -0.0331
   49MOL    H98 6914   4.387   4.328   0.077 -0.3708  0.7238 -0.8780
   49MOL    H99 6915   4.323   4.488   7.380 -0.8809  2.4556 -0.2146
   49MOL   C100 6916   4.198   4.282   7.512  0.7190 -0.2156  0.0513
   49MOL   C101 6917   4.148   4.207   0.118  0.2476 -0.2914 -0.5675
   49MOL   O102 6918   4.005   4.189   0.108 -0.2520 -0.1696 -0.2726
   49MOL   H103 6919   4.131   4.361   7.475 -0.8097 -1.3872  0.2804
   49MOL   H104 6920   4.183   4.208   7.433  1.2449  0.0628 -0.3141
   49MOL   H105 6921   4.155   4.268   0.209  2.6314  1.4736 -1.8788
   49MOL   H106 6922   3.987   4.127   0.038 -1.5535 -0.5154  0.3656
   49MOL   C107 6923   4.227   4.069   0.156 -0.0162 -0.4938  0.3751
   49MOL   C108 6924   4.173   3.999   0.283 -0.0862  1.2086  0.7415
   49MOL   O109 6925   4.208   3.862   0.284 -0.5861  0.2457 -0.1990
   49MOL   H110 6926   4.201   4.014   0.066 -0.6297  0.0377  0.2170
   49MOL   H111 6927   4.334   4.085   0.157 -0.4801  3.0299  1.4314
   49MOL   H112 6928   4.064   3.994   0.290 -0.0123  0.2521  1.2255
   49MOL   H113 6929   4.229   3.845   0.374 -1.1383  1.2807  0.1417
   49MOL   C114 6930   4.238   4.055   0.411  0.7610  0.0007  0.5151
   49MOL   C115 6931   4.164   4.032   0.545  0.7894  0.0499  0.5078
   49MOL   O116 6932   4.184   3.891   0.562  0.3232 -0.2361 -0.0277
   49MOL   H117 6933   4.344   4.029   0.408  0.8544  0.1101  2.5665
   49MOL   H118 6934   4.240   4.164   0.398  0.1912 -0.0472 -0.0125
   49MOL   H119 6935   4.056   4.049   0.534  0.9102 -0.5540 -2.0021
   49MOL   H120 6936   4.147   3.860   0.643  1.5550  1.0037  1.0286
   49MOL   C121 6937   4.232   4.097   0.666  0.1305 -0.3495  0.2758
   49MOL   C122 6938   4.252   4.250   0.656  0.0729  0.0824  0.5842
   49MOL   O123 6939   4.125   4.306   0.668  0.2494 -0.0031  0.5468
   49MOL   H124 6940   4.168   4.088   0.753 -0.5028  0.3428 -0.1108
   49MOL   H125 6941   4.331   4.055   0.681  0.8412  1.2929  0.3637
   49MOL   H126 6942   4.308   4.285   0.569 -0.6989 -2.6099 -1.0701
   49MOL   H127 6943   4.140   4.396   0.641  4.0641 -0.5917  0.5007
   49MOL   C128 6944   4.320   4.296   0.779 -0.4526 -0.0101  0.5074
   49MOL   C129 6945   4.462   4.250   0.813  0.0359 -0.3038 -0.1535
   49MOL   O130 6946   4.534   4.236   0.686 -0.1563 -0.2433 -0.5751
   49MOL   H131 6947   4.316   4.405   0.782 -0.6972  0.0126 -0.4749
   49MOL   H132 6948   4.264   4.263   0.867 -0.0964 -1.3397  0.2442
   49MOL   H133 6949   4.462   4.149   0.855  3.0855  0.4167  1.7570
   49MOL   H134 6950   4.569   4.151   0.666 -3.0659 -2.1431  1.9794
   49MOL   C135 6951   4.541   4.341   0.908 -0.2421 -0.3898  0.8256
   49MOL   C136 6952   4.673   4.279   0.969 -0.2456  0.9727  0.3126
   49MOL   O137 6953   4.738   4.389   1.036 -0.3713  0.1893  0.5918
   49MOL   H138 6954   4.572   4.427   0.849 -1.4976  0.2752  1.1287
   49MOL   H139 6955   4.473   4.371   0.988 -1.2048 -2.0106  0.6276
   49MOL   H140 6956   4.743   4.240   0.895  1.7850  0.6240  2.3556
   49MOL   H141 6957   4.801   4.420   0.973  2.6632 -2.6255  2.1002
   49MOL   H142 6958   4.652   4.194   1.034  0.6302 -0.7417 -1.6009
   50MOL     C1 6959   1.881   4.466   2.279  0.0681 -0.5762  0.0952
   50MOL     C2 6960   1.915   4.510   2.419 -0.8753 -0.0458  0.2629
   50MOL     O3 6961   1.835   4.626   2.432  0.2995  0.0713 -0.6467
   50MOL     H4 6962   1.943   4.380   2.255  2.4317  0.9011  0.6555
   50MOL     H5 6963   1.903   4.533   2.195 -4.1820 -2.0157 -2.3096
   50MOL     H6 6964   2.019   4.538   2.433 -0.8083 -0.6415  1.0139
   50MOL     H7 6965   1.872   4.696   2.380  0.5961  0.4772  0.1169
   50MOL     H8 6966   1.777   4.440   2.262 -0.5169  1.7779 -0.1521
   50MOL     C9 6967   1.877   4.407   2.525  0.1215 -0.2549  0.0124
   50MOL    C10 6968   1.916   4.450   2.668  0.2279  0.7032 -0.2104
   50MOL    O11 6969   1.823   4.546   2.708 -0.0996  0.2333 -0.2998
   50MOL    H12 6970   1.770   4.391   2.516  0.1324  0.6374 -1.9931
   50MOL    H13 6971   1.921   4.312   2.493 -1.3561 -1.6395  1.9638
   50MOL    H14 6972   2.006   4.512   2.657 -0.7953  2.0888 -0.9443
   50MOL    H15 6973   1.797   4.603   2.638 -0.4779  1.3732  0.7456
   50MOL    C16 6974   1.933   4.342   2.771  0.0039 -0.2372  0.0167
   50MOL    C17 6975   2.012   4.397   2.901  0.0952  0.1723  0.1836
   50MOL    O18 6976   1.975   4.326   3.010 -0.2902  0.0001  0.2407
   50MOL    H19 6977   1.838   4.303   2.808 -0.5658  1.7586  0.7264
   50MOL    H20 6978   1.988   4.257   2.730  1.0964  1.0561 -1.2224
   50MOL    H21 6979   1.979   4.499   2.921  1.1569  0.2094  1.8104
   50MOL    H22 6980   2.001   4.374   3.087 -1.6295 -1.6955  1.7902
   50MOL    C23 6981   2.157   4.400   2.887  0.3742 -0.5497 -0.1486
   50MOL    C24 6982   2.241   4.487   2.980 -0.8267  0.4794 -0.7321
   50MOL    O25 6983   2.373   4.469   2.944 -0.3761 -0.2448  0.6966
   50MOL    H26 6984   2.184   4.296   2.905 -4.4385 -1.9541 -0.1920
   50MOL    H27 6985   2.190   4.423   2.786 -2.6167  0.9753 -0.8547
   50MOL    H28 6986   2.230   4.460   3.084  1.0531  1.2439 -0.3179
   50MOL    H29 6987   2.393   4.487   2.853 -0.5351 -0.2725  0.6553
   50MOL    C30 6988   2.203   4.630   2.975 -0.6428 -0.2193 -0.0348
   50MOL    C31 6989   2.307   4.724   3.052 -0.7626 -0.1979 -0.9808
   50MOL    O32 6990   2.263   4.854   3.032 -0.1342  0.2956 -0.3355
   50MOL    H33 6991   2.211   4.658   2.870  1.4735  1.8511  0.6351
   50MOL    H34 6992   2.103   4.642   3.015 -0.6033  0.2676 -0.0775
   50MOL    H35 6993   2.408   4.720   3.010  0.2696  1.2844  1.2731
   50MOL    H36 6994   2.207   4.855   2.956  1.1899  0.1593 -1.3311
   50MOL    C37 6995   2.315   4.701   3.206 -0.0904 -0.0647 -0.6691
   50MOL    C38 6996   2.394   4.796   3.302  0.0937 -0.0252  0.0474
   50MOL    O39 6997   2.345   4.770   3.433  0.2637  0.0918  0.1754
   50MOL    H40 6998   2.212   4.690   3.239 -0.0704 -1.3806 -1.0057
   50MOL    H41 6999   2.365   4.604   3.210  0.7011  0.3366 -0.8059
   50MOL    H42 7000   2.363   4.899   3.284 -0.5646 -0.2878 -0.3535
   50MOL    H43 7001   2.254   4.796   3.441  0.6006  2.5855 -2.9255
   50MOL    C44 7002   2.551   4.773   3.313 -0.8368  0.4537 -0.0695
   50MOL    C45 7003   2.589   4.627   3.346 -0.4170  0.2167 -0.4289
   50MOL    O46 7004   2.652   4.562   3.233  0.0377  0.3179  0.1442
   50MOL    H47 7005   2.585   4.786   3.210 -1.3676 -1.8031 -0.5634
   50MOL    H48 7006   2.606   4.835   3.384  0.4258  0.1197 -0.7395
   50MOL    H49 7007   2.500   4.568   3.368 -0.5276  1.2145  2.0483
   50MOL    H50 7008   2.645   4.469   3.248  2.1347  0.1814  0.5095
   50MOL    C51 7009   2.679   4.610   3.475 -0.1459  0.2505 -0.9942
   50MOL    C52 7010   2.833   4.637   3.459 -0.1695 -0.1183  0.4095
   50MOL    O53 7011   2.841   4.772   3.425  0.6192 -0.1286  0.2126
   50MOL    H54 7012   2.649   4.679   3.554  0.7673 -0.7308  0.2342
   50MOL    H55 7013   2.664   4.510   3.515 -1.7646  1.6078  1.9875
   50MOL    H56 7014   2.881   4.577   3.381  0.0698  1.6050 -0.8056
   50MOL    H57 7015   2.786   4.770   3.347 -0.2888 -2.6219  0.8906
   50MOL    C58 7016   2.909   4.614   3.586 -0.1262 -0.2118  0.0786
   50MOL    C59 7017   3.063   4.635   3.583  0.4121  0.1373 -0.3587
   50MOL    O60 7018   3.083   4.773   3.551  0.1727 -0.1560 -0.1295
   50MOL    H61 7019   2.870   4.678   3.665  0.3198 -0.5448  0.5761
   50MOL    H62 7020   2.888   4.512   3.620 -0.0443 -0.3127 -0.1759
   50MOL    H63 7021   3.120   4.592   3.500  0.3735  2.0045 -1.3724
   50MOL    H64 7022   3.009   4.801   3.499  1.6641  0.5626 -1.9291
   50MOL    C65 7023   3.142   4.615   3.712 -0.8696  0.2118 -0.3173
   50MOL    C66 7024   3.117   4.474   3.781  0.2771  0.3926  0.1374
   50MOL    O67 7025   3.187   4.373   3.706 -0.0049  0.1672 -0.7509
   50MOL    H68 7026   3.251   4.621   3.705 -0.6262 -4.4660 -2.0722
   50MOL    H69 7027   3.108   4.698   3.774  0.8136  0.6014  0.1235
   50MOL    H70 7028   3.013   4.443   3.786  0.3499 -0.0492 -1.0983
   50MOL    H71 7029   3.119   4.329   3.657 -0.4016 -0.4928  0.3662
   50MOL    C72 7030   3.167   4.484   3.924  0.1155 -0.1316 -0.0637
   50MOL    C73 7031   3.156   4.365   4.028  0.2697 -0.2788  0.6185
   50MOL    O74 7032   3.175   4.415   4.159  0.0436 -0.3625 -0.3551
   50MOL    H75 7033   3.267   4.526   3.922  0.2135 -0.4371 -2.2497
   50MOL    H76 7034   3.117   4.573   3.964  1.3638 -0.1636  1.6436
   50MOL    H77 7035   3.237   4.297   3.999 -1.2077 -2.0712  0.6193
   50MOL    H78 7036   3.102   4.472   4.178 -0.6643 -1.4088  0.1133
   50MOL    C79 7037   3.024   4.292   4.022  0.4432  0.3433  0.1239
   50MOL    C80 7038   2.976   4.194   4.132  0.4727  0.1878  0.1001
   50MOL    O81 7039   2.838   4.181   4.124  0.0934  0.4155 -0.5784
   50MOL    H82 7040   2.948   4.370   4.029  0.6321  0.2808  3.6495
   50MOL    H83 7041   3.001   4.235   3.932 -2.8308  1.9637 -0.1321
   50MOL    H84 7042   3.011   4.227   4.230 -0.2361 -1.1298  0.8026
   50MOL    H85 7043   2.800   4.154   4.206  1.8013  0.6134  0.2917
   50MOL    C86 7044   3.061   4.067   4.135  0.1088 -0.0578  0.2535
   50MOL    C87 7045   3.034   3.954   4.029  0.4727 -0.6083  0.1217
   50MOL    O88 7046   3.158   3.877   4.010  0.1179 -0.3483  0.1502
   50MOL    H89 7047   3.163   4.102   4.119  0.4860 -0.8545  0.8399
   50MOL    H90 7048   3.067   4.027   4.236  0.0425 -1.8048 -0.4044
   50MOL    H91 7049   3.005   3.993   3.931 -1.6410  0.1201  1.0213
   50MOL    H92 7050   3.229   3.939   3.999 -1.6854  1.7238 -0.3154
   50MOL    C93 7051   2.928   3.862   4.095  0.8891 -0.3072  0.1774
   50MOL    C94 7052   2.847   3.767   4.005  0.0586  0.0160 -0.3779
   50MOL    O95 7053   2.746   3.700   4.080 -0.0871  0.0706 -0.0801
   50MOL    H96 7054   2.989   3.795   4.156 -1.5082 -1.5010  1.3456
   50MOL    H97 7055   2.865   3.909   4.170 -0.7184 -0.4005 -1.0952
   50MOL    H98 7056   2.920   3.696   3.967  0.7644  0.2097  0.5923
   50MOL    H99 7057   2.778   3.626   4.130 -0.4757 -0.5777 -0.7794
   50MOL   C100 7058   2.776   3.838   3.887 -0.2187 -0.4196 -0.8104
   50MOL   C101 7059   2.846   3.809   3.753 -0.2290  0.2238 -0.6932
   50MOL   O102 7060   2.834   3.679   3.708 -0.1905 -0.2202  0.4872
   50MOL   H103 7061   2.674   3.802   3.870 -1.7622  2.7298  1.3561
   50MOL   H104 7062   2.769   3.945   3.906 -2.5000 -0.7631  0.3679
   50MOL   H105 7063   2.949   3.838   3.776  0.1913 -0.5439 -1.6093
   50MOL   H106 7064   2.904   3.669   3.646  0.3529 -0.6127  1.1494
   50MOL   C107 7065   2.797   3.893   3.638 -0.8645  0.0356  0.0862
   50MOL   C108 7066   2.823   4.047   3.636 -0.1087 -0.7764  0.2718
   50MOL   O109 7067   2.955   4.081   3.664  0.1366 -0.1947 -0.3276
   50MOL   H110 7068   2.836   3.851   3.545 -1.6815  0.2869 -0.3760
   50MOL   H111 7069   2.688   3.896   3.630 -0.8200 -2.1623 -2.3588
   50MOL   H112 7070   2.759   4.098   3.708 -0.2957  0.1729 -0.5586
   50MOL   H113 7071   2.965   4.158   3.610  0.7003 -1.1276 -1.5680
   50MOL   C114 7072   2.789   4.103   3.495 -0.6434  0.1361 -0.2299
   50MOL   C115 7073   2.821   4.242   3.446  0.3242 -0.3148  0.4267
   50MOL   O116 7074   2.952   4.289   3.486  0.3312  0.1295  0.3543
   50MOL   H117 7075   2.834   4.035   3.423 -2.7993 -1.6724  0.1026
   50MOL   H118 7076   2.682   4.089   3.477 -0.9111  1.0976  0.5731
   50MOL   H119 7077   2.750   4.310   3.493  0.7629  0.5836 -0.1990
   50MOL   H120 7078   3.021   4.251   3.433 -0.0289 -0.5765  0.3771
   50MOL   C121 7079   2.810   4.251   3.290 -0.7923 -0.1586 -0.4267
   50MOL   C122 7080   2.673   4.211   3.228  0.1000 -0.2469  0.8928
   50MOL   O123 7081   2.563   4.295   3.281  0.3786 -0.1770  0.0337
   50MOL   H124 7082   2.820   4.357   3.266 -0.7490 -0.1635 -0.4275
   50MOL   H125 7083   2.896   4.201   3.245  0.7667  1.0841  1.1285
   50MOL   H126 7084   2.654   4.107   3.255  0.3200 -0.8256 -1.0620
   50MOL   H127 7085   2.494   4.281   3.219  1.6800 -1.4468 -1.1693
   50MOL   C128 7086   2.677   4.212   3.074  0.5837  0.0135  0.1964
   50MOL   C129 7087   2.548   4.153   3.014  0.3432  0.1183  0.2340
   50MOL   O130 7088   2.433   4.232   3.045 -0.0824  0.3734 -0.5016
   50MOL   H131 7089   2.693   4.312   3.033  0.2617 -0.2213 -0.4995
   50MOL   H132 7090   2.757   4.146   3.039  0.2135 -1.1692  1.5392
   50MOL   H133 7091   2.527   4.054   3.056 -0.1592 -0.2033 -0.7746
   50MOL   H134 7092   2.447   4.317   3.006  0.1428 -0.8158 -3.1098
   50MOL   C135 7093   2.568   4.131   2.860  0.8976  0.0442  0.7655
   50MOL   C136 7094   2.437   4.083   2.787 -0.1379 -0.4306 -0.3097
   50MOL   O137 7095   2.448   3.988   2.683  0.0646  0.0457 -0.0665
   50MOL   H138 7096   2.605   4.218   2.805  1.3871  0.2694  1.4407
   50MOL   H139 7097   2.637   4.047   2.847 -1.9753 -1.9850 -1.9854
   50MOL   H140 7098   2.365   4.164   2.775 -1.7647 -1.6820  0.6479
   50MOL   H141 7099   2.368   3.939   2.697 -0.6713  1.3932  0.5468
   50MOL   H142 7100   2.387   4.019   2.860 -0.4924 -0.8783 -0.9439
   51MOL     C1 7101   3.938   0.056   7.005 -0.3021 -0.3866  0.1060
   51MOL     C2 7102   3.959   7.511   7.144 -0.1105 -0.0052  0.0766
   51MOL     O3 7103   3.937   0.091   7.241  0.1743  0.3716 -0.5507
   51MOL     H4 7104   3.871   0.142   7.000 -2.4986 -2.1610 -1.9363
   51MOL     H5 7105   3.914   7.507   6.924  2.6738 -1.8997  0.4247
   51MOL     H6 7106   4.063   7.477   7.145 -0.3103 -0.6233  1.5779
   51MOL     H7 7107   4.024   0.127   7.255 -0.3684  0.8046  1.8905
   51MOL     H8 7108   4.036   0.092   6.975 -0.4745  0.0670  0.0858
   51MOL     C9 7109   3.869   7.399   7.176 -0.4134  0.6668 -0.1671
   51MOL    C10 7110   3.910   7.320   7.303 -0.1267  0.2800  0.4524
   51MOL    O11 7111   3.804   7.237   7.334 -0.5564 -0.2290 -0.0455
   51MOL    H12 7112   3.769   7.438   7.193 -1.1293 -1.5684  1.0424
   51MOL    H13 7113   3.871   7.338   7.086 -1.1666 -0.3354  0.4780
   51MOL    H14 7114   3.932   7.380   7.392  1.6829  0.6521 -0.2208
   51MOL    H15 7115   3.733   7.290   7.368  1.8775  2.4450  1.0181
   51MOL    C16 7116   4.036   7.237   7.283  0.0881  0.4019  0.2634
   51MOL    C17 7117   4.102   7.181   7.407 -0.7323 -0.7388  0.0996
   51MOL    O18 7118   4.162   7.276   7.499  0.8000 -0.0921  0.0135
   51MOL    H19 7119   4.019   7.150   7.219 -2.1007 -0.9214  2.5511
   51MOL    H20 7120   4.109   7.301   7.234 -2.2186 -1.1833 -5.6878
   51MOL    H21 7121   4.189   7.126   7.369  0.8060  2.6164 -1.4379
   51MOL    H22 7122   4.238   7.301   7.450  1.8655  0.5108  1.9409
   51MOL    C23 7123   4.012   7.090   7.505  0.4237 -0.1276 -0.0374
   51MOL    C24 7124   3.950   6.968   7.428 -0.0417 -0.0013 -0.3006
   51MOL    O25 7125   4.051   6.884   7.383  0.2708  0.2990 -0.3614
   51MOL    H26 7126   4.076   7.044   0.060  0.0611 -1.5700 -0.6137
   51MOL    H27 7127   3.937   7.154   0.032  0.8117  0.6231 -0.4287
   51MOL    H28 7128   3.883   7.001   7.348 -1.1031 -0.2620  0.4846
   51MOL    H29 7129   4.105   6.861   7.457 -3.4951 -3.0670  1.5756
   51MOL    C30 7130   3.865   6.877   7.514  0.1998 -0.3715  0.3821
   51MOL    C31 7131   3.718   6.911   0.002  0.2544  0.2025  0.7516
   51MOL    O32 7132   3.648   6.791   0.036 -0.5904  0.6466 -0.0808
   51MOL    H33 7133   3.877   6.775   7.477  0.8652 -0.3009  0.4051
   51MOL    H34 7134   3.897   6.870   0.098 -0.7893 -1.1801  0.6450
   51MOL    H35 7135   3.683   6.918   7.418 -0.2549  1.6548  1.0124
   51MOL    H36 7136   3.622   6.750   7.474 -0.3159 -0.6426  0.4742
   51MOL    C37 7137   3.679   7.016   0.102  0.1429 -0.0481 -0.9483
   51MOL    C38 7138   3.524   7.039   0.109 -0.2515  0.6324 -0.3001
   51MOL    O39 7139   3.498   7.155   0.185 -0.1908 -0.0202 -0.3512
   51MOL    H40 7140   3.718   6.991   0.201 -2.7592 -0.5984  0.1069
   51MOL    H41 7141   3.721   7.109   0.062  0.3605 -0.9479 -2.8496
   51MOL    H42 7142   3.484   6.954   0.164  0.3163  0.8916  0.5183
   51MOL    H43 7143   3.414   7.183   0.151 -0.9903  0.3071  1.8197
   51MOL    C44 7144   3.449   7.038   7.491  0.5294 -0.1577  0.0240
   51MOL    C45 7145   3.306   7.096   7.488 -0.2151  0.8475  0.4970
   51MOL    O46 7146   3.327   7.232   7.504 -0.0584  0.0884  0.4567
   51MOL    H47 7147   3.508   7.094   7.418  1.7672  0.1495  1.2288
   51MOL    H48 7148   3.449   6.932   7.465 -1.5069 -0.2697  0.4163
   51MOL    H49 7149   3.248   7.060   0.054  1.1444 -1.3151  0.5473
   51MOL    H50 7150   3.255   7.274   7.460  0.1777  0.1397  0.1191
   51MOL    C51 7151   3.232   7.084   7.353 -0.3376 -0.2376  0.3128
   51MOL    C52 7152   3.091   7.143   7.334  0.0145  0.2888  0.6197
   51MOL    O53 7153   3.089   7.281   7.356 -0.3780 -0.0506  0.0473
   51MOL    H54 7154   3.301   7.125   7.278  1.0914 -0.7997  1.2907
   51MOL    H55 7155   3.224   6.978   7.332 -2.0138 -0.2826  1.1758
   51MOL    H56 7156   3.026   7.107   7.414 -0.2906 -1.1627 -0.2842
   51MOL    H57 7157   2.998   7.304   7.367 -0.5143 -1.6196  2.6387
   51MOL    C58 7158   3.033   7.104   7.193  0.0549  0.2874 -0.3253
   51MOL    C59 7159   3.086   7.192   7.075  0.1012  0.6012  0.1283
   51MOL    O60 7160   3.097   7.106   6.962  0.0633  0.2035 -0.5678
   51MOL    H61 7161   3.063   7.002   7.169 -0.6743  0.1901 -0.8481
   51MOL    H62 7162   2.924   7.102   7.202  0.1497 -1.2661  0.5544
   51MOL    H63 7163   3.183   7.232   7.105 -0.1758 -0.1506  2.1300
   51MOL    H64 7164   3.030   7.040   6.969 -1.2706  1.5672 -0.2352
   51MOL    C65 7165   3.005   7.317   7.038  0.9032 -0.7360 -0.8701
   51MOL    C66 7166   3.079   7.421   6.954 -0.9985  0.3012 -0.6350
   51MOL    O67 7167   2.988   7.510   6.897  0.4118  0.6092  0.4491
   51MOL    H68 7168   2.918   7.291   6.978  1.0782 -0.8799 -1.0638
   51MOL    H69 7169   2.961   7.364   7.126  1.2457 -2.2115  0.0967
   51MOL    H70 7170   3.134   7.367   6.877 -1.5071  1.4909 -1.8545
   51MOL    H71 7171   2.953   7.460   6.825 -0.9077 -0.8704  2.0642
   51MOL    C72 7172   3.174   7.506   7.048  0.0518  0.0779  0.2743
   51MOL    C73 7173   3.285   0.058   6.976  0.0563 -0.2534  0.5390
   51MOL    O74 7174   3.283   0.193   7.010 -0.2617  0.2406 -0.1539
   51MOL    H75 7175   3.108   0.054   7.103 -0.6289 -1.1650  1.0069
   51MOL    H76 7176   3.218   7.443   7.126 -0.2368 -1.1071 -0.5085
   51MOL    H77 7177   3.261   0.063   6.870 -3.0187 -2.5170  1.0736
   51MOL    H78 7178   3.199   0.230   6.985 -0.5149  0.3101  0.7939
   51MOL    C79 7179   3.425   7.514   6.985  0.1770  0.0603  0.2578
   51MOL    C80 7180   3.435   7.366   6.952 -0.0796  0.2585 -0.0397
   51MOL    O81 7181   3.380   7.357   6.824 -0.8321 -0.0061 -0.5799
   51MOL    H82 7182   3.501   0.055   6.934 -0.3095  2.5563  2.3797
   51MOL    H83 7183   3.451   0.007   7.090 -1.4603  1.1007  0.5541
   51MOL    H84 7184   3.377   7.301   7.017 -0.8942  0.2106 -0.8117
   51MOL    H85 7185   3.362   7.268   6.800 -1.6102  0.8484 -3.2954
   51MOL    C86 7186   3.582   7.327   6.956 -0.6036 -0.6444  0.5374
   51MOL    C87 7187   3.612   7.176   6.946 -0.4843 -0.9791  0.4792
   51MOL    O88 7188   3.752   7.183   6.922 -0.3860  0.4597 -0.5816
   51MOL    H89 7189   3.631   7.378   6.874 -1.7224  2.2466  1.6265
   51MOL    H90 7190   3.623   7.355   7.053  1.2951 -3.2271  0.5407
   51MOL    H91 7191   3.558   7.131   6.863 -1.2091  0.8111 -0.0428
   51MOL    H92 7192   3.773   7.252   6.861  1.8190  1.2693  1.0109
   51MOL    C93 7193   3.594   7.094   7.074  0.0325 -1.1632 -0.0516
   51MOL    C94 7194   3.601   6.940   7.049 -0.2607  0.6105 -0.0065
   51MOL    O95 7195   3.711   6.910   6.971 -0.1340 -0.2530  0.6224
   51MOL    H96 7196   3.655   7.132   7.156 -0.9754  3.3661 -1.3087
   51MOL    H97 7197   3.495   7.118   7.112  0.6588 -0.0958  0.9144
   51MOL    H98 7198   3.502   6.928   7.006 -0.2159  1.2425 -0.2938
   51MOL    H99 7199   3.742   6.986   6.925 -1.7474  0.4899  0.7378
   51MOL   C100 7200   3.606   6.864   7.184  0.0916 -0.8617 -0.3954
   51MOL   C101 7201   3.580   6.714   7.184  0.5694  0.5699  0.8031
   51MOL   O102 7202   3.640   6.667   7.302 -0.3291 -0.5671 -0.5173
   51MOL   H103 7203   3.709   6.879   7.215 -0.1451  0.7674 -0.3327
   51MOL   H104 7204   3.538   6.910   7.256  1.5864  0.0158  0.4865
   51MOL   H105 7205   3.651   6.677   7.110 -0.3231  0.0662  0.1801
   51MOL   H106 7206   3.692   6.593   7.276  0.9779 -0.3795  1.4771
   51MOL   C107 7207   3.429   6.676   7.161  0.6410 -0.1284 -0.6261
   51MOL   C108 7208   3.387   6.526   7.174  0.1577  0.6496  0.3769
   51MOL   O109 7209   3.248   6.524   7.184  0.3967  0.0712  0.5470
   51MOL   H110 7210   3.364   6.733   7.228  0.5590 -0.8011 -0.1179
   51MOL   H111 7211   3.405   6.711   7.061 -1.8812  0.5655  0.1916
   51MOL   H112 7212   3.421   6.484   7.270 -0.6369 -3.1795 -0.9246
   51MOL   H113 7213   3.218   6.434   7.182  0.4955  0.0546 -0.8877
   51MOL   C114 7214   3.438   6.441   7.057 -0.4866 -0.1661 -0.1080
   51MOL   C115 7215   3.430   6.284   7.093  0.4896  0.5498 -0.3569
   51MOL   O116 7216   3.299   6.238   7.070  0.2942 -0.2843 -0.4263
   51MOL   H117 7217   3.384   6.455   6.963 -2.2024 -0.2741  0.8322
   51MOL   H118 7218   3.542   6.457   7.030  0.0982 -0.1706  2.0532
   51MOL   H119 7219   3.472   6.267   7.192  0.5015  3.7119  0.2341
   51MOL   H120 7220   3.266   6.253   6.983  0.4878 -1.6349 -0.7518
   51MOL   C121 7221   3.524   6.208   6.990  0.1977 -0.5564  0.1406
   51MOL   C122 7222   3.550   6.061   7.032 -0.5746  0.2448 -0.5247
   51MOL   O123 7223   3.618   6.001   6.929 -0.3019 -0.1665 -0.0810
   51MOL   H124 7224   3.490   6.217   6.887  0.6837 -1.5436 -0.1012
   51MOL   H125 7225   3.616   6.266   6.992 -0.0450 -0.0107 -2.6228
   51MOL   H126 7226   3.461   5.999   7.028  0.2869 -1.0548  0.1568
   51MOL   H127 7227   3.561   5.926   6.923 -1.6903  0.8247  0.6117
   51MOL   C128 7228   3.636   6.036   7.159 -0.2947  0.3598  0.3692
   51MOL   C129 7229   3.667   5.891   7.201  0.0628  0.0371 -0.2359
   51MOL   O130 7230   3.748   5.903   7.315 -0.4359  0.2848 -0.5027
   51MOL   H131 7231   3.732   6.083   7.142  2.5425 -4.7345  1.4003
   51MOL   H132 7232   3.598   6.089   7.246  0.1964 -0.9156  1.3858
   51MOL   H133 7233   3.705   5.824   7.123  0.3167  0.6000 -0.5968
   51MOL   H134 7234   3.833   5.929   7.281 -0.0745  0.1076  0.2548
   51MOL   C135 7235   3.540   5.808   7.246  0.3841  0.0555  0.2874
   51MOL   C136 7236   3.567   5.671   7.302 -0.2510  0.5151  0.1281
   51MOL   O137 7237   3.454   5.636   7.384 -0.0972 -0.1447  0.1698
   51MOL   H138 7238   3.485   5.871   7.315 -0.1985 -0.5636  0.3976
   51MOL   H139 7239   3.472   5.787   7.163 -2.9526  2.0884  2.4149
   51MOL   H140 7240   3.653   5.666   7.369 -0.2477  1.8679  0.2385
   51MOL   H141 7241   3.465   5.544   7.400 -1.5633 -0.2833  0.4478
   51MOL   H142 7242   3.589   5.593   7.230 -0.0669  0.3859  0.3220
   52MOL     C1 7243   0.371   0.343   5.770 -0.2745 -1.1199  0.7050
   52MOL     C2 7244   0.252   0.394   5.842 -0.0669 -0.1667 -0.4250
   52MOL     O3 7245   0.173   0.463   5.755  0.3401 -0.0239 -0.6044
   52MOL     H4 7246   0.427   0.425   5.724  0.9420 -1.0148  2.3184
   52MOL     H5 7247   0.352   0.273   5.690  1.6583 -0.2359 -0.5774
   52MOL     H6 7248   0.284   0.466   5.918 -0.5139 -0.0803 -0.3146
   52MOL     H7 7249   0.107   0.514   5.800 -1.7282 -1.8765 -1.4137
   52MOL     H8 7250   0.429   0.297   5.850  0.8924  0.0533  0.5550
   52MOL     C9 7251   0.165   0.273   5.902 -0.5460  0.3902 -0.0700
   52MOL    C10 7252   0.208   0.222   6.040  0.2915  0.3725 -0.7301
   52MOL    O11 7253   0.206   0.328   6.135 -0.6533 -0.2084  0.4729
   52MOL    H12 7254   0.057   0.290   5.897 -0.1259  3.7585  0.8113
   52MOL    H13 7255   0.175   0.195   5.827 -1.3351  1.5601 -1.4198
   52MOL    H14 7256   0.312   0.193   6.020  0.7108  1.9927 -0.9343
   52MOL    H15 7257   0.293   0.361   6.148 -0.5174 -0.9906  1.5797
   52MOL    C16 7258   0.114   0.100   6.080 -0.5495  0.3351 -0.3220
   52MOL    C17 7259   0.123   0.030   6.220 -0.0431 -0.7276  0.1313
   52MOL    O18 7260   0.006   7.476   6.236  0.7915  0.0773 -0.9438
   52MOL    H19 7261   0.009   0.128   6.071 -1.0459 -1.6242 -0.9447
   52MOL    H20 7262   0.130   0.016   6.012  1.2402  0.2514  0.1843
   52MOL    H21 7263   0.126   0.105   6.299 -1.1783  0.1633 -0.6570
   52MOL    H22 7264   0.011   7.412   6.306 -1.1179  1.4414  0.4654
   52MOL    C23 7265   0.234   7.444   6.229 -0.0827 -0.1262 -0.0495
   52MOL    C24 7266   0.377   7.504   6.235  0.2246 -0.6672 -0.1423
   52MOL    O25 7267   0.420   7.473   6.371  0.0783  0.0942 -0.0989
   52MOL    H26 7268   0.212   7.393   6.322 -1.2566 -0.9047 -0.7347
   52MOL    H27 7269   0.221   7.379   6.142 -0.0160 -1.9201  1.2462
   52MOL    H28 7270   0.364   0.090   6.210  0.0219 -0.4341  0.9307
   52MOL    H29 7271   0.390   0.027   6.422 -0.9888 -0.2980 -0.1370
   52MOL    C30 7272   0.473   7.435   6.144  0.3104 -0.1475 -0.3861
   52MOL    C31 7273   0.466   7.486   5.997 -0.1734  0.4941  0.6082
   52MOL    O32 7274   0.530   0.089   5.990 -0.0819 -0.1619  0.5590
   52MOL    H33 7275   0.576   7.442   6.180 -0.4888 -1.5366  2.3013
   52MOL    H34 7276   0.444   7.331   6.142  0.7092 -0.2761  0.4256
   52MOL    H35 7277   0.359   7.492   5.976 -0.5761 -0.0150  2.4310
   52MOL    H36 7278   0.611   0.068   5.948  0.6382  2.7058  0.3657
   52MOL    C37 7279   0.530   7.408   5.883 -0.0081 -0.2331 -0.6336
   52MOL    C38 7280   0.458   7.277   5.840 -0.0988  0.0546  0.5996
   52MOL    O39 7281   0.431   7.273   5.697 -0.0767 -0.0727 -0.1707
   52MOL    H40 7282   0.533   7.480   5.801 -1.3364 -2.8687 -3.0615
   52MOL    H41 7283   0.637   7.392   5.896 -0.4336 -2.6693  0.1553
   52MOL    H42 7284   0.363   7.261   5.891 -0.7706 -0.8733 -0.9226
   52MOL    H43 7285   0.385   7.349   5.667  0.8519  0.3699 -0.5052
   52MOL    C44 7286   0.543   7.153   5.889 -0.0046 -0.1348 -0.3365
   52MOL    C45 7287   0.493   7.005   5.865  0.7263  0.2344 -0.3743
   52MOL    O46 7288   0.602   6.920   5.890  0.7390  0.0330 -0.7714
   52MOL    H47 7289   0.638   7.159   5.837  1.0235 -1.3767  1.3152
   52MOL    H48 7290   0.568   7.174   5.993  0.3312  1.7309 -0.7830
   52MOL    H49 7291   0.473   7.001   5.758 -0.0535 -2.5348 -0.1651
   52MOL    H50 7292   0.652   6.956   5.961  0.1235  2.3886 -1.5114
   52MOL    C51 7293   0.380   6.961   5.954 -0.0751  0.1576 -0.4670
   52MOL    C52 7294   0.324   6.812   5.933  0.5420  0.1220  0.7597
   52MOL    O53 7295   0.245   6.787   6.053  0.2929 -0.5784 -0.1313
   52MOL    H54 7296   0.416   6.985   6.054 -0.4832  2.8340 -0.9282
   52MOL    H55 7297   0.292   7.024   5.940  0.2551  0.3027 -1.9693
   52MOL    H56 7298   0.399   6.733   5.942 -0.4761 -1.0195 -0.6227
   52MOL    H57 7299   0.299   6.807   6.129 -0.1638  0.0220  0.0391
   52MOL    C58 7300   0.241   6.792   5.805  0.1517  0.1946 -0.3728
   52MOL    C59 7301   0.295   6.693   5.703  0.0607 -0.1919  0.8124
   52MOL    O60 7302   0.182   6.630   5.629  0.5335  0.0997  0.4208
   52MOL    H61 7303   0.140   6.756   5.827  1.7794 -3.0737  2.1496
   52MOL    H62 7304   0.239   6.891   5.761 -2.0400 -0.7161 -2.4500
   52MOL    H63 7305   0.334   6.605   5.753  3.0261  1.0279  0.7581
   52MOL    H64 7306   0.139   6.695   5.576 -1.8089 -1.8201 -0.1216
   52MOL    C65 7307   0.412   6.759   5.612 -0.5792  0.0156  0.2050
   52MOL    C66 7308   0.468   6.659   5.508 -0.2437  0.6551  0.4635
   52MOL    O67 7309   0.487   6.734   5.392 -0.1207 -0.2149 -0.4335
   52MOL    H68 7310   0.369   6.850   5.570  1.0418  0.3362 -0.7855
   52MOL    H69 7311   0.494   6.786   5.678 -1.6889  2.6183  0.5513
   52MOL    H70 7312   0.407   6.577   5.471  1.3377  0.3930 -1.6274
   52MOL    H71 7313   0.463   6.677   5.321 -0.5335  0.6246 -0.9724
   52MOL    C72 7314   0.599   6.599   5.559 -0.0049 -0.1111  0.3675
   52MOL    C73 7315   0.664   6.503   5.453 -0.2146 -0.0316  0.1792
   52MOL    O74 7316   0.766   6.568   5.380  0.6197 -0.2677 -0.2820
   52MOL    H75 7317   0.668   6.672   5.600  1.1219 -1.3775  0.7774
   52MOL    H76 7318   0.576   6.543   5.650  0.6344 -0.5831  0.2458
   52MOL    H77 7319   0.591   6.457   5.386  0.0083  0.2389 -0.2428
   52MOL    H78 7320   0.768   6.661   5.397 -0.0809 -0.4699  0.9411
   52MOL    C79 7321   0.743   6.387   5.520 -0.8102 -0.3856  0.1862
   52MOL    C80 7322   0.659   6.278   5.587  0.3341 -0.3176 -0.0768
   52MOL    O81 7323   0.542   6.244   5.514 -0.2891  0.4356  0.9363
   52MOL    H82 7324   0.800   6.339   5.440  0.1556  0.6548  0.2478
   52MOL    H83 7325   0.816   6.438   5.582 -0.6836  0.6878 -0.8171
   52MOL    H84 7326   0.626   6.326   5.679 -1.3693  0.6760 -1.1666
   52MOL    H85 7327   0.492   6.184   5.567 -0.2125  0.3927  0.9600
   52MOL    C86 7328   0.726   6.139   5.608 -0.4179  0.1272 -0.0123
   52MOL    C87 7329   0.848   6.132   5.709  0.3773  0.4031 -0.1382
   52MOL    O88 7330   0.798   6.177   5.837 -0.3379  0.1631 -0.0445
   52MOL    H89 7331   0.655   6.082   5.669  0.0490 -1.7207 -1.1611
   52MOL    H90 7332   0.769   6.087   5.522 -0.3499  3.3697 -2.0213
   52MOL    H91 7333   0.925   6.204   5.681 -0.8365  1.4855 -0.7597
   52MOL    H92 7334   0.771   6.266   5.819  0.7084  0.9653  2.1172
   52MOL    C93 7335   0.900   5.990   5.723 -0.7784  0.0946  0.2140
   52MOL    C94 7336   0.979   5.961   5.853  0.3951 -0.4265 -0.5461
   52MOL    O95 7337   1.003   5.827   5.856  0.2752  0.0970 -0.0908
   52MOL    H96 7338   0.810   5.932   5.744 -0.8552  0.4885  0.9777
   52MOL    H97 7339   0.951   5.958   5.632  0.7189 -1.9172  1.7262
   52MOL    H98 7340   0.926   5.983   5.946  0.3925 -1.0235 -0.4078
   52MOL    H99 7341   1.050   5.796   5.781  2.2098 -0.2772  1.2299
   52MOL   C100 7342   1.124   6.024   5.851  0.1601 -0.0316  0.1939
   52MOL   C101 7343   1.191   6.044   5.992 -0.2865 -0.2338  0.2268
   52MOL   O102 7344   1.326   6.075   5.983 -0.1876  0.7322  0.8814
   52MOL   H103 7345   1.194   5.960   5.797  0.3183  0.8414 -0.6603
   52MOL   H104 7346   1.127   6.119   5.798 -0.3676  0.3370  0.8184
   52MOL   H105 7347   1.181   5.958   6.060  0.8450 -0.1269  0.5433
   52MOL   H106 7348   1.342   6.127   5.906 -0.3622 -0.1278  0.2577
   52MOL   C107 7349   1.125   6.159   6.077 -0.3028 -0.5802  1.1475
   52MOL   C108 7350   1.135   6.310   6.020 -0.7875  1.8606  0.8041
   52MOL   O109 7351   1.053   6.379   6.108  0.3826  0.1615 -0.4634
   52MOL   H110 7352   1.020   6.130   6.084 -0.2090 -1.1234  0.3637
   52MOL   H111 7353   1.175   6.156   6.174  2.1776  0.9678 -0.0221
   52MOL   H112 7354   1.098   6.322   5.919  3.2035 -0.0752 -1.0408
   52MOL   H113 7355   0.962   6.351   6.103  0.9316 -1.4025 -2.0541
   52MOL   C114 7356   1.273   6.378   6.038 -0.0914 -0.4109  0.1055
   52MOL   C115 7357   1.292   6.531   6.049  0.0646 -0.2103  0.2067
   52MOL   O116 7358   1.427   6.567   6.077 -0.3664 -0.4472  0.0730
   52MOL   H117 7359   1.315   6.332   6.128  1.0882  2.2734  0.9632
   52MOL   H118 7360   1.335   6.347   5.954 -0.6321  1.1866 -0.8955
   52MOL   H119 7361   1.237   6.569   6.135 -1.0192 -2.4811  0.5352
   52MOL   H120 7362   1.459   6.531   6.159  1.2369 -0.8901 -0.7244
   52MOL   C121 7363   1.247   6.607   5.923 -0.3100  0.5578  0.5752
   52MOL   C122 7364   1.192   6.747   5.952  0.1962  0.1527 -0.2639
   52MOL   O123 7365   1.301   6.833   5.974 -0.4887 -0.8556  0.6457
   52MOL   H124 7366   1.330   6.601   5.852  1.1529  3.4702  1.9353
   52MOL   H125 7367   1.175   6.537   5.881 -1.4693  0.2037  3.0795
   52MOL   H126 7368   1.121   6.747   6.035 -3.2828  1.3701 -3.0674
   52MOL   H127 7369   1.267   6.906   6.025 -4.8604 -1.2217 -1.5428
   52MOL   C128 7370   1.101   6.805   5.839 -0.9939 -0.1791  0.7244
   52MOL   C129 7371   0.949   6.780   5.844  0.2809 -0.5954  0.9078
   52MOL   O130 7372   0.892   6.863   5.745 -0.0724 -0.5427 -0.0844
   52MOL   H131 7373   1.112   6.913   5.846  0.5758 -0.2171 -0.7818
   52MOL   H132 7374   1.147   6.781   5.742  1.6575 -0.1594  1.9283
   52MOL   H133 7375   0.919   6.822   5.940  1.8985  1.6001  0.4818
   52MOL   H134 7376   0.855   6.937   5.790  1.7617 -0.2762  1.0590
   52MOL   C135 7377   0.903   6.635   5.829  0.7081  0.5660 -1.2684
   52MOL   C136 7378   0.762   6.600   5.871 -0.1031 -0.3333  0.1980
   52MOL   O137 7379   0.745   6.465   5.844  0.1452 -0.0036  0.2513
   52MOL   H138 7380   0.923   6.600   5.727 -1.1080 -0.4263 -1.3094
   52MOL   H139 7381   0.964   6.571   5.892 -1.4744 -0.4493 -0.1456
   52MOL   H140 7382   0.691   6.648   5.803 -0.3482 -0.0265  0.6669
   52MOL   H141 7383   0.657   6.438   5.866 -0.8103  0.0642 -3.1244
   52MOL   H142 7384   0.722   6.625   5.969 -0.5233  0.5689 -0.1985
   53MOL     C1 7385   1.602   4.264   1.900  0.5234  0.6711 -0.0787
   53MOL     C2 7386   1.487   4.245   2.002 -1.2478  0.0312 -0.0042
   53MOL     O3 7387   1.476   4.110   2.026  0.6297 -0.8275 -0.0893
   53MOL     H4 7388   1.684   4.209   1.945  0.1746 -0.5285 -0.8825
   53MOL     H5 7389   1.624   4.370   1.888 -1.2835  1.6173  4.1746
   53MOL     H6 7390   1.396   4.289   1.962 -0.4713  1.6912  0.0009
   53MOL     H7 7391   1.551   4.078   2.073  0.5115  0.2505  0.8478
   53MOL     H8 7392   1.589   4.223   1.800 -3.5310  1.0946  0.1886
   53MOL     C9 7393   1.537   4.298   2.139 -0.3173  0.0320 -0.2637
   53MOL    C10 7394   1.426   4.327   2.245 -0.6878 -0.6752 -0.0659
   53MOL    O11 7395   1.332   4.222   2.257 -0.0199 -0.3650  0.5409
   53MOL    H12 7396   1.602   4.227   2.191 -0.9670 -1.0242 -0.8802
   53MOL    H13 7397   1.592   4.391   2.128  0.0079  0.0226  1.1504
   53MOL    H14 7398   1.384   4.424   2.217  2.2248  0.2705 -1.3813
   53MOL    H15 7399   1.302   4.196   2.171  0.4703  1.3331 -0.1552
   53MOL    C16 7400   1.485   4.349   2.391  0.3939 -0.7832 -0.7912
   53MOL    C17 7401   1.397   4.413   2.501 -0.0696  0.1722  0.1188
   53MOL    O18 7402   1.269   4.352   2.504  0.3528 -0.0806  0.3480
   53MOL    H19 7403   1.514   4.245   2.408 -1.2199 -1.1747 -0.3564
   53MOL    H20 7404   1.577   4.407   2.379  0.5340 -1.2308 -1.9788
   53MOL    H21 7405   1.389   4.520   2.481 -0.5015 -0.1760 -1.6691
   53MOL    H22 7406   1.261   4.307   2.421 -0.7003 -1.7262  1.3171
   53MOL    C23 7407   1.456   4.411   2.643  0.3627  0.5518  0.3076
   53MOL    C24 7408   1.377   4.506   2.734  0.4201  0.0999 -0.1182
   53MOL    O25 7409   1.258   4.449   2.776 -0.6325 -0.2590 -0.5939
   53MOL    H26 7410   1.462   4.306   2.670 -0.7330  1.3065  3.7176
   53MOL    H27 7411   1.561   4.439   2.628  0.0113  1.5880 -0.2869
   53MOL    H28 7412   1.364   4.599   2.680  1.3035  0.1779 -0.2057
   53MOL    H29 7413   1.226   4.407   2.697 -0.8374 -3.4225  1.0582
   53MOL    C30 7414   1.458   4.522   2.867  1.4853  0.2240  0.0112
   53MOL    C31 7415   1.401   4.625   2.960 -0.0154 -0.2571  0.2624
   53MOL    O32 7416   1.280   4.571   3.000  0.2908 -0.2636  0.3111
   53MOL    H33 7417   1.471   4.426   2.917  2.3885 -1.0406 -2.5260
   53MOL    H34 7418   1.560   4.557   2.853  2.2086 -1.3234  1.1979
   53MOL    H35 7419   1.383   4.723   2.914 -0.7256 -0.6419 -0.2825
   53MOL    H36 7420   1.248   4.529   2.922 -0.9452  0.2922  0.5176
   53MOL    C37 7421   1.481   4.655   3.087 -0.5312 -0.0269  0.4902
   53MOL    C38 7422   1.428   4.776   3.176 -0.6643  0.7316  0.0786
   53MOL    O39 7423   1.498   4.762   3.295  0.4963  0.0015 -0.6400
   53MOL    H40 7424   1.485   4.556   3.134 -0.4888  0.0968  0.7461
   53MOL    H41 7425   1.587   4.663   3.066 -0.4376 -0.5771  0.7391
   53MOL    H42 7426   1.323   4.761   3.201  0.2121 -2.8828  1.8218
   53MOL    H43 7427   1.424   4.751   3.352 -0.6347  1.3076 -1.8204
   53MOL    C44 7428   1.461   4.919   3.126 -0.8729 -0.1021 -0.0827
   53MOL    C45 7429   1.369   5.039   3.178 -0.2965 -0.3626 -0.8104
   53MOL    O46 7430   1.236   5.027   3.130  0.8484 -0.4324  0.6459
   53MOL    H47 7431   1.567   4.938   3.144 -0.7792  0.1220 -0.8268
   53MOL    H48 7432   1.454   4.932   3.018  0.7460 -1.5303 -0.3738
   53MOL    H49 7433   1.414   5.129   3.135  1.6608 -0.0648  1.7408
   53MOL    H50 7434   1.226   5.107   3.081 -0.2888  0.0849  1.6736
   53MOL    C51 7435   1.356   5.047   3.330 -0.3458  0.5308 -0.4115
   53MOL    C52 7436   1.490   5.063   3.408 -0.3555 -0.0719 -0.3318
   53MOL    O53 7437   1.562   5.180   3.362 -0.0819  0.1276 -0.8646
   53MOL    H54 7438   1.290   5.131   3.348 -2.5197 -1.0738 -0.6585
   53MOL    H55 7439   1.300   4.961   3.368 -2.0934  1.5457 -0.6516
   53MOL    H56 7440   1.556   4.978   3.390 -1.2210 -1.0878  1.3132
   53MOL    H57 7441   1.501   5.249   3.342  1.5297  2.1252  0.8912
   53MOL    C58 7442   1.467   5.082   3.565  0.7630  0.3084 -0.8655
   53MOL    C59 7443   1.588   5.083   3.657 -0.2390 -0.4065  0.1306
   53MOL    O60 7444   1.557   5.117   3.786  0.2546 -0.3084 -0.2607
   53MOL    H61 7445   1.394   5.160   3.585 -2.6786 -3.6562  2.8478
   53MOL    H62 7446   1.413   4.994   3.600  0.3944  1.2999  1.1156
   53MOL    H63 7447   1.653   5.168   3.636 -0.8273  0.7579  2.8045
   53MOL    H64 7448   1.645   5.119   3.820  0.2851  1.4437 -0.4076
   53MOL    C65 7449   1.674   4.954   3.651 -0.3255 -0.3086 -0.5531
   53MOL    C66 7450   1.821   4.962   3.696  1.0404  0.5961  0.7142
   53MOL    O67 7451   1.829   4.945   3.831 -0.1294 -0.2546 -0.1538
   53MOL    H68 7452   1.625   4.876   3.709 -0.0816  0.3257  0.5123
   53MOL    H69 7453   1.680   4.915   3.549 -0.7795 -1.4500 -0.1496
   53MOL    H70 7454   1.862   5.061   3.677  1.4768  0.1304 -0.8417
   53MOL    H71 7455   1.805   4.859   3.861 -0.8764 -0.2056 -0.6009
   53MOL    C72 7456   1.904   4.860   3.619  0.3654 -0.3792  0.1874
   53MOL    C73 7457   1.960   4.895   3.478  1.2123  0.6111 -0.1289
   53MOL    O74 7458   2.097   4.927   3.493 -0.3933 -0.1795  0.2586
   53MOL    H75 7459   1.989   4.810   3.666  0.0838 -2.7801 -1.7255
   53MOL    H76 7460   1.839   4.772   3.610  2.1068 -1.5277 -1.4789
   53MOL    H77 7461   1.904   4.974   3.430 -0.0087  0.0272  0.3156
   53MOL    H78 7462   2.114   4.992   3.426 -1.5448  0.4325  0.5426
   53MOL    C79 7463   1.967   4.778   3.380 -0.7193  0.6271  0.9794
   53MOL    C80 7464   1.832   4.705   3.340  0.2141 -0.3957 -0.1371
   53MOL    O81 7465   1.754   4.804   3.274 -0.5049  0.4279  0.5780
   53MOL    H82 7466   2.006   4.806   3.282  0.8146 -0.7120  1.1887
   53MOL    H83 7467   2.037   4.701   3.413 -1.1405  0.0013  0.4098
   53MOL    H84 7468   1.776   4.671   3.427 -0.7656  1.7772  0.1297
   53MOL    H85 7469   1.663   4.792   3.296 -0.6874 -1.0491 -0.9603
   53MOL    C86 7470   1.837   4.590   3.236 -0.3209 -0.2063 -0.3235
   53MOL    C87 7471   1.902   4.458   3.289 -0.9160  0.3875 -0.0585
   53MOL    O88 7472   2.036   4.465   3.253  0.3649  0.7933  0.0778
   53MOL    H89 7473   1.734   4.571   3.207 -0.5788 -1.7594  1.5350
   53MOL    H90 7474   1.887   4.621   3.144 -0.2562  0.0287 -0.2091
   53MOL    H91 7475   1.856   4.373   3.238  2.9414 -3.0729  1.9738
   53MOL    H92 7476   2.084   4.505   3.324  0.2456  1.0584  0.0108
   53MOL    C93 7477   1.883   4.421   3.440  0.0962 -0.3337  0.3239
   53MOL    C94 7478   1.738   4.393   3.481  0.2342 -0.0490  0.0262
   53MOL    O95 7479   1.707   4.260   3.459  0.3041  0.2867  0.2554
   53MOL    H96 7480   1.946   4.334   3.458 -2.4234 -1.7141  2.7070
   53MOL    H97 7481   1.924   4.488   3.516  1.3226 -1.5249  0.7463
   53MOL    H98 7482   1.676   4.442   3.406 -0.8283 -1.3003  0.0762
   53MOL    H99 7483   1.639   4.244   3.395  0.9717  0.6558 -0.5613
   53MOL   C100 7484   1.701   4.426   3.632  0.2609  0.1746  0.5462
   53MOL   C101 7485   1.549   4.439   3.650  0.0486 -0.1635  0.6534
   53MOL   O102 7486   1.520   4.451   3.790 -0.3359 -0.2753 -0.2144
   53MOL   H103 7487   1.753   4.358   3.699  0.2630  1.1215  1.5286
   53MOL   H104 7488   1.757   4.517   3.651 -0.7615  0.7465  0.8831
   53MOL   H105 7489   1.496   4.348   3.621 -1.2252  0.8618 -0.3443
   53MOL   H106 7490   1.451   4.389   3.804  0.0852 -0.5379  0.7591
   53MOL   C107 7491   1.495   4.571   3.576  0.0260 -0.2071 -0.0611
   53MOL   C108 7492   1.354   4.552   3.512 -0.0232 -0.2091  0.0624
   53MOL   O109 7493   1.321   4.679   3.479  0.9481 -0.6431  0.2058
   53MOL   H110 7494   1.491   4.644   3.657 -0.7441 -1.6894  1.2921
   53MOL   H111 7495   1.566   4.610   3.504  0.8207 -1.3495  0.0857
   53MOL   H112 7496   1.273   4.526   3.579  0.2404  0.2421  0.5653
   53MOL   H113 7497   1.240   4.697   3.524 -0.2635  0.6501 -2.3681
   53MOL   C114 7498   1.353   4.450   3.395  0.3001  0.1432 -0.9356
   53MOL   C115 7499   1.221   4.439   3.313  0.7436  0.2151  0.5360
   53MOL   O116 7500   1.251   4.371   3.193 -0.2239  0.5355 -0.0497
   53MOL   H117 7501   1.434   4.476   3.326  0.3418  2.0765 -0.1815
   53MOL   H118 7502   1.398   4.354   3.420 -0.2924 -0.5951 -2.6192
   53MOL   H119 7503   1.197   4.541   3.285 -2.4441 -0.6959 -0.2580
   53MOL   H120 7504   1.259   4.430   3.120  0.6681 -1.0143 -1.2288
   53MOL   C121 7505   1.116   4.358   3.393  0.2021 -0.2710 -0.0981
   53MOL   C122 7506   0.992   4.298   3.312 -0.4800  0.0744 -0.3090
   53MOL   O123 7507   0.922   4.212   3.406 -0.3672 -0.9092  0.2545
   53MOL   H124 7508   1.155   4.279   3.458  1.2842 -0.1040 -0.5309
   53MOL   H125 7509   1.070   4.422   3.468  1.9985  1.5455 -0.4826
   53MOL   H126 7510   1.037   4.242   3.230 -0.4142 -0.1341 -0.1325
   53MOL   H127 7511   0.838   4.194   3.368 -1.0383  1.4255  0.5646
   53MOL   C128 7512   0.879   4.397   3.263 -0.0567  0.2146  0.2641
   53MOL   C129 7513   0.916   4.510   3.170  0.3164  0.0086  0.2205
   53MOL   O130 7514   0.804   4.522   3.086  0.1345 -0.5203 -0.0572
   53MOL   H131 7515   0.822   4.330   3.199  0.7771 -0.3534  0.1011
   53MOL   H132 7516   0.834   4.425   3.357  0.4597 -0.7030  0.7955
   53MOL   H133 7517   1.005   4.495   3.109  1.6279  2.4166  1.4484
   53MOL   H134 7518   0.818   4.589   3.021 -0.8016 -2.1092 -1.9402
   53MOL   C135 7519   0.933   4.635   3.260  0.1886 -0.2107  0.5290
   53MOL   C136 7520   1.021   4.745   3.191  0.0017 -0.4347  0.1988
   53MOL   O137 7521   1.065   4.856   3.270  0.2007 -0.0735  0.6517
   53MOL   H138 7522   0.838   4.681   3.290  0.8753  1.9296 -0.4694
   53MOL   H139 7523   0.970   4.613   3.360 -1.7768 -0.4154  1.2327
   53MOL   H140 7524   0.969   4.780   3.101 -0.1897 -0.3481  0.3430
   53MOL   H141 7525   1.107   4.918   3.212  0.1616 -1.6744 -1.1197
   53MOL   H142 7526   1.108   4.707   3.138 -0.4995  1.4142 -2.0347
   54MOL     C1 7527   4.904   5.922   2.014 -0.3167  0.2454  0.4663
   54MOL     C2 7528   4.904   5.871   1.868 -0.2607  0.1488  0.1702
   54MOL     O3 7529   4.962   5.976   1.783 -0.6085  0.1190  0.0064
   54MOL     H4 7530   4.857   5.850   2.081 -0.7484 -0.0369 -0.1342
   54MOL     H5 7531   4.847   6.015   2.014 -0.3670  0.2178  0.0746
   54MOL     H6 7532   4.804   5.869   1.824 -0.5973 -1.4813  0.9704
   54MOL     H7 7533   4.957   5.942   1.695 -2.3192  1.5261 -0.4506
   54MOL     H8 7534   5.005   5.957   2.034 -0.1837  0.2665 -0.2046
   54MOL     C9 7535   4.974   5.734   1.845 -0.1613  0.4270 -0.1228
   54MOL    C10 7536   4.945   5.664   1.708  0.2317 -0.3492  0.5522
   54MOL    O11 7537   5.055   5.576   1.667  0.1150  0.4520  0.0750
   54MOL    H12 7538   5.081   5.754   1.852 -0.1717  1.2921 -2.1048
   54MOL    H13 7539   4.961   5.661   1.925 -0.5590 -1.6992 -2.0908
   54MOL    H14 7540   4.934   5.747   1.639  0.0441 -0.6764  0.1855
   54MOL    H15 7541   5.081   5.598   1.579  0.8592  0.6092  0.3285
   54MOL    C16 7542   4.821   5.575   1.732 -0.0786  0.6306  0.4024
   54MOL    C17 7543   4.712   5.589   1.622 -0.2320 -0.1275  0.1153
   54MOL    O18 7544   4.618   5.487   1.651  0.1994 -0.1111 -0.3364
   54MOL    H19 7545   4.850   5.470   1.735  0.3373  0.7688  1.3567
   54MOL    H20 7546   4.783   5.595   1.833  0.3219 -0.4768  0.7796
   54MOL    H21 7547   4.750   5.577   1.521  0.4049 -0.8077  0.4339
   54MOL    H22 7548   4.535   5.520   1.621  1.3538  2.2427 -1.0255
   54MOL    C23 7549   4.632   5.722   1.629  0.4123  0.0853 -0.2263
   54MOL    C24 7550   4.518   5.748   1.523 -0.1201 -0.1698  0.2891
   54MOL    O25 7551   4.417   5.646   1.536 -0.5394 -0.1454  0.5165
   54MOL    H26 7552   4.590   5.733   1.730 -0.8186  0.8796 -0.8095
   54MOL    H27 7553   4.705   5.803   1.616 -0.0058  0.4953 -0.0321
   54MOL    H28 7554   4.566   5.762   1.426  1.9514  0.7717  1.4023
   54MOL    H29 7555   4.354   5.661   1.467 -1.2119  0.2123  1.1999
   54MOL    C30 7556   4.454   5.872   1.568  0.2719 -0.2820 -0.6406
   54MOL    C31 7557   4.365   5.944   1.469  0.2825  0.1296 -0.4797
   54MOL    O32 7558   4.325   6.071   1.527 -0.1965 -0.4059  0.5007
   54MOL    H33 7559   4.402   5.866   1.664  0.8228 -2.0572 -0.4438
   54MOL    H34 7560   4.546   5.929   1.582 -0.4049  0.3612  1.4805
   54MOL    H35 7561   4.272   5.886   1.465  0.2218  0.2484 -0.7771
   54MOL    H36 7562   4.409   6.114   1.523 -1.5126  2.3599  1.1335
   54MOL    C37 7563   4.437   5.978   1.342  0.4098 -0.6464  0.1828
   54MOL    C38 7564   4.355   6.063   1.235 -0.6312  0.1503  0.2333
   54MOL    O39 7565   4.409   6.058   1.101 -0.0941  0.3146 -0.1825
   54MOL    H40 7566   4.522   6.043   1.364  1.1528 -1.3355 -0.6449
   54MOL    H41 7567   4.478   5.892   1.290  0.9101  0.0619 -0.6158
   54MOL    H42 7568   4.353   6.169   1.260 -3.3320  0.1693  0.1122
   54MOL    H43 7569   4.410   5.971   1.063 -0.6894  0.5848 -0.8226
   54MOL    C44 7570   4.209   5.998   1.220 -0.2779  0.1559 -0.0734
   54MOL    C45 7571   4.102   6.101   1.190 -0.0534 -0.2267  0.1977
   54MOL    O46 7572   4.012   6.012   1.126  0.2067 -0.7015  0.0806
   54MOL    H47 7573   4.222   5.927   1.139  0.1683 -1.2266  1.1723
   54MOL    H48 7574   4.183   5.924   1.296 -1.0442  0.9173  0.4054
   54MOL    H49 7575   4.133   6.170   1.111 -0.8422 -1.2338 -1.0258
   54MOL    H50 7576   3.962   6.066   1.067 -1.0126 -0.9648  0.8456
   54MOL    C51 7577   4.030   6.158   1.317  0.1451  0.5710  0.8086
   54MOL    C52 7578   3.939   6.282   1.301 -0.6834 -0.1253 -0.0305
   54MOL    O53 7579   3.806   6.242   1.265  0.6523  0.0795 -0.0035
   54MOL    H54 7580   3.974   6.086   1.376 -0.9022 -0.1070 -1.0260
   54MOL    H55 7581   4.114   6.192   1.379  2.4222 -0.6559 -1.5113
   54MOL    H56 7582   3.973   6.317   1.204 -0.5196 -0.7412 -0.2013
   54MOL    H57 7583   3.805   6.159   1.220 -0.6325 -0.1068  0.3369
   54MOL    C58 7584   3.954   6.387   1.420  0.1532  0.1354 -0.2497
   54MOL    C59 7585   4.086   6.465   1.406  0.3502  0.0550  0.5143
   54MOL    O60 7586   4.058   6.575   1.321  0.0074  0.1654 -0.3197
   54MOL    H61 7587   3.869   6.456   1.417 -2.2582 -2.6944 -0.0134
   54MOL    H62 7588   3.945   6.338   1.517  0.1026 -0.0135 -0.3297
   54MOL    H63 7589   4.161   6.407   1.353 -0.3979 -2.8367  2.5576
   54MOL    H64 7590   4.135   6.610   1.278 -0.2167  1.2797  0.1772
   54MOL    C65 7591   4.142   6.514   1.538  0.0907 -0.1025 -0.5791
   54MOL    C66 7592   4.200   6.406   1.632 -0.1627 -0.1100 -0.1039
   54MOL    O67 7593   4.328   6.356   1.568 -0.0268 -0.1822  0.5366
   54MOL    H68 7594   4.217   6.591   1.522  2.6130 -2.0767  1.3294
   54MOL    H69 7595   4.059   6.568   1.583 -0.2352 -3.1173  2.6794
   54MOL    H70 7596   4.148   6.312   1.644  0.9935 -0.8468 -0.7759
   54MOL    H71 7597   4.357   6.280   1.616  1.0344 -0.4403 -0.4988
   54MOL    C72 7598   4.232   6.465   1.776 -0.5970  0.5031 -0.0412
   54MOL    C73 7599   4.112   6.485   1.862 -0.0188  1.3881 -0.0690
   54MOL    O74 7600   4.114   6.371   1.951 -0.7445  0.2297 -0.1292
   54MOL    H75 7601   4.304   6.395   1.819  0.3090  0.2185 -1.9349
   54MOL    H76 7602   4.279   6.563   1.763 -1.2073  0.9582  1.1723
   54MOL    H77 7603   4.022   6.475   1.802  0.9655 -0.0465 -1.3330
   54MOL    H78 7604   4.023   6.368   1.978  0.0743 -1.0400  2.6983
   54MOL    C79 7605   4.100   6.620   1.946 -0.0177  0.4350  0.2861
   54MOL    C80 7606   4.098   6.750   1.856 -0.6163  0.1464  0.1375
   54MOL    O81 7607   3.963   6.790   1.846 -0.1702  0.9085  0.2189
   54MOL    H82 7608   4.010   6.625   2.008 -0.7743 -1.9354 -0.5473
   54MOL    H83 7609   4.181   6.630   2.017  0.0609  0.8275  0.1433
   54MOL    H84 7610   4.123   6.724   1.753  1.3238 -0.0383  0.6460
   54MOL    H85 7611   3.962   6.866   1.790 -1.9213  0.8702  0.1612
   54MOL    C86 7612   4.194   6.862   1.902 -0.3244  0.2162 -0.8500
   54MOL    C87 7613   4.336   6.817   1.891  0.3300  0.7962 -0.0641
   54MOL    O88 7614   4.376   6.802   1.752  0.2368 -0.4548 -0.6982
   54MOL    H89 7615   4.183   6.950   1.838  1.0103  1.1976  0.2212
   54MOL    H90 7616   4.175   6.896   2.003  0.6002 -0.9113 -0.2837
   54MOL    H91 7617   4.341   6.725   1.949 -1.3000  1.4925  1.1945
   54MOL    H92 7618   4.469   6.785   1.758  0.3090  0.1588  0.0123
   54MOL    C93 7619   4.437   6.912   1.957  1.1506 -0.5234 -0.7422
   54MOL    C94 7620   4.572   6.854   1.975  0.1337  0.1975 -0.1521
   54MOL    O95 7621   4.633   6.813   1.853 -0.3092 -0.0292  0.2583
   54MOL    H96 7622   4.456   7.005   1.903 -0.1503  0.1904  0.0240
   54MOL    H97 7623   4.401   6.937   2.057 -0.0097  0.4351 -1.3844
   54MOL    H98 7624   4.558   6.766   2.039 -0.1715  1.2645  1.2679
   54MOL    H99 7625   4.721   6.817   1.888  0.4383 -1.0073 -1.4573
   54MOL   C100 7626   4.678   6.933   2.049 -0.1796 -0.1591  0.2561
   54MOL   C101 7627   4.802   6.855   2.095 -0.0913 -0.0214  0.7725
   54MOL   O102 7628   4.883   6.811   1.983  0.1759 -0.1349 -0.2574
   54MOL   H103 7629   4.702   7.027   2.001 -0.1844 -1.1408 -1.6972
   54MOL   H104 7630   4.614   6.962   2.133 -1.4648  0.5868 -0.9642
   54MOL   H105 7631   4.767   6.761   2.139 -0.7417 -0.0844  0.1297
   54MOL   H106 7632   4.940   6.742   2.014  1.3966  0.5335 -0.9744
   54MOL   C107 7633   4.890   6.954   2.176 -0.7917 -0.3140  0.4981
   54MOL   C108 7634   4.830   6.998   2.309  0.3178  0.4129  0.5738
   54MOL   O109 7635   4.855   6.904   2.414  0.0648 -0.0666  0.3534
   54MOL   H110 7636   4.988   6.907   2.183 -0.0502  0.9922 -0.6842
   54MOL   H111 7637   4.908   7.041   2.112 -0.0503 -0.4089  0.5713
   54MOL   H112 7638   4.721   7.002   2.319  0.2748 -0.7545  0.5969
   54MOL   H113 7639   4.780   6.913   2.471 -0.4866 -1.2489 -0.1590
   54MOL   C114 7640   4.888   7.122   2.383 -0.3564 -0.3740 -0.1636
   54MOL   C115 7641   4.877   7.259   2.310 -0.0138 -0.0764 -0.0513
   54MOL   O116 7642   4.736   7.304   2.321 -0.0103  0.4067 -0.3956
   54MOL   H117 7643   4.844   7.143   2.480  0.4598 -0.8711  0.3197
   54MOL   H118 7644   4.994   7.098   2.392 -0.2381 -0.3759 -1.4362
   54MOL   H119 7645   4.905   7.246   2.206  0.6126 -1.5588  0.3008
   54MOL   H120 7646   4.707   7.292   2.410 -1.4466 -2.6593 -1.2021
   54MOL   C121 7647   4.975   7.362   2.368  0.3584  0.5821  0.2770
   54MOL   C122 7648   5.013   7.484   2.272  0.1013  0.3136 -0.1433
   54MOL   O123 7649   5.088   0.055   2.341 -0.2214  0.0096 -0.2178
   54MOL   H124 7650   4.941   7.389   2.468 -0.3672 -1.1020  0.4991
   54MOL   H125 7651   5.073   7.323   2.396  0.2953 -1.1398 -1.7994
   54MOL   H126 7652   4.919   0.017   2.257 -0.7096 -1.4947 -1.5890
   54MOL   H127 7653   5.035   0.114   2.392 -0.5294 -0.7323  0.3255
   54MOL   C128 7654   5.088   7.450   2.142  0.5172 -0.9356 -0.0008
   54MOL   C129 7655   5.229   7.385   2.153  0.2285 -0.5017 -0.0162
   54MOL   O130 7656   5.205   7.248   2.159 -0.0396  0.1835 -0.0108
   54MOL   H131 7657   5.021   7.391   2.080 -1.0746 -0.3735  1.1621
   54MOL   H132 7658   5.101   0.024   2.086 -1.6747 -0.7476 -0.2277
   54MOL   H133 7659   5.279   7.413   2.246  0.1662 -0.9886  0.1641
   54MOL   H134 7660   5.244   7.205   2.234  1.5229  0.8125 -0.4456
   54MOL   C135 7661   5.309   7.424   2.027 -0.2834  0.7326 -0.0402
   54MOL   C136 7662   5.438   7.338   2.010  0.6144  0.0726 -0.1406
   54MOL   O137 7663   5.503   7.343   1.879 -0.0029  0.2441  0.8918
   54MOL   H138 7664   5.253   7.424   1.933 -1.5658 -0.1251  0.7139
   54MOL   H139 7665   5.335   0.010   2.037  0.7931  0.6535 -1.7792
   54MOL   H140 7666   5.410   7.233   2.021  0.4465  0.0408 -0.8019
   54MOL   H141 7667   5.592   7.371   1.897 -0.8637  4.1715 -0.4867
   54MOL   H142 7668   5.516   7.361   2.082  0.2633  1.6869 -0.2637
   55MOL     C1 7669   1.800   7.348   4.787 -0.2432 -0.1251  0.0843
   55MOL     C2 7670   1.701   7.257   4.866 -0.3455  0.3248 -0.3544
   55MOL     O3 7671   1.673   7.149   4.776  0.2109  0.0718  0.2435
   55MOL     H4 7672   1.894   7.305   4.752  0.5281  0.5963  1.2467
   55MOL     H5 7673   1.833   7.436   4.841 -2.5116  0.8813 -0.0945
   55MOL     H6 7674   1.609   7.313   4.881 -0.4263  0.2028 -0.3994
   55MOL     H7 7675   1.752   7.099   4.766  0.3071  0.3814 -0.5655
   55MOL     H8 7676   1.744   7.375   4.698  1.6195 -1.6480 -1.5839
   55MOL     C9 7677   1.764   7.195   4.993 -0.3009  0.7760 -0.2364
   55MOL    C10 7678   1.667   7.095   5.059  0.1596  0.4453 -1.0964
   55MOL    O11 7679   1.748   7.030   5.157  0.5738  0.4144  0.3007
   55MOL    H12 7680   1.851   7.145   4.952  0.7137  2.8014 -0.6321
   55MOL    H13 7681   1.806   7.274   5.055  0.5827  1.5669 -1.8071
   55MOL    H14 7682   1.624   7.020   4.993  0.2839 -0.1595 -0.4956
   55MOL    H15 7683   1.779   6.951   5.115  0.2307  1.3471 -1.7959
   55MOL    C16 7684   1.559   7.173   5.147 -0.3812  0.0675  0.3383
   55MOL    C17 7685   1.446   7.079   5.191 -0.0779  0.2899 -0.6102
   55MOL    O18 7686   1.355   7.154   5.271 -0.1317 -0.0177  0.2489
   55MOL    H19 7687   1.602   7.230   5.230 -1.0288  0.0259  0.7006
   55MOL    H20 7688   1.510   7.245   5.081 -3.0970 -1.9928  0.0304
   55MOL    H21 7689   1.485   7.000   5.256  0.7412 -0.5587 -2.0912
   55MOL    H22 7690   1.369   7.125   5.360 -1.2711  0.0268  0.4447
   55MOL    C23 7691   1.378   7.009   5.071  0.1809 -0.0382  0.8597
   55MOL    C24 7692   1.230   6.970   5.087  0.9539  0.3959  0.8847
   55MOL    O25 7693   1.177   6.925   4.970  0.2012 -0.4290  0.2526
   55MOL    H26 7694   1.377   7.085   4.994 -1.4696  0.1806  1.0774
   55MOL    H27 7695   1.438   6.924   5.037  0.0486 -0.9160  2.7631
   55MOL    H28 7696   1.176   7.061   5.114 -1.2666 -0.6490  0.1559
   55MOL    H29 7697   1.217   6.845   4.938  0.4779  0.6280 -2.1611
   55MOL    C30 7698   1.203   6.867   5.198 -0.2685 -0.2417  0.3300
   55MOL    C31 7699   1.060   6.842   5.238  0.5694 -1.3629 -0.2206
   55MOL    O32 7700   1.039   6.714   5.282 -0.3336  0.4406 -0.8830
   55MOL    H33 7701   1.255   6.771   5.188 -0.0871 -0.1810  0.6705
   55MOL    H34 7702   1.256   6.901   5.286  0.5919  1.6149 -0.8844
   55MOL    H35 7703   0.993   6.853   5.153 -0.2494  0.0050  0.5879
   55MOL    H36 7704   0.961   6.701   5.334 -0.0533 -1.4818 -0.8858
   55MOL    C37 7705   1.016   6.936   5.355  0.9198  0.5146  0.2131
   55MOL    C38 7706   0.860   6.942   5.381  0.4764  0.1037 -0.3471
   55MOL    O39 7707   0.828   6.822   5.443  0.1099 -0.5898 -0.7275
   55MOL    H40 7708   1.073   6.913   5.445 -0.0631  0.6379  0.8754
   55MOL    H41 7709   1.048   7.037   5.329 -1.0750  0.3016 -3.4995
   55MOL    H42 7710   0.815   6.952   5.282  2.5045  1.0645 -1.1885
   55MOL    H43 7711   0.828   6.833   5.537  2.7663 -1.9565 -0.5093
   55MOL    C44 7712   0.821   7.065   5.463 -0.0231 -0.2146 -1.1219
   55MOL    C45 7713   0.669   7.098   5.490  0.6433  0.0308  0.1227
   55MOL    O46 7714   0.678   7.197   5.588 -0.4638  0.1475 -0.2105
   55MOL    H47 7715   0.859   7.049   5.564 -0.7957  0.2736 -0.7523
   55MOL    H48 7716   0.882   7.151   5.436 -1.0429  0.2723 -1.8942
   55MOL    H49 7717   0.605   7.021   5.533 -0.9095  1.0406 -0.3049
   55MOL    H50 7718   0.589   7.214   5.617 -0.9930 -2.5501 -0.0631
   55MOL    C51 7719   0.593   7.171   5.368  0.2519  0.7149 -0.1232
   55MOL    C52 7720   0.502   7.080   5.286 -0.0489 -0.2110 -0.6606
   55MOL    O53 7721   0.406   7.001   5.354 -0.2402  0.3620  0.0951
   55MOL    H54 7722   0.541   7.260   5.402  0.1132 -0.8533  4.0231
   55MOL    H55 7723   0.673   7.205   5.302  1.2078 -0.6893  0.2974
   55MOL    H56 7724   0.566   7.015   5.227  1.6005  0.0327  0.8157
   55MOL    H57 7725   0.453   6.927   5.389  0.2019  0.5964 -0.0003
   55MOL    C58 7726   0.438   7.178   5.185 -1.2472 -0.6636 -0.0519
   55MOL    C59 7727   0.362   7.105   5.074  0.0506  0.4416 -0.8117
   55MOL    O60 7728   0.243   7.052   5.133  0.4144 -0.0788  0.0406
   55MOL    H61 7729   0.371   7.241   5.243 -1.1653 -0.3012 -0.3546
   55MOL    H62 7730   0.501   7.250   5.134 -2.3701  0.7984  0.6041
   55MOL    H63 7731   0.423   7.024   5.034  0.6293  0.2148  0.5184
   55MOL    H64 7732   0.266   7.032   5.223 -2.2123 -2.7131  0.1785
   55MOL    C65 7733   0.334   7.193   4.951 -0.8205  0.6735  0.3095
   55MOL    C66 7734   0.279   7.335   4.973  0.3902  0.3997  0.4804
   55MOL    O67 7735   0.329   7.419   4.860 -0.2564 -0.0287 -0.2866
   55MOL    H68 7736   0.420   7.204   4.886  0.6007  2.6160  2.4269
   55MOL    H69 7737   0.272   7.141   4.878 -1.4008 -1.0914  2.0096
   55MOL    H70 7738   0.323   7.370   5.067  1.1222  0.1673  0.2248
   55MOL    H71 7739   0.296   7.505   4.877  1.7132  0.9441 -1.1861
   55MOL    C72 7740   0.122   7.356   4.981  0.3176  0.3317 -0.4530
   55MOL    C73 7741   0.063   7.452   5.094 -0.3225  0.4368  0.4477
   55MOL    O74 7742   7.449   7.486   5.065  0.1790  0.8297 -0.1900
   55MOL    H75 7743   0.110   7.391   4.878 -0.0197  2.3086  0.2374
   55MOL    H76 7744   0.075   7.259   4.996  1.4984 -0.5713 -2.4982
   55MOL    H77 7745   0.119   0.026   5.096  0.5231 -0.0843  1.1856
   55MOL    H78 7746   7.410   0.010   5.139 -0.7093  0.2329 -0.2881
   55MOL    C79 7747   0.077   7.383   5.230  0.1875  0.9724 -0.0181
   55MOL    C80 7748   0.110   7.485   5.345 -0.0758 -0.4051  0.4912
   55MOL    O81 7749   0.064   7.418   5.458 -0.2159 -0.1253 -0.1104
   55MOL    H82 7750   7.509   7.323   5.254  0.7914 -0.8474 -2.2461
   55MOL    H83 7751   0.160   7.313   5.224 -1.4670 -1.2489  1.9601
   55MOL    H84 7752   0.056   0.061   5.339 -0.0550 -0.5634 -3.2864
   55MOL    H85 7753   0.074   7.326   5.441 -0.4402  0.0870 -1.5287
   55MOL    C86 7754   0.258   7.513   5.373 -0.0270 -0.1305  0.4713
   55MOL    C87 7755   0.300   0.083   5.490 -0.5240 -0.7094  0.1321
   55MOL    O88 7756   0.252   0.024   5.608  0.3281  0.0039  0.0093
   55MOL    H89 7757   0.302   7.413   5.386  0.4066 -0.0749 -0.5104
   55MOL    H90 7758   0.300   0.033   5.281 -0.6969 -1.4211 -0.3942
   55MOL    H91 7759   0.258   0.183   5.473 -0.6399 -0.7970 -0.0853
   55MOL    H92 7760   0.163   7.519   5.586 -0.3493  1.5721  0.9003
   55MOL    C93 7761   0.455   0.093   5.502 -0.0393  0.5861  0.1423
   55MOL    C94 7762   0.531   0.165   5.381  0.1437 -0.3920  0.0899
   55MOL    O95 7763   0.466   0.294   5.366  0.2718  0.0912 -0.4314
   55MOL    H96 7764   0.495   0.130   5.597  1.3528  0.0423 -0.2265
   55MOL    H97 7765   0.481   7.507   5.506  3.5215  1.4298  1.4493
   55MOL    H98 7766   0.510   0.107   5.291 -0.8596 -0.2746  0.2446
   55MOL    H99 7767   0.424   0.316   5.448 -1.3141 -0.6914 -1.0213
   55MOL   C100 7768   0.693   0.194   5.406  0.2537  0.2541 -0.3630
   55MOL   C101 7769   0.779   0.060   5.415  0.7638  0.2751  0.6649
   55MOL   O102 7770   0.916   0.097   5.393 -0.3610  0.1804  0.0553
   55MOL   H103 7771   0.720   0.262   5.325 -0.9752 -0.8025 -1.6890
   55MOL   H104 7772   0.690   0.249   5.501  0.3462  2.4491 -1.5953
   55MOL   H105 7773   0.745   7.514   5.335  1.0605 -0.8724  1.4740
   55MOL   H106 7774   0.924   0.149   5.315  1.0137  1.0969  0.7765
   55MOL   C107 7775   0.760   7.506   5.549  0.8006 -0.5957 -0.1111
   55MOL   C108 7776   0.817   0.065   5.670  0.5711 -0.1924  0.1280
   55MOL   O109 7777   0.713   0.118   5.739 -0.3797 -0.1887  0.7240
   55MOL   H110 7778   0.664   7.460   5.569  0.4585  0.2875  0.3107
   55MOL   H111 7779   0.826   7.421   5.534  0.8583 -0.7938  1.1639
   55MOL   H112 7780   0.880   0.147   5.636 -3.2471  1.7710 -2.6047
   55MOL   H113 7781   0.716   0.212   5.726  0.0247 -0.2386  0.4371
   55MOL   C114 7782   0.919   7.500   5.750  0.6454 -0.0913  0.7225
   55MOL   C115 7783   1.056   7.455   5.681  0.3023 -0.1865 -0.6387
   55MOL   O116 7784   1.139   0.042   5.638  0.2027  0.3185  1.1363
   55MOL   H117 7785   0.946   0.039   5.839  1.0896  0.6647  0.0965
   55MOL   H118 7786   0.866   7.413   5.788  1.0587  0.1933  2.0067
   55MOL   H119 7787   1.039   7.396   5.591 -0.6878  0.3676 -0.8209
   55MOL   H120 7788   1.091   0.098   5.578 -0.9073 -0.6286  1.1138
   55MOL   C121 7789   1.145   7.383   5.783  0.4454 -0.1957  0.2926
   55MOL   C122 7790   1.275   7.322   5.726  0.0708 -0.4739  0.8171
   55MOL   O123 7791   1.355   7.300   5.839 -0.0134  0.2615 -0.5803
   55MOL   H124 7792   1.177   7.461   5.852 -0.1916  1.8100 -1.6457
   55MOL   H125 7793   1.090   7.310   5.843  1.6221 -2.5283 -1.3887
   55MOL   H126 7794   1.319   7.397   5.661  1.1689 -1.2360  0.6693
   55MOL   H127 7795   1.314   7.228   5.884 -0.9666  1.7303  0.9438
   55MOL   C128 7796   1.269   7.202   5.630  0.0814 -0.2604  1.0761
   55MOL   C129 7797   1.404   7.133   5.597  0.3197  0.2162  0.2169
   55MOL   O130 7798   1.382   7.024   5.508 -0.6787 -0.5820  0.1679
   55MOL   H131 7799   1.194   7.127   5.655  0.4288 -0.0612  2.7756
   55MOL   H132 7800   1.227   7.248   5.540  0.5170 -1.3671  0.2927
   55MOL   H133 7801   1.448   7.088   5.685 -1.3900 -2.4509 -0.2293
   55MOL   H134 7802   1.413   6.947   5.552  1.0246  1.2146  2.2617
   55MOL   C135 7803   1.508   7.234   5.537 -0.8303 -0.5976  0.1522
   55MOL   C136 7804   1.654   7.177   5.510 -0.0526  0.4868  0.0370
   55MOL   O137 7805   1.713   7.141   5.630 -0.0018 -0.2087  0.5991
   55MOL   H138 7806   1.471   7.288   5.450 -2.1811  1.9899  2.2541
   55MOL   H139 7807   1.522   7.315   5.609 -0.4464 -0.6435  0.1354
   55MOL   H140 7808   1.719   7.255   5.470  0.6867 -0.3449 -0.4127
   55MOL   H141 7809   1.788   7.092   5.600  0.9938  1.5255  0.1512
   55MOL   H142 7810   1.645   7.092   5.443 -0.4204  0.5249  0.0361
   56MOL     C1 7811   5.951   6.856   7.186  0.5762  0.7384 -0.6916
   56MOL     C2 7812   5.901   6.847   7.334  0.5696  0.4487  0.7570
   56MOL     O3 7813   5.989   6.915   7.411  0.8013 -0.1300  0.2494
   56MOL     H4 7814   5.945   6.962   7.159 -0.4878  1.0980  0.8658
   56MOL     H5 7815   5.883   6.798   7.123  0.7508 -0.8541  0.5631
   56MOL     H6 7816   5.918   6.742   7.359  0.3236 -0.0724 -1.2125
   56MOL     H7 7817   6.057   6.857   7.441  1.1504  0.2581  0.1940
   56MOL     H8 7818   6.058   6.839   7.179  0.2673 -0.8512 -1.5600
   56MOL     C9 7819   5.763   6.905   7.360 -0.6666  0.0664 -0.0869
   56MOL    C10 7820   5.721   6.868   7.504  1.5388 -0.3523  0.5850
   56MOL    O11 7821   5.809   6.918   0.088  0.0515 -0.1121 -0.5012
   56MOL    H12 7822   5.765   7.009   7.325 -0.8860  0.1487  0.1399
   56MOL    H13 7823   5.691   6.860   7.293 -1.2161  0.6962  0.0776
   56MOL    H14 7824   5.726   6.759   7.516  1.9385 -0.1364  2.7037
   56MOL    H15 7825   5.892   6.928   0.045  0.2345 -1.0878 -0.3870
   56MOL    C16 7826   5.578   6.907   0.019 -0.2164 -0.0636  0.1198
   56MOL    C17 7827   5.471   6.800   7.506 -0.4832 -0.4139 -0.0011
   56MOL    O18 7828   5.498   6.678   0.060  1.0145  0.9836  0.3897
   56MOL    H19 7829   5.565   6.948   0.119  1.9250 -1.5064  1.0494
   56MOL    H20 7830   5.565   6.994   7.474 -1.9835  0.3732  1.0489
   56MOL    H21 7831   5.477   6.787   7.398  1.1846  0.3803 -0.0235
   56MOL    H22 7832   5.585   6.688   0.095  1.2481  1.1182 -0.2063
   56MOL    C23 7833   5.330   6.853   0.023  0.5320  0.1896  0.4982
   56MOL    C24 7834   5.214   6.756   7.514 -0.2740  0.5807 -0.2710
   56MOL    O25 7835   5.233   6.645   0.088  0.4583 -0.4107 -0.4177
   56MOL    H26 7836   5.333   6.865   0.131  2.1305 -2.2127  0.7544
   56MOL    H27 7837   5.290   6.946   7.503 -1.1924 -1.0937 -0.8754
   56MOL    H28 7838   5.221   6.728   7.409  0.6498  0.9006 -0.3015
   56MOL    H29 7839   5.327   6.637   0.093  0.5733  0.7282 -0.5001
   56MOL    C30 7840   5.076   6.829   0.030  0.3112  0.3343 -0.3119
   56MOL    C31 7841   4.945   6.746   0.030 -0.3675 -0.3252 -0.2294
   56MOL    O32 7842   4.832   6.826   0.068 -0.1554 -0.3129 -0.3887
   56MOL    H33 7843   5.085   6.845   0.138  1.0860 -1.1932 -0.1264
   56MOL    H34 7844   5.073   6.922   7.494  0.3984  1.1323  1.0043
   56MOL    H35 7845   4.950   6.669   0.108 -1.0561 -0.1994 -0.0537
   56MOL    H36 7846   4.819   6.892   0.001  0.9202  0.5626  0.2522
   56MOL    C37 7847   4.916   6.676   7.414  1.1258 -0.8333  0.0359
   56MOL    C38 7848   4.817   6.555   7.414  0.0158  0.3378  0.4885
   56MOL    O39 7849   4.781   6.537   7.278  0.8922 -0.2499 -0.4643
   56MOL    H40 7850   4.900   6.754   7.339  1.4273 -0.4324  0.3873
   56MOL    H41 7851   5.010   6.629   7.386  0.3257 -2.0328 -0.7060
   56MOL    H42 7852   4.728   6.589   7.467 -0.6314 -1.1649  0.3951
   56MOL    H43 7853   4.723   6.463   7.272 -0.8361  0.8784  1.6223
   56MOL    C44 7854   4.872   6.422   7.466 -0.1180 -0.2191 -0.4053
   56MOL    C45 7855   4.860   6.398   0.099  0.3240  0.2940  0.2467
   56MOL    O46 7856   4.722   6.401   0.145 -0.3188  0.0122  0.4352
   56MOL    H47 7857   4.812   6.341   7.424 -1.6063 -0.0415  1.3264
   56MOL    H48 7858   4.973   6.403   7.429  0.7716  3.0866  0.1351
   56MOL    H49 7859   4.918   6.477   0.146  2.3650 -1.0387  0.0124
   56MOL    H50 7860   4.728   6.410   0.239 -1.0915  1.2039  0.3867
   56MOL    C51 7861   4.931   6.268   0.154 -0.6645  0.2221  0.1453
   56MOL    C52 7862   5.085   6.265   0.148  0.6897 -1.0727 -0.1400
   56MOL    O53 7863   5.135   6.303   0.273  0.5740 -0.7825 -0.9109
   56MOL    H54 7864   4.891   6.244   0.252  1.5769  1.9940  1.5379
   56MOL    H55 7865   4.894   6.187   0.091 -1.2142 -0.0839  0.8615
   56MOL    H56 7866   5.129   6.336   0.078  1.8098 -0.6184  1.0122
   56MOL    H57 7867   5.127   6.397   0.280 -0.8122 -0.9052 -0.7630
   56MOL    C58 7868   5.152   6.136   0.107 -0.1171 -0.2799 -0.3214
   56MOL    C59 7869   5.305   6.141   0.082  0.4080 -0.5111  0.9206
   56MOL    O60 7870   5.370   6.149   0.202 -0.0892  0.5277 -0.5935
   56MOL    H61 7871   5.115   6.061   0.178  3.0482 -0.4406  1.2449
   56MOL    H62 7872   5.110   6.100   0.013  0.4097  0.1700 -0.7276
   56MOL    H63 7873   5.342   6.226   0.024  0.1496  1.1032  3.0585
   56MOL    H64 7874   5.303   6.183   0.259 -0.3621 -0.5181 -0.2689
   56MOL    C65 7875   5.355   6.012   0.024 -0.7594  0.4104 -0.3195
   56MOL    C66 7876   5.319   5.976   7.399 -0.2959 -0.6321  0.0692
   56MOL    O67 7877   5.378   6.067   7.309 -0.0692 -0.0659  0.1867
   56MOL    H68 7878   5.464   6.020   0.030 -0.8247  0.7846  0.3943
   56MOL    H69 7879   5.338   5.927   0.090 -0.3065  1.5169  1.2478
   56MOL    H70 7880   5.211   5.976   7.379 -0.7714 -2.3471  2.4520
   56MOL    H71 7881   5.311   6.127   7.281 -1.3670 -1.7126 -0.3082
   56MOL    C72 7882   5.363   5.833   7.353 -0.4338 -0.1094  0.0288
   56MOL    C73 7883   5.335   5.791   7.209 -0.2063 -0.2059  0.4110
   56MOL    O74 7884   5.410   5.672   7.188  0.8392 -0.2901 -0.3010
   56MOL    H75 7885   5.471   5.844   7.364 -0.5207  0.0764  0.7303
   56MOL    H76 7886   5.339   5.761   7.430  1.8836  0.3572  1.2246
   56MOL    H77 7887   5.366   5.868   7.137  0.2875 -0.2771  0.5429
   56MOL    H78 7888   5.412   5.622   7.268 -1.0958  0.0577 -0.0135
   56MOL    C79 7889   5.190   5.759   7.172 -0.1048 -0.2341  0.3006
   56MOL    C80 7890   5.160   5.715   7.019 -0.1725 -0.2791 -0.2228
   56MOL    O81 7891   5.025   5.680   7.006 -0.3979 -0.1509 -0.0814
   56MOL    H82 7892   5.165   5.683   7.245 -0.6437 -0.7662 -0.4326
   56MOL    H83 7893   5.124   5.835   7.214 -1.7049 -2.0064  1.0515
   56MOL    H84 7894   5.220   5.626   6.999 -4.3289 -2.7430 -2.2455
   56MOL    H85 7895   5.018   5.589   7.030 -2.9620 -0.5328 -2.0761
   56MOL    C86 7896   5.186   5.812   6.907 -0.2776  0.2230  0.2003
   56MOL    C87 7897   5.261   5.749   6.787  0.0962  0.2388 -0.4279
   56MOL    O88 7898   5.386   5.702   6.824 -0.3686 -0.3560 -0.0802
   56MOL    H89 7899   5.103   5.878   6.880  2.1543  3.0071 -0.7479
   56MOL    H90 7900   5.248   5.890   6.952  0.7938 -1.8334  2.3843
   56MOL    H91 7901   5.276   5.828   6.714 -1.2530  0.9952  0.1064
   56MOL    H92 7902   5.405   5.730   6.913 -0.4288  1.3591 -0.5830
   56MOL    C93 7903   5.182   5.649   6.700 -0.6130 -0.1384  0.3072
   56MOL    C94 7904   5.109   5.701   6.572 -0.4575  0.4221 -0.5654
   56MOL    O95 7905   5.084   5.582   6.498  0.6340  0.1881 -0.4827
   56MOL    H96 7906   5.255   5.575   6.668 -0.9161  0.4447 -1.8478
   56MOL    H97 7907   5.111   5.594   6.761  0.8195  0.0463  2.1651
   56MOL    H98 7908   5.176   5.771   6.521 -0.6435  0.9858 -0.0399
   56MOL    H99 7909   5.163   5.555   6.453  0.5814  3.1763 -2.5442
   56MOL   C100 7910   4.975   5.780   6.591  0.0645 -1.0818 -0.4433
   56MOL   C101 7911   4.943   5.873   6.476  0.2536  0.8244 -0.2275
   56MOL   O102 7912   4.813   5.940   6.499  0.3759 -0.2933  0.1312
   56MOL   H103 7913   4.885   5.726   6.618 -0.7050  0.4470  0.1333
   56MOL   H104 7914   4.994   5.851   6.672  2.2520 -0.8215 -1.1600
   56MOL   H105 7915   4.913   5.806   6.395 -1.8826  3.8826 -2.1015
   56MOL   H106 7916   4.745   5.880   6.522  0.6136 -0.1373  1.3011
   56MOL   C107 7917   5.043   5.980   6.423  0.2178  0.4097  0.1291
   56MOL   C108 7918   5.106   6.074   6.539  0.2663 -0.1429  0.4524
   56MOL   O109 7919   5.206   6.152   6.476  0.0370  0.7497 -0.1399
   56MOL   H110 7920   5.130   5.938   6.372 -0.5142  0.2375 -0.9787
   56MOL   H111 7921   5.012   6.052   6.348  2.7093  0.7986 -0.5867
   56MOL   H112 7922   5.148   6.005   6.613 -1.2481 -1.7091 -0.1209
   56MOL   H113 7923   5.286   6.112   6.508 -0.8938 -1.0528  0.0175
   56MOL   C114 7924   5.005   6.159   6.612  0.3290  0.4898  0.2989
   56MOL   C115 7925   5.065   6.254   6.719 -0.0222  0.3422 -0.4555
   56MOL   O116 7926   5.133   6.359   6.667 -0.3694  0.1557  0.0390
   56MOL   H117 7927   4.949   6.216   6.539 -1.7225  0.6115  1.9093
   56MOL   H118 7928   4.936   6.090   6.662 -0.2555  0.4214 -0.5968
   56MOL   H119 7929   5.120   6.194   6.793  2.2865 -1.4350 -3.5074
   56MOL   H120 7930   5.192   6.335   6.597  1.0424 -0.3032  1.3578
   56MOL   C121 7931   4.956   6.306   6.810 -0.0738  0.5320  0.7951
   56MOL   C122 7932   5.013   6.362   6.937 -0.3376  0.2966  0.0012
   56MOL   O123 7933   4.897   6.436   6.988 -0.1913  0.5686  0.2197
   56MOL   H124 7934   4.905   6.384   6.753 -1.8829 -0.0888  1.5140
   56MOL   H125 7935   4.884   6.229   6.838  0.7656 -0.8700 -0.8298
   56MOL   H126 7936   5.089   6.436   6.915  1.0466 -1.4252 -1.1872
   56MOL   H127 7937   4.909   6.446   7.081  0.4701  1.4452  0.0570
   56MOL   C128 7938   5.050   6.259   7.047 -0.0729 -0.6747  0.0967
   56MOL   C129 7939   5.080   6.303   7.188  0.5403 -0.4155  0.5758
   56MOL   O130 7940   5.132   6.200   7.268 -0.3146  0.4991  0.0551
   56MOL   H131 7941   4.983   6.174   7.058 -0.4370 -0.2685  1.0456
   56MOL   H132 7942   5.140   6.208   7.012  0.0609  0.8155 -1.8242
   56MOL   H133 7943   4.976   6.310   7.220 -0.3082  0.5216 -2.2203
   56MOL   H134 7944   5.061   6.138   7.263  0.1600 -0.0962  0.5898
   56MOL   C135 7945   5.155   6.437   7.204  0.4201  0.4117  0.3157
   56MOL   C136 7946   5.290   6.429   7.136 -0.1686  0.1802 -0.2746
   56MOL   O137 7947   5.358   6.559   7.142 -0.2609 -0.2175  0.2782
   56MOL   H138 7948   5.101   6.522   7.162  0.9405 -0.6110 -2.5651
   56MOL   H139 7949   5.172   6.453   7.310  1.8591 -0.3316  0.2116
   56MOL   H140 7950   5.272   6.412   7.030 -1.6475 -1.6451  0.2260
   56MOL   H141 7951   5.423   6.545   7.076 -1.8228 -0.5223 -1.2324
   56MOL   H142 7952   5.349   6.346   7.176 -2.1598 -1.5775 -0.8981
   57MOL     C1 7953   3.144   5.653   5.868  0.5593 -0.3508 -0.2508
   57MOL     C2 7954   3.252   5.647   5.977 -0.4826  0.8184  0.0270
   57MOL     O3 7955   3.192   5.593   6.092 -0.3280  0.5838 -0.1635
   57MOL     H4 7956   3.174   5.713   5.782  0.1929  0.8431  0.4430
   57MOL     H5 7957   3.060   5.710   5.909 -2.7775 -3.9735 -1.7915
   57MOL     H6 7958   3.304   5.738   6.007  1.3129  0.0926 -0.8003
   57MOL     H7 7959   3.163   5.505   6.075  1.7199 -0.4822  1.5386
   57MOL     H8 7960   3.099   5.561   5.832 -3.3464  1.3403  0.0287
   57MOL     C9 7961   3.373   5.567   5.935  0.4433 -0.1349 -0.0240
   57MOL    C10 7962   3.460   5.642   5.833  0.1801  0.1285 -0.1803
   57MOL    O11 7963   3.586   5.595   5.845 -0.3963 -0.5386  0.2410
   57MOL    H12 7964   3.437   5.535   6.017  1.8059 -1.1591 -1.4548
   57MOL    H13 7965   3.345   5.470   5.895 -0.6546  0.2826 -0.2943
   57MOL    H14 7966   3.475   5.749   5.844 -0.0541  0.2171 -0.7151
   57MOL    H15 7967   3.635   5.652   5.902 -0.5512  1.1285 -1.2717
   57MOL    C16 7968   3.412   5.604   5.692 -0.4996  0.7448  0.0095
   57MOL    C17 7969   3.436   5.703   5.572 -0.1662  0.1027 -0.0153
   57MOL    O18 7970   3.352   5.814   5.594  0.5254 -0.6279 -0.0788
   57MOL    H19 7971   3.456   5.508   5.665 -0.4390  0.5145  0.9131
   57MOL    H20 7972   3.311   5.564   5.679 -0.2728  1.0182 -2.9279
   57MOL    H21 7973   3.393   5.638   5.496 -1.8162 -0.3509  1.2453
   57MOL    H22 7974   3.262   5.783   5.592  0.2446  0.0031  1.5015
   57MOL    C23 7975   3.575   5.750   5.541 -0.7082 -0.0541 -0.2062
   57MOL    C24 7976   3.669   5.635   5.509 -0.1892 -0.3755  0.2540
   57MOL    O25 7977   3.650   5.562   5.383  0.2624 -0.0932 -0.0251
   57MOL    H26 7978   3.571   5.818   5.456  0.2545 -1.3751 -1.3385
   57MOL    H27 7979   3.612   5.804   5.628  1.7733 -2.2933  0.1903
   57MOL    H28 7980   3.648   5.555   5.580 -1.5546 -1.5683 -1.4390
   57MOL    H29 7981   3.724   5.502   5.383  0.4456  0.1020  1.6099
   57MOL    C30 7982   3.819   5.683   5.510 -0.0296  0.4201 -0.4108
   57MOL    C31 7983   3.911   5.574   5.575 -0.4100 -0.6258 -0.3017
   57MOL    O32 7984   3.950   5.480   5.480  0.3781 -0.2092  0.2781
   57MOL    H33 7985   3.850   5.727   5.415  0.9584 -0.5205 -0.5338
   57MOL    H34 7986   3.830   5.777   5.564  0.7142  0.4805 -0.6647
   57MOL    H35 7987   3.859   5.520   5.653 -1.0087 -0.1867 -0.3912
   57MOL    H36 7988   3.992   5.413   5.532  1.4171 -1.2773 -1.8511
   57MOL    C37 7989   4.043   5.626   5.651  0.1775  0.0416 -0.6307
   57MOL    C38 7990   4.006   5.723   5.771 -0.3309  0.5647  0.0120
   57MOL    O39 7991   3.931   5.635   5.853  0.2471 -0.0629 -0.1408
   57MOL    H40 7992   4.106   5.546   5.691 -0.6873  1.0068  2.8324
   57MOL    H41 7993   4.098   5.682   5.576 -1.5540  1.8554 -0.5745
   57MOL    H42 7994   3.942   5.809   5.753 -1.2306 -0.5185 -2.1841
   57MOL    H43 7995   3.866   5.681   5.904  0.1964 -0.3259  0.0326
   57MOL    C44 7996   4.140   5.778   5.847 -0.5050  0.3417 -0.9584
   57MOL    C45 7997   4.136   5.899   5.938  0.5716 -0.9631  0.7728
   57MOL    O46 7998   4.068   5.859   6.051 -0.2762  0.0566 -0.5223
   57MOL    H47 7999   4.184   5.692   5.897 -0.2806  1.5493  0.9851
   57MOL    H48 8000   4.209   5.811   5.770  0.2557 -0.0826 -0.4601
   57MOL    H49 8001   4.076   5.980   5.897  2.0854  1.0945  2.4938
   57MOL    H50 8002   3.981   5.830   6.026 -1.4751  0.2415  3.0440
   57MOL    C51 8003   4.273   5.952   5.983  0.4229  0.1908  0.2392
   57MOL    C52 8004   4.340   6.067   5.904  0.0932  0.1337 -0.8679
   57MOL    O53 8005   4.372   6.028   5.769  0.1572  0.3914  0.0858
   57MOL    H54 8006   4.257   5.992   6.084 -0.6694  1.4588 -0.4232
   57MOL    H55 8007   4.339   5.866   5.997  1.2078  0.3901 -2.0435
   57MOL    H56 8008   4.432   6.095   5.955 -0.3341 -1.9457  1.1352
   57MOL    H57 8009   4.440   5.964   5.783  0.4219  0.9330  1.3472
   57MOL    C58 8010   4.251   6.194   5.913  0.2232  0.6165  0.3479
   57MOL    C59 8011   4.310   6.326   5.874 -0.4742 -0.5296 -0.1278
   57MOL    O60 8012   4.205   6.419   5.850  0.4165  0.0535 -0.0960
   57MOL    H61 8013   4.155   6.179   5.863  0.1455  1.8299  0.1174
   57MOL    H62 8014   4.223   6.203   6.018  0.3177  0.3021  0.3981
   57MOL    H63 8015   4.361   6.317   5.778 -1.1342  1.1146 -0.6516
   57MOL    H64 8016   4.245   6.503   5.831 -1.5423  0.6830 -1.6076
   57MOL    C65 8017   4.410   6.394   5.968 -0.4973 -0.4860  0.3247
   57MOL    C66 8018   4.486   6.513   5.919  0.0223  0.3480  0.5907
   57MOL    O67 8019   4.401   6.621   5.901  0.9970 -0.8218 -0.2444
   57MOL    H68 8020   4.360   6.432   6.057 -0.2614 -1.6517  0.9723
   57MOL    H69 8021   4.489   6.327   6.001 -0.2392 -0.8141 -0.9144
   57MOL    H70 8022   4.538   6.492   5.825 -2.6043 -2.8273 -0.2464
   57MOL    H71 8023   4.450   6.700   5.883  1.1399 -1.3563 -2.3446
   57MOL    C72 8024   4.605   6.559   5.996  0.3544  0.0971 -0.4739
   57MOL    C73 8025   4.701   6.658   5.928  0.4087  0.2156 -0.0123
   57MOL    O74 8026   4.638   6.768   5.871  0.2798  0.0969  0.1496
   57MOL    H75 8027   4.565   6.606   6.087 -0.9806  0.5117 -1.2568
   57MOL    H76 8028   4.663   6.475   6.033  0.5624  1.1429  1.6615
   57MOL    H77 8029   4.745   6.603   5.845  0.4427  1.3664 -0.7547
   57MOL    H78 8030   4.711   6.825   5.854  0.3658 -0.9322 -3.2156
   57MOL    C79 8031   4.806   6.690   6.035  0.6464  0.1704 -0.3372
   57MOL    C80 8032   4.927   6.769   5.975 -0.0867 -0.1870 -0.2132
   57MOL    O81 8033   4.888   6.900   5.928  0.4385  0.1263  0.4196
   57MOL    H82 8034   4.763   6.742   6.120  0.9974  1.2230 -0.7871
   57MOL    H83 8035   4.835   6.593   6.074 -0.2954  1.1408  2.8607
   57MOL    H84 8036   4.969   6.704   5.898  1.0447  1.4151 -0.9678
   57MOL    H85 8037   4.897   6.969   5.992 -1.6897  0.3618  0.5018
   57MOL    C86 8038   5.045   6.794   6.061  0.1104 -0.2893 -0.0860
   57MOL    C87 8039   5.117   6.666   6.105  0.9865  0.1863 -0.8998
   57MOL    O88 8040   5.234   6.658   6.022 -0.2201 -0.1255 -0.1548
   57MOL    H89 8041   5.118   6.862   6.016  0.6565  1.2427  3.0004
   57MOL    H90 8042   5.007   6.839   6.153  0.9095  1.3941 -0.5488
   57MOL    H91 8043   5.059   6.579   6.074 -0.5453  0.2457  1.6044
   57MOL    H92 8044   5.270   6.745   6.026 -0.4794 -0.0559  0.8526
   57MOL    C93 8045   5.155   6.658   6.249  0.3156 -0.1937 -0.2406
   57MOL    C94 8046   5.039   6.629   6.352 -0.7813 -0.0005 -0.0011
   57MOL    O95 8047   4.966   6.511   6.322  0.5764  0.2836  0.4083
   57MOL    H96 8048   5.227   6.578   6.262  0.7401  0.3778  1.0525
   57MOL    H97 8049   5.208   6.748   6.280  0.3303  0.3354 -1.7471
   57MOL    H98 8050   4.978   6.719   6.355  0.8487  1.1328 -0.6136
   57MOL    H99 8051   5.011   6.428   6.333  0.9879  0.3789 -0.5469
   57MOL   C100 8052   5.078   6.614   6.505  0.2385  0.0245  0.3529
   57MOL   C101 8053   5.137   6.739   6.569 -0.1897  0.4823  0.1809
   57MOL   O102 8054   5.035   6.816   6.623 -0.1545  0.2300 -0.1177
   57MOL   H103 8055   4.996   6.579   6.568 -0.5973  1.2246 -0.0411
   57MOL   H104 8056   5.166   6.551   6.509 -0.0039 -0.2656  1.2457
   57MOL   H105 8057   5.186   6.802   6.495 -1.8171  1.3995 -0.1364
   57MOL   H106 8058   5.000   6.780   6.703 -0.1366  2.8930  1.1497
   57MOL   C107 8059   5.228   6.713   6.691  0.3566 -0.3182  0.2417
   57MOL   C108 8060   5.363   6.637   6.666 -0.6964 -0.0890  0.7358
   57MOL   O109 8061   5.449   6.721   6.592  0.5279  0.6272  0.0188
   57MOL   H110 8062   5.253   6.809   6.738 -1.5033  1.2700 -1.9219
   57MOL   H111 8063   5.162   6.663   6.762 -1.3482 -0.2443 -1.2535
   57MOL   H112 8064   5.343   6.553   6.599  1.4124 -0.5688  0.6621
   57MOL   H113 8065   5.497   6.669   6.529  0.8405 -0.5329  1.1789
   57MOL   C114 8066   5.425   6.592   6.798 -0.2056  0.3222  0.1318
   57MOL   C115 8067   5.564   6.527   6.792  1.1840  0.4691  0.6500
   57MOL   O116 8068   5.590   6.510   6.931  0.0298 -0.2556 -0.1446
   57MOL   H117 8069   5.435   6.683   6.856  1.9719 -1.0386  1.9618
   57MOL   H118 8070   5.347   6.531   6.843 -0.4328  1.3164  1.1130
   57MOL   H119 8071   5.633   6.596   6.743  2.0927 -0.0917  1.1175
   57MOL   H120 8072   5.682   6.525   6.949 -0.4896  1.0720  1.4800
   57MOL   C121 8073   5.547   6.381   6.732 -0.1259 -0.4186 -0.5180
   57MOL   C122 8074   5.611   6.372   6.594  0.7378  0.6554  0.2293
   57MOL   O123 8075   5.540   6.427   6.490 -0.2129  0.3115 -0.4506
   57MOL   H124 8076   5.604   6.323   6.804 -3.1645 -1.3831  1.1881
   57MOL   H125 8077   5.443   6.349   6.733 -0.4307  0.5832  1.6472
   57MOL   H126 8078   5.622   6.267   6.570  2.9415  1.1209 -0.9081
   57MOL   H127 8079   5.547   6.360   6.423 -0.1718  0.2459 -0.3799
   57MOL   C128 8080   5.753   6.426   6.567 -1.0304  0.3076  0.7937
   57MOL   C129 8081   5.833   6.350   6.462 -0.6200 -0.3768 -0.3350
   57MOL   O130 8082   5.949   6.429   6.449 -1.0295  0.8054  0.2382
   57MOL   H131 8083   5.752   6.532   6.540  2.2671  0.2493  0.2908
   57MOL   H132 8084   5.812   6.431   6.659  0.1506  0.9065  0.0046
   57MOL   H133 8085   5.795   6.357   6.360 -2.6828 -1.5673  0.3051
   57MOL   H134 8086   5.999   6.415   6.528 -0.4756  0.1538 -0.2249
   57MOL   C135 8087   5.882   6.208   6.487  0.0718  0.3746 -0.2521
   57MOL   C136 8088   5.952   6.141   6.373 -0.0588 -0.4419 -0.0190
   57MOL   O137 8089   5.978   6.008   6.399 -0.1105  0.4398 -0.1827
   57MOL   H138 8090   5.931   6.186   6.582 -0.0208  0.4714 -0.1820
   57MOL   H139 8091   5.794   6.147   6.506 -0.3850  0.4935 -1.9612
   57MOL   H140 8092   6.049   6.185   6.351 -1.0163  2.0111  0.4434
   57MOL   H141 8093   6.003   5.971   6.316  1.7673  0.9244  0.1497
   57MOL   H142 8094   5.880   6.157   6.293 -1.4771 -1.3584  1.0287
   58MOL     C1 8095   2.388   2.735   6.520  0.1808 -0.3470 -0.2624
   58MOL     C2 8096   2.524   2.667   6.534  0.7810  0.0647  0.7921
   58MOL     O3 8097   2.550   2.607   6.405 -0.1075  0.3380  0.4218
   58MOL     H4 8098   2.341   2.763   6.614  0.5690 -0.6434  0.0168
   58MOL     H5 8099   2.304   2.678   6.478 -1.1306  0.6625  0.9380
   58MOL     H6 8100   2.519   2.578   6.597 -0.8743  0.4849  1.2936
   58MOL     H7 8101   2.545   2.514   6.422 -3.0264  0.5971  1.1907
   58MOL     H8 8102   2.397   2.832   6.470  0.0496  0.3364  1.0335
   58MOL     C9 8103   2.635   2.760   6.597 -0.2713 -0.1723  0.3561
   58MOL    C10 8104   2.786   2.703   6.590  0.6098 -0.7763  0.1099
   58MOL    O11 8105   2.873   2.780   6.673  0.1579 -0.0903  0.4685
   58MOL    H12 8106   2.631   2.849   6.535 -1.1332 -0.9926 -0.8006
   58MOL    H13 8107   2.596   2.799   6.691  1.1064 -0.6636  1.1505
   58MOL    H14 8108   2.833   2.696   6.492 -1.8602  0.5757 -1.2253
   58MOL    H15 8109   2.949   2.724   6.681  0.3243  0.2010  0.9530
   58MOL    C16 8110   2.793   2.562   6.648 -0.2094  0.8071 -0.4401
   58MOL    C17 8111   2.941   2.501   6.653 -0.6301  0.8690 -0.0850
   58MOL    O18 8112   3.001   2.566   6.761 -0.1860  0.3148 -0.2025
   58MOL    H19 8113   2.755   2.578   6.749  1.2483  2.1757 -0.0826
   58MOL    H20 8114   2.733   2.491   6.591  2.3615 -2.5280  0.7814
   58MOL    H21 8115   2.983   2.525   6.555 -2.5059  0.5554 -0.9837
   58MOL    H22 8116   2.949   2.544   6.837  1.3738  0.1394  0.8290
   58MOL    C23 8117   2.935   2.349   6.659 -0.6153  0.7060 -0.3688
   58MOL    C24 8118   2.920   2.273   6.532 -0.0098 -1.0689 -0.3387
   58MOL    O25 8119   3.040   2.278   6.453 -0.6058 -0.1240 -0.5423
   58MOL    H26 8120   3.016   2.309   6.720 -1.4591 -0.5360 -0.0346
   58MOL    H27 8121   2.845   2.344   6.720 -2.4379  0.7708 -2.9516
   58MOL    H28 8122   2.835   2.321   6.484 -0.0232  0.4809  1.2027
   58MOL    H29 8123   3.029   2.344   6.386 -0.3638  0.7533  0.2732
   58MOL    C30 8124   2.890   2.128   6.562 -0.4495  0.1353 -0.1625
   58MOL    C31 8125   2.741   2.100   6.594  0.4675  0.1251 -0.2005
   58MOL    O32 8126   2.673   2.098   6.476  0.5509 -0.0477 -0.8626
   58MOL    H33 8127   2.920   2.067   6.477  2.0637  2.9669 -1.3723
   58MOL    H34 8128   2.951   2.093   6.645 -0.5570  0.0710 -0.1102
   58MOL    H35 8129   2.691   2.173   6.656 -1.1794 -0.2993 -1.0126
   58MOL    H36 8130   2.715   2.034   6.421  0.3085 -1.5950  0.7127
   58MOL    C37 8131   2.722   1.962   6.669  0.6277 -0.6533  0.0889
   58MOL    C38 8132   2.578   1.913   6.697  0.0241 -0.4107 -0.5150
   58MOL    O39 8133   2.596   1.787   6.765  0.1181  0.2500  0.2829
   58MOL    H40 8134   2.774   1.874   6.631 -1.0128 -1.6633  0.1571
   58MOL    H41 8135   2.767   1.989   6.764  1.2709 -0.5994 -0.2255
   58MOL    H42 8136   2.545   1.881   6.599 -1.4173  0.6640 -0.3907
   58MOL    H43 8137   2.510   1.752   6.783  0.5977 -1.3406 -0.4090
   58MOL    C44 8138   2.476   2.011   6.760  0.4862  0.0211  0.3815
   58MOL    C45 8139   2.338   1.953   6.794 -0.1028  0.0202  0.6137
   58MOL    O46 8140   2.369   1.861   6.900 -0.0225 -0.0197  0.3540
   58MOL    H47 8141   2.522   2.047   6.852  0.6046  0.6232  0.0852
   58MOL    H48 8142   2.475   2.090   6.685 -1.6522 -0.8362 -0.5569
   58MOL    H49 8143   2.302   1.893   6.711  0.6762  2.0940 -1.2630
   58MOL    H50 8144   2.340   1.776   6.870  0.9946 -0.6964  1.2426
   58MOL    C51 8145   2.236   2.063   6.825 -0.2013  1.0020 -0.3552
   58MOL    C52 8146   2.086   2.019   6.824  0.2474  0.8508 -0.4281
   58MOL    O53 8147   2.050   1.974   6.695  0.6545  0.0570  0.1705
   58MOL    H54 8148   2.260   2.124   6.912  0.7447 -0.9730  0.7872
   58MOL    H55 8149   2.249   2.127   6.737  0.0007  1.1850 -0.1914
   58MOL    H56 8150   2.029   2.110   6.843 -0.4625  0.3762 -0.2613
   58MOL    H57 8151   2.091   2.040   6.642  1.6413 -1.4800 -1.0155
   58MOL    C58 8152   2.051   1.919   6.938  0.1722 -1.4799 -0.7179
   58MOL    C59 8153   2.046   1.985   7.077 -0.0964 -0.5561  0.7121
   58MOL    O60 8154   1.926   2.061   7.101 -0.2549 -0.0879  0.0671
   58MOL    H61 8155   1.951   1.884   6.915 -1.0569  1.0134  0.7016
   58MOL    H62 8156   2.125   1.839   6.928  0.0499 -1.6849 -0.0121
   58MOL    H63 8157   2.125   2.059   7.085 -0.1233 -0.5381  0.8144
   58MOL    H64 8158   1.936   2.119   7.176  1.2159  0.2185 -0.3477
   58MOL    C65 8159   2.071   1.891   7.195 -0.1913  0.2970  0.2994
   58MOL    C66 8160   2.210   1.824   7.199 -0.4337 -0.3694  0.1157
   58MOL    O67 8161   2.322   1.897   7.156 -0.8613 -0.6176 -0.2779
   58MOL    H68 8162   2.046   1.930   7.294 -1.6608  1.2291 -0.4134
   58MOL    H69 8163   1.999   1.810   7.191 -1.6322  1.5490  0.2229
   58MOL    H70 8164   2.215   1.736   7.134 -1.0464  1.6280 -2.7564
   58MOL    H71 8165   2.353   1.874   7.070 -1.4945 -0.1977 -0.6162
   58MOL    C72 8166   2.253   1.778   7.344 -0.0811 -0.0845  0.4034
   58MOL    C73 8167   2.158   1.677   7.409 -0.2417  0.4583  0.9314
   58MOL    O74 8168   2.151   1.556   7.334 -0.3147  0.5785  0.1057
   58MOL    H75 8169   2.353   1.736   7.353  1.2171  2.4286 -1.7127
   58MOL    H76 8170   2.254   1.872   7.399  0.5437  0.2845 -0.2309
   58MOL    H77 8171   2.056   1.713   7.395 -0.1066  0.1562 -1.0343
   58MOL    H78 8172   2.082   1.501   7.369 -1.9594  2.3332 -0.3029
   58MOL    C79 8173   2.193   1.654   0.040  0.3684  0.1810  0.5150
   58MOL    C80 8174   2.100   1.562   0.117  0.4458 -0.3473  0.3183
   58MOL    O81 8175   2.173   1.500   0.221 -0.0556 -0.0445  0.1996
   58MOL    H82 8176   2.297   1.623   0.047  0.2206 -0.2609  0.7444
   58MOL    H83 8177   2.201   1.751   0.089 -0.0832 -0.2119  1.3791
   58MOL    H84 8178   2.069   1.482   0.050 -0.1939  0.2456 -0.1005
   58MOL    H85 8179   2.224   1.556   0.278  1.5561  0.8804 -2.0726
   58MOL    C86 8180   1.982   1.645   0.178  0.5213 -0.4246 -0.0163
   58MOL    C87 8181   1.851   1.566   0.214 -0.0651 -0.5020  0.6785
   58MOL    O88 8182   1.827   1.539   0.352  0.4196 -0.0524 -0.8353
   58MOL    H89 8183   1.998   1.708   0.265 -0.1631  0.6720 -0.6644
   58MOL    H90 8184   1.956   1.714   0.098 -0.8836 -1.7696 -0.7586
   58MOL    H91 8185   1.879   1.472   0.167 -1.6115 -1.2066  1.1412
   58MOL    H92 8186   1.903   1.499   0.391 -0.3993 -0.9314 -0.1149
   58MOL    C93 8187   1.723   1.635   0.152  0.0366 -0.4136 -0.2425
   58MOL    C94 8188   1.720   1.639   0.003  0.0823  1.1684  0.8532
   58MOL    O95 8189   1.678   1.512   7.479  0.6496  0.3602 -0.1934
   58MOL    H96 8190   1.633   1.584   0.188 -1.1237  2.6393  1.3405
   58MOL    H97 8191   1.723   1.734   0.198  1.5896  0.3545 -1.8470
   58MOL    H98 8192   1.815   1.667   7.476 -0.0325  1.4047  0.7547
   58MOL    H99 8193   1.732   1.442   7.512 -1.0656 -0.7745  0.2633
   58MOL   C100 8194   1.616   1.742   7.478  0.0592  0.1803  0.7477
   58MOL   C101 8195   1.636   1.799   7.340  0.1086 -0.3757 -0.2346
   58MOL   O102 8196   1.740   1.897   7.335  0.0980 -0.3079 -0.1692
   58MOL   H103 8197   1.515   1.704   7.491  0.4552 -1.5066 -0.7608
   58MOL   H104 8198   1.628   1.833   0.017 -1.1213  0.7866  0.0610
   58MOL   H105 8199   1.550   1.864   7.321 -0.6079 -1.3019 -0.2103
   58MOL   H106 8200   1.712   1.986   7.341  2.6445  0.6742 -1.9056
   58MOL   C107 8201   1.660   1.691   7.238  0.4652  0.1613  0.6682
   58MOL   C108 8202   1.662   1.730   7.090 -0.7222  0.3842 -0.2763
   58MOL   O109 8203   1.695   1.612   7.012  0.4511 -0.5417  0.1699
   58MOL   H110 8204   1.758   1.650   7.263  0.4100 -0.7748 -0.6146
   58MOL   H111 8205   1.592   1.609   7.259  0.8688 -0.7315 -1.3376
   58MOL   H112 8206   1.748   1.797   7.083  1.4623 -2.4570 -1.4761
   58MOL   H113 8207   1.709   1.641   6.923 -1.4390  0.5903  0.2055
   58MOL   C114 8208   1.531   1.794   7.037 -0.6345  0.0812 -0.4633
   58MOL   C115 8209   1.543   1.835   6.885  0.4731  0.6075 -0.1153
   58MOL   O116 8210   1.416   1.873   6.841 -0.5938  0.4937  0.2144
   58MOL   H117 8211   1.446   1.731   7.066  0.3567 -1.5312 -0.9767
   58MOL   H118 8212   1.526   1.891   7.085 -1.3573 -0.5059  0.6812
   58MOL   H119 8213   1.563   1.748   6.823  0.0917  0.3181  0.1661
   58MOL   H120 8214   1.403   1.823   6.761  1.1187  1.7727 -0.9132
   58MOL   C121 8215   1.644   1.954   6.861  0.2813 -0.2439 -0.3012
   58MOL   C122 8216   1.721   1.963   6.721  0.0310 -0.0046  0.4106
   58MOL   O123 8217   1.805   1.846   6.719  0.5108 -0.4291 -0.4174
   58MOL   H124 8218   1.599   2.053   6.860  2.3318  0.7237 -2.7540
   58MOL   H125 8219   1.712   1.958   6.946 -0.8590 -1.3492  0.6854
   58MOL   H126 8220   1.784   2.048   6.746 -1.6851  1.3258  0.3159
   58MOL   H127 8221   1.894   1.879   6.724  0.9324 -1.6753  0.4648
   58MOL   C128 8222   1.644   1.972   6.587 -0.5547 -0.1438 -0.6960
   58MOL   C129 8223   1.539   2.080   6.586  0.3076  0.4900  0.1003
   58MOL   O130 8224   1.613   2.206   6.599  0.0729 -0.0704  0.5839
   58MOL   H131 8225   1.706   1.986   6.498 -1.5631 -0.0031 -1.3926
   58MOL   H132 8226   1.602   1.874   6.564  0.5896 -0.1128 -3.0503
   58MOL   H133 8227   1.477   2.075   6.676 -1.7621  0.8015 -1.2725
   58MOL   H134 8228   1.553   2.250   6.657  0.0258  0.0349  0.4555
   58MOL   C135 8229   1.463   2.091   6.449 -0.0079  0.5594  0.0912
   58MOL   C136 8230   1.346   2.193   6.456  0.2890  0.2068 -0.5153
   58MOL   O137 8231   1.310   2.238   6.328 -0.2115 -0.4179  0.4037
   58MOL   H138 8232   1.526   2.112   6.362  0.3863 -2.4483 -0.4197
   58MOL   H139 8233   1.426   1.989   6.437  1.1019 -0.0595  1.8215
   58MOL   H140 8234   1.370   2.289   6.503  0.1059 -0.4333  0.9160
   58MOL   H141 8235   1.221   2.272   6.326 -0.5738 -1.3341  0.6755
   58MOL   H142 8236   1.261   2.158   6.516 -1.0413  0.1599 -2.3990
   59MOL     C1 8237   7.114   6.322   3.006 -0.0750  0.1992 -0.1553
   59MOL     C2 8238   7.156   6.220   2.900  0.1792  0.3160  0.9327
   59MOL     O3 8239   7.096   6.257   2.777 -0.4332  0.6106 -0.8192
   59MOL     H4 8240   7.156   6.419   2.982  0.7446 -0.1100  0.0145
   59MOL     H5 8241   7.137   6.289   3.107  0.4494 -0.6060 -0.5300
   59MOL     H6 8242   7.099   6.128   2.912 -1.5755  0.9710 -1.8743
   59MOL     H7 8243   7.078   6.173   2.737 -2.4819  0.9721 -0.7142
   59MOL     H8 8244   7.006   6.337   2.998  0.1736  1.1290 -2.0070
   59MOL     C9 8245   7.311   6.180   2.896 -0.0653  0.4019  0.4759
   59MOL    C10 8246   7.370   6.133   3.032  0.4998  0.0202  0.0094
   59MOL    O11 8247   7.286   6.038   3.089 -0.1295 -0.3084  0.6530
   59MOL    H12 8248   7.318   6.099   2.824 -3.0286 -0.4997  1.1146
   59MOL    H13 8249   7.366   6.267   2.861 -1.5693  0.7751 -1.0139
   59MOL    H14 8250   7.379   6.218   3.100  0.4602 -0.4607  0.6139
   59MOL    H15 8251   7.278   6.068   3.178  0.6584  0.3255  0.5086
   59MOL    C16 8252   7.510   6.066   3.032  0.1292  0.1956  0.0807
   59MOL    C17 8253   0.102   6.155   2.961 -0.3718  0.0318  0.1948
   59MOL    O18 8254   0.106   6.286   3.019 -0.0095  0.0327 -0.0212
   59MOL    H19 8255   0.023   6.048   3.134 -2.3838 -1.2440  0.6360
   59MOL    H20 8256   7.512   5.967   2.987  2.9181  0.8541 -1.4043
   59MOL    H21 8257   0.082   6.156   2.854 -0.1648  3.5347  0.1284
   59MOL    H22 8258   0.137   6.285   3.109 -0.6032 -1.5332  0.1773
   59MOL    C23 8259   0.245   6.095   2.974 -0.1317  0.3593  0.1452
   59MOL    C24 8260   0.271   5.951   2.913 -0.0099  0.6499  0.2739
   59MOL    O25 8261   0.264   5.949   2.769  0.4408  0.4444  0.1962
   59MOL    H26 8262   0.317   6.165   2.931 -0.2829 -1.1490 -2.6541
   59MOL    H27 8263   0.268   6.090   3.080 -2.2159 -1.2692  0.5508
   59MOL    H28 8264   0.188   5.883   2.935 -0.6571  1.4037  0.1872
   59MOL    H29 8265   0.214   5.873   2.741  0.6003  0.3271  0.2300
   59MOL    C30 8266   0.402   5.892   2.966  0.4239  0.5383 -0.4748
   59MOL    C31 8267   0.376   5.820   3.097 -0.1158  0.5825 -0.7400
   59MOL    O32 8268   0.309   5.700   3.067 -0.3860 -0.3398 -0.1196
   59MOL    H33 8269   0.449   5.826   2.893  1.5823 -0.4292  1.1253
   59MOL    H34 8270   0.470   5.976   2.981 -0.5334  0.7288  3.1994
   59MOL    H35 8271   0.310   5.883   3.155  0.4424  2.4557 -2.0844
   59MOL    H36 8272   0.314   5.665   3.155  0.4772 -0.9559 -0.4112
   59MOL    C37 8273   0.507   5.794   3.178 -0.4267  0.1735 -0.5178
   59MOL    C38 8274   0.543   5.904   3.278 -0.1149 -0.4790 -0.0083
   59MOL    O39 8275   0.616   5.860   3.390  0.0830  0.2081 -0.4025
   59MOL    H40 8276   0.492   5.704   3.238 -0.6426  2.1696  2.5100
   59MOL    H41 8277   0.587   5.766   3.110 -0.1638 -1.4053  0.4169
   59MOL    H42 8278   0.448   5.939   3.317 -0.3213 -0.7875 -0.2294
   59MOL    H43 8279   0.566   5.879   3.467 -1.7941 -1.2531 -1.2063
   59MOL    C44 8280   0.606   6.031   3.229 -0.6896 -0.1467  0.6476
   59MOL    C45 8281   0.735   6.023   3.144 -0.3465  0.2844 -0.0102
   59MOL    O46 8282   0.761   6.155   3.105  0.1246 -0.1838 -0.4328
   59MOL    H47 8283   0.525   6.078   3.174 -1.0130 -0.8590  0.4980
   59MOL    H48 8284   0.626   6.086   3.321  1.7577 -2.0203  1.2850
   59MOL    H49 8285   0.718   5.971   3.049 -1.8341 -2.3526  1.6365
   59MOL    H50 8286   0.849   6.150   3.070  0.6886 -0.1875  0.9544
   59MOL    C51 8287   0.862   5.966   3.213  0.0071  0.2160 -0.3929
   59MOL    C52 8288   0.989   5.968   3.129  0.1225 -0.5506 -0.1829
   59MOL    O53 8289   1.025   6.108   3.116  0.3958  0.0970  0.1727
   59MOL    H54 8290   0.876   6.011   3.311  0.1094 -1.5972  0.4556
   59MOL    H55 8291   0.837   5.860   3.225  0.0467 -0.2605 -3.9874
   59MOL    H56 8292   0.958   5.933   3.030  3.0737 -0.7765 -1.0611
   59MOL    H57 8293   1.072   6.115   3.034  0.7038 -0.3099  0.3150
   59MOL    C58 8294   1.106   5.890   3.197 -0.0134  0.2767 -0.4437
   59MOL    C59 8295   1.213   5.832   3.107 -0.0081 -0.2678  0.3483
   59MOL    O60 8296   1.330   5.804   3.189 -0.8454 -0.1404 -0.0355
   59MOL    H61 8297   1.153   5.954   3.271  0.7469 -1.1791  0.3554
   59MOL    H62 8298   1.060   5.807   3.251  0.2852 -0.1314 -0.8040
   59MOL    H63 8299   1.252   5.908   3.039  1.3322 -0.3218  1.0245
   59MOL    H64 8300   1.409   5.788   3.141 -0.0761 -0.6331  1.3753
   59MOL    C65 8301   1.169   5.716   3.020  0.1186 -0.7577 -0.0589
   59MOL    C66 8302   1.089   5.600   3.085 -0.4136 -0.1241  0.3677
   59MOL    O67 8303   0.948   5.645   3.086  0.1217  0.0913 -0.1119
   59MOL    H68 8304   1.112   5.754   2.936 -2.0647 -2.4471  0.6073
   59MOL    H69 8305   1.250   5.671   2.962 -0.6182 -1.0136 -0.8990
   59MOL    H70 8306   1.129   5.588   3.186 -1.8273 -0.2657  0.9127
   59MOL    H71 8307   0.918   5.625   3.173 -2.0172  0.1345 -0.8182
   59MOL    C72 8308   1.114   5.480   2.999 -0.1521  0.2789 -0.1502
   59MOL    C73 8309   1.207   5.374   3.054  0.4505 -0.0148 -0.5418
   59MOL    O74 8310   1.173   5.257   2.985  0.1951 -0.2094  0.3705
   59MOL    H75 8311   1.018   5.428   2.993  1.5414 -2.8528 -1.4451
   59MOL    H76 8312   1.128   5.506   2.894 -1.8513  0.5496 -0.3161
   59MOL    H77 8313   1.172   5.344   3.153 -1.7587  1.7558 -0.7442
   59MOL    H78 8314   1.088   5.226   3.011 -0.3365  0.1935 -0.8308
   59MOL    C79 8315   1.347   5.400   3.039  0.0423  0.5709  0.0325
   59MOL    C80 8316   1.429   5.453   3.159  0.2760  0.2526  0.2445
   59MOL    O81 8317   1.410   5.370   3.274  0.0426  0.4446  0.2702
   59MOL    H82 8318   1.400   5.318   2.990 -1.0340 -0.2373  0.2193
   59MOL    H83 8319   1.357   5.479   2.965 -0.5426  1.7732  1.2273
   59MOL    H84 8320   1.392   5.552   3.186 -1.3148 -0.4492  0.7120
   59MOL    H85 8321   1.406   5.420   3.354  0.6231  0.5735  0.2199
   59MOL    C86 8322   1.582   5.460   3.138  0.1562  0.2891 -0.4603
   59MOL    C87 8323   1.621   5.578   3.048  0.3532  0.1496  0.1616
   59MOL    O88 8324   1.583   5.696   3.121 -0.1625  0.7317  0.1522
   59MOL    H89 8325   1.627   5.475   3.236  1.9166  0.0524 -1.2235
   59MOL    H90 8326   1.613   5.362   3.101 -0.4072  0.1572 -0.6007
   59MOL    H91 8327   1.563   5.564   2.957  1.9709 -1.0372 -0.6943
   59MOL    H92 8328   1.656   5.755   3.113  0.9270 -0.6894 -0.7024
   59MOL    C93 8329   1.773   5.574   3.018 -0.0149  0.4192 -0.5289
   59MOL    C94 8330   1.836   5.682   2.939  0.1675 -0.1364  0.2199
   59MOL    O95 8331   1.842   5.797   3.016  0.0841 -0.0322  0.7157
   59MOL    H96 8332   1.822   5.549   3.112 -0.7668  0.4396 -0.1207
   59MOL    H97 8333   1.787   5.480   2.965 -0.8698  0.0382 -0.0930
   59MOL    H98 8334   1.769   5.708   2.856  0.6205  0.6353  0.0889
   59MOL    H99 8335   1.802   5.862   2.960 -0.9587 -2.3715 -1.3381
   59MOL   C100 8336   1.982   5.636   2.893  0.3097  0.8723  0.0135
   59MOL   C101 8337   1.975   5.580   2.751  0.1882  0.0211  0.1508
   59MOL   O102 8338   1.937   5.692   2.668  0.2066  0.0749  1.0752
   59MOL   H103 8339   2.044   5.725   2.886  0.0707  1.1689  1.6070
   59MOL   H104 8340   2.022   5.564   2.964  0.2460  1.3952  0.5756
   59MOL   H105 8341   1.888   5.513   2.755 -1.7452  2.1496 -3.7008
   59MOL   H106 8342   1.855   5.681   2.622  0.5930 -0.6051  0.5487
   59MOL   C107 8343   2.100   5.515   2.690  0.2868 -0.2241  0.3712
   59MOL   C108 8344   2.145   5.387   2.758  0.3123 -0.5736  0.7407
   59MOL   O109 8345   2.052   5.286   2.737  0.4552 -0.2566  0.1232
   59MOL   H110 8346   2.090   5.511   2.582 -1.2751 -0.7099  0.5208
   59MOL   H111 8347   2.176   5.593   2.699  1.2264 -0.6772 -2.9613
   59MOL   H112 8348   2.153   5.403   2.865  2.4209  0.6086  0.4160
   59MOL   H113 8349   2.066   5.248   2.652  2.3805  0.3293  0.1383
   59MOL   C114 8350   2.278   5.329   2.709 -0.0102  0.4136 -0.6471
   59MOL   C115 8351   2.390   5.430   2.724  0.0583  0.2652 -0.8329
   59MOL   O116 8352   2.416   5.455   2.863 -0.3162 -0.7489 -0.0972
   59MOL   H117 8353   2.300   5.236   2.762 -2.3449 -0.5911 -1.3890
   59MOL   H118 8354   2.259   5.306   2.604 -1.6992 -1.0388 -0.0539
   59MOL   H119 8355   2.359   5.518   2.668  0.1319  1.6396  1.2645
   59MOL   H120 8356   2.394   5.544   2.885  1.6565 -0.1872 -0.3598
   59MOL   C121 8357   2.526   5.369   2.664  0.3117 -0.5881 -0.4546
   59MOL   C122 8358   2.521   5.370   2.507  0.3137  0.6886  0.6798
   59MOL   O123 8359   2.533   5.506   2.459 -0.1621 -0.6739 -0.5190
   59MOL   H124 8360   2.612   5.430   2.691 -0.6389  0.1167  1.0495
   59MOL   H125 8361   2.548   5.270   2.703  0.0309  0.4853  2.5290
   59MOL   H126 8362   2.424   5.349   2.462  1.6705  0.5335 -2.2694
   59MOL   H127 8363   2.467   5.514   2.392  0.6963 -0.2715 -1.3193
   59MOL   C128 8364   2.636   5.289   2.443 -0.3272  0.3119 -0.3999
   59MOL   C129 8365   2.600   5.143   2.421 -0.3274  0.2666 -0.4082
   59MOL   O130 8366   2.477   5.139   2.346 -0.2291 -0.1701  0.0760
   59MOL   H131 8367   2.664   5.331   2.346  1.8660  0.1711  0.1381
   59MOL   H132 8368   2.720   5.312   2.509  1.0114 -1.5337 -1.4173
   59MOL   H133 8369   2.571   5.088   2.511 -0.1175 -1.1947 -1.2244
   59MOL   H134 8370   2.497   5.172   2.260 -1.1839 -1.6990 -0.7530
   59MOL   C135 8371   2.707   5.065   2.341 -0.9109 -0.4587  0.2699
   59MOL   C136 8372   2.840   5.064   2.407  0.5146  0.1590  0.3438
   59MOL   O137 8373   2.825   5.007   2.534  0.5172 -0.4599  1.1265
   59MOL   H138 8374   2.671   4.962   2.341  0.2852 -0.8976 -1.1865
   59MOL   H139 8375   2.709   5.100   2.238 -3.4177  0.8406  0.6330
   59MOL   H140 8376   2.873   5.168   2.407 -2.0450  1.0113 -0.4746
   59MOL   H141 8377   2.891   5.045   2.591 -0.5816  0.9529  1.4852
   59MOL   H142 8378   2.917   5.017   2.345  0.8090  0.5541  0.4089
   60MOL     C1 8379   1.742   2.240   3.641 -0.3256  0.4818 -0.3749
   60MOL     C2 8380   1.779   2.289   3.783  0.3422 -0.2999  0.0117
   60MOL     O3 8381   1.652   2.292   3.852  0.0088 -0.4194  0.1998
   60MOL     H4 8382   1.822   2.245   3.567  0.1200  0.6244  0.1117
   60MOL     H5 8383   1.663   2.301   3.596 -0.3938 -0.7786 -1.9880
   60MOL     H6 8384   1.816   2.391   3.788  1.3366 -0.5155 -2.2347
   60MOL     H7 8385   1.603   2.213   3.836  0.1001 -0.4411  0.0303
   60MOL     H8 8386   1.704   2.139   3.651  2.1163 -0.5532 -1.1508
   60MOL     C9 8387   1.874   2.193   3.847  0.3789  0.5333 -0.6316
   60MOL    C10 8388   1.865   2.175   4.005  0.2689  0.2605 -0.1476
   60MOL    O11 8389   1.937   2.063   4.039 -0.3772  0.4648  0.5117
   60MOL    H12 8390   1.855   2.090   3.819 -2.6442  1.0460 -0.6075
   60MOL    H13 8391   1.974   2.214   3.809  1.2653  1.2181  1.9468
   60MOL    H14 8392   1.761   2.148   4.027  0.2600  0.3759 -0.0529
   60MOL    H15 8393   2.027   2.077   4.014 -0.2973 -0.4862  0.2469
   60MOL    C16 8394   1.917   2.307   4.086  0.2833  0.4700 -0.8262
   60MOL    C17 8395   1.853   2.356   4.221 -0.6293 -0.2588  0.0193
   60MOL    O18 8396   1.906   2.490   4.247  0.0561 -0.0721 -0.0498
   60MOL    H19 8397   2.026   2.302   4.097  0.0766  0.2395  1.3141
   60MOL    H20 8398   1.891   2.393   4.024 -1.9202 -0.9820 -1.9617
   60MOL    H21 8399   1.901   2.300   4.302  0.5699 -0.3394 -0.7382
   60MOL    H22 8400   1.892   2.503   4.339  0.2748  2.9309 -0.3620
   60MOL    C23 8401   1.695   2.345   4.234  0.9566  0.4639  0.2457
   60MOL    C24 8402   1.631   2.257   4.344  0.2982  0.1502 -0.3140
   60MOL    O25 8403   1.496   2.297   4.364 -0.4396  0.1907 -0.4163
   60MOL    H26 8404   1.660   2.447   4.252  1.1366  0.2155  2.0039
   60MOL    H27 8405   1.659   2.325   4.133 -0.4617  1.1741  0.6044
   60MOL    H28 8406   1.678   2.282   4.439 -1.7519  2.3085  0.1785
   60MOL    H29 8407   1.482   2.318   4.455 -0.8880  1.7055 -0.8294
   60MOL    C30 8408   1.661   2.110   4.316  0.3709  0.8641 -0.3871
   60MOL    C31 8409   1.634   2.008   4.430 -0.1280 -0.1649  0.4557
   60MOL    O32 8410   1.509   2.028   4.489  0.1447  0.2440  0.2589
   60MOL    H33 8411   1.601   2.078   4.231  0.9406 -1.3234  0.0017
   60MOL    H34 8412   1.765   2.109   4.286  0.9597  1.0747  1.5869
   60MOL    H35 8413   1.695   2.033   4.517 -1.0437 -0.7208  1.2710
   60MOL    H36 8414   1.498   2.121   4.495  1.0999  0.4650 -1.1772
   60MOL    C37 8415   1.675   1.866   4.393 -0.3937  0.5517  0.0372
   60MOL    C38 8416   1.677   1.767   4.507 -0.2507 -0.7523 -0.1499
   60MOL    O39 8417   1.662   1.636   4.455 -0.0711 -0.2243 -0.4605
   60MOL    H40 8418   1.601   1.841   4.317  0.4824  0.0138 -0.6445
   60MOL    H41 8419   1.775   1.882   4.354  0.6336 -0.8793  2.0316
   60MOL    H42 8420   1.596   1.777   4.579  2.0981 -0.8091  2.5876
   60MOL    H43 8421   1.601   1.636   4.383 -1.7379 -0.2327  0.9221
   60MOL    C44 8422   1.811   1.788   4.593  0.2608  0.5759 -0.3280
   60MOL    C45 8423   1.826   1.693   4.717  0.4064 -0.0750 -0.3506
   60MOL    O46 8424   1.863   1.571   4.657  0.1452 -0.2663  0.0373
   60MOL    H47 8425   1.901   1.783   4.531  2.7783  0.0482  3.1963
   60MOL    H48 8426   1.806   1.883   4.645  3.3252 -0.1752  1.4998
   60MOL    H49 8427   1.728   1.692   4.763  1.1104 -0.4448  1.1697
   60MOL    H50 8428   1.805   1.555   4.585 -0.1574 -1.4134  0.5238
   60MOL    C51 8429   1.950   1.740   4.799  0.5034  0.0706 -0.0640
   60MOL    C52 8430   1.963   1.666   4.934  0.2361  0.2855 -0.2273
   60MOL    O53 8431   2.068   1.576   4.933  0.0564  0.2813  0.3210
   60MOL    H54 8432   2.043   1.738   4.742  0.8055 -2.0783  0.4491
   60MOL    H55 8433   1.938   1.847   4.815  1.1253 -0.1402  1.8935
   60MOL    H56 8434   1.872   1.609   4.953 -0.1473  1.5275  1.8696
   60MOL    H57 8435   2.054   1.526   4.854 -0.6092  0.2332  0.4617
   60MOL    C58 8436   1.984   1.758   5.055  1.2301 -0.1871 -0.3517
   60MOL    C59 8437   1.973   1.691   5.197  0.2133 -0.0983  0.0298
   60MOL    O60 8438   1.995   1.790   5.296 -0.2721  0.1157  0.2755
   60MOL    H61 8439   2.082   1.806   5.045  0.6259  1.0045 -0.5771
   60MOL    H62 8440   1.915   1.842   5.053 -0.2520 -1.3209  1.0943
   60MOL    H63 8441   2.045   1.610   5.199  0.6955  0.3505  2.7719
   60MOL    H64 8442   2.071   1.770   5.349 -0.3054  1.2615  0.7782
   60MOL    C65 8443   1.836   1.622   5.216  0.7712 -0.4352  0.1592
   60MOL    C66 8444   1.820   1.543   5.350 -0.1066 -0.2282  0.5296
   60MOL    O67 8445   1.681   1.543   5.380 -0.3387  0.3438  0.0469
   60MOL    H68 8446   1.759   1.700   5.210 -0.0842 -1.2746  0.2157
   60MOL    H69 8447   1.828   1.547   5.139 -0.9844 -0.9181  0.7837
   60MOL    H70 8448   1.857   1.602   5.434  0.6920 -0.8164  0.5950
   60MOL    H71 8449   1.652   1.631   5.360 -1.7439 -0.2658 -0.6489
   60MOL    C72 8450   1.870   1.397   5.348  0.8036 -0.1692 -0.2108
   60MOL    C73 8451   2.014   1.375   5.342  0.1091  0.4511  0.2930
   60MOL    O74 8452   2.082   1.459   5.428 -0.0564 -0.4652  0.2370
   60MOL    H75 8453   1.845   1.348   5.441 -2.0909  0.6309 -0.5317
   60MOL    H76 8454   1.823   1.344   5.265 -0.4356 -0.4837  0.6895
   60MOL    H77 8455   2.036   1.402   5.239 -0.7624  1.3396  0.3280
   60MOL    H78 8456   2.162   1.498   5.395 -0.3177 -1.8634 -2.1888
   60MOL    C79 8457   2.068   1.232   5.383  0.2777 -0.3034 -0.1253
   60MOL    C80 8458   2.003   1.101   5.323 -0.4068  0.2525  0.2306
   60MOL    O81 8459   2.053   1.079   5.187  0.3966 -0.0155 -0.1470
   60MOL    H82 8460   2.177   1.224   5.382  0.3102  0.0825 -0.1118
   60MOL    H83 8461   2.048   1.231   5.490 -0.2579 -0.9656 -0.2274
   60MOL    H84 8462   1.895   1.114   5.327 -0.1402  2.4605  0.9273
   60MOL    H85 8463   1.984   1.108   5.129  0.4655  0.2221 -0.1105
   60MOL    C86 8464   2.034   0.977   5.415  0.3396  0.4906  0.2891
   60MOL    C87 8465   1.965   0.848   5.370  0.4272 -0.4476 -0.0993
   60MOL    O88 8466   2.030   0.737   5.425 -0.5243  0.5291  0.0398
   60MOL    H89 8467   2.140   0.966   5.436 -0.0921 -4.4895  0.5256
   60MOL    H90 8468   1.994   0.988   5.516 -1.5140 -2.8209 -0.0044
   60MOL    H91 8469   1.983   0.824   5.265  2.2780  0.7113 -0.0702
   60MOL    H92 8470   2.118   0.732   5.390 -0.2271  0.3589  0.8060
   60MOL    C93 8471   1.816   0.843   5.408  0.3681  0.2398 -0.5319
   60MOL    C94 8472   1.749   0.730   5.339 -0.3566  0.3142 -0.1803
   60MOL    O95 8473   1.640   0.689   5.417 -0.1794  0.1777 -0.7401
   60MOL    H96 8474   1.811   0.838   5.517 -2.1749 -0.7011 -0.6564
   60MOL    H97 8475   1.756   0.932   5.387 -0.1384 -0.1515 -0.7475
   60MOL    H98 8476   1.813   0.643   5.336 -0.0673  0.5394 -0.6231
   60MOL    H99 8477   1.676   0.618   5.468  0.0833  0.4700 -0.5210
   60MOL   C100 8478   1.704   0.768   5.197 -0.3715  0.3419  0.0029
   60MOL   C101 8479   1.639   0.660   5.115  0.3315 -0.9888  0.0928
   60MOL   O102 8480   1.518   0.630   5.163  0.3069 -0.0313 -0.1476
   60MOL   H103 8481   1.647   0.861   5.194  0.1896  0.6406 -2.6250
   60MOL   H104 8482   1.791   0.802   5.140 -1.2579  0.6439 -1.1911
   60MOL   H105 8483   1.706   0.575   5.126  2.7626  0.9313  0.6363
   60MOL   H106 8484   1.534   0.619   5.256 -1.4664 -1.3408  0.0252
   60MOL   C107 8485   1.631   0.685   4.963 -0.3661  0.5721  0.5203
   60MOL   C108 8486   1.617   0.562   4.876  0.4410  0.2286  0.4482
   60MOL   O109 8487   1.595   0.605   4.742 -0.4388 -0.4178 -0.0233
   60MOL   H110 8488   1.550   0.752   4.935  0.5655  1.3121 -0.4761
   60MOL   H111 8489   1.728   0.731   4.942 -1.1964  2.0745 -0.0617
   60MOL   H112 8490   1.528   0.508   4.908  0.6509 -1.5687 -1.8925
   60MOL   H113 8491   1.510   0.584   4.706 -0.4905  1.4533 -1.0353
   60MOL   C114 8492   1.737   0.458   4.868 -0.2473 -0.2245  0.0923
   60MOL   C115 8493   1.702   0.308   4.845 -0.6124  0.0151  0.2595
   60MOL   O116 8494   1.823   0.260   4.788 -0.8520  0.0223 -0.0412
   60MOL   H117 8495   1.800   0.491   4.785  0.5734 -1.1332  0.3520
   60MOL   H118 8496   1.801   0.470   4.955  0.7295 -2.8116 -0.2452
   60MOL   H119 8497   1.635   0.289   4.761  0.0241 -1.7192  0.1168
   60MOL   H120 8498   1.814   0.256   4.694 -1.3577 -0.8567  0.0353
   60MOL   C121 8499   1.674   0.236   4.978 -0.5734 -0.4338 -0.0052
   60MOL   C122 8500   1.616   0.095   4.943  0.3570  0.1036  0.6713
   60MOL   O123 8501   1.640   7.512   5.045  0.1656  0.4079 -0.3006
   60MOL   H124 8502   1.769   0.237   5.032 -0.2457  1.0360 -0.5840
   60MOL   H125 8503   1.606   0.287   5.046  2.4288  2.7073  0.7617
   60MOL   H126 8504   1.657   0.059   4.849 -0.0445 -2.6631  1.5000
   60MOL   H127 8505   1.729   7.516   5.077  0.5042  1.6296 -1.3245
   60MOL   C128 8506   1.466   0.080   4.932  0.4029 -0.2863 -0.1536
   60MOL   C129 8507   1.401   0.191   4.846 -0.4756 -0.4008 -0.2385
   60MOL   O130 8508   1.431   0.158   4.712  0.1839 -0.4669  0.1238
   60MOL   H131 8509   1.443   7.498   4.897 -0.7672 -1.0818  2.7542
   60MOL   H132 8510   1.412   0.095   5.026  0.7225 -0.7932  0.1132
   60MOL   H133 8511   1.428   0.293   4.872 -0.8598 -0.1626 -0.7614
   60MOL   H134 8512   1.418   0.068   4.689 -1.0223 -0.0108 -1.0775
   60MOL   C135 8513   1.250   0.174   4.872 -0.1332 -0.0064 -0.3639
   60MOL   C136 8514   1.160   0.266   4.792  0.1947 -0.2134  0.3399
   60MOL   O137 8515   1.029   0.276   4.840 -0.2970  0.3053  0.0982
   60MOL   H138 8516   1.213   0.072   4.859  0.4526  0.0512 -2.7022
   60MOL   H139 8517   1.229   0.199   4.976 -1.6966 -0.4632 -0.5461
   60MOL   H140 8518   1.155   0.235   4.688  0.5996  1.2813 -0.1328
   60MOL   H141 8519   0.976   0.315   4.772 -0.6113 -1.0694 -0.4584
   60MOL   H142 8520   1.197   0.367   4.779 -0.1171 -0.1041  0.2838
   61MOL     C1 8521   1.413   1.768   5.028 -0.4616 -0.6032 -0.7490
   61MOL     C2 8522   1.488   1.899   5.059 -0.1419  0.0740 -0.3139
   61MOL     O3 8523   1.595   1.869   5.143 -0.4160 -0.4688 -0.1071
   61MOL     H4 8524   1.366   1.778   4.931  0.5241  1.4476 -1.0458
   61MOL     H5 8525   1.352   1.746   5.115  3.8287  0.9722  2.8762
   61MOL     H6 8526   1.422   1.974   5.103 -0.5159  0.2539 -1.1583
   61MOL     H7 8527   1.667   1.917   5.107 -0.9318 -0.4158 -1.0793
   61MOL     H8 8528   1.492   1.695   5.009 -0.6849 -0.7601 -1.0708
   61MOL     C9 8529   1.542   1.971   4.930  0.3434 -0.4976 -0.1898
   61MOL    C10 8530   1.617   2.106   4.954  0.2334  0.6265 -0.0302
   61MOL    O11 8531   1.734   2.083   5.025  0.3450  0.1002  0.0745
   61MOL    H12 8532   1.599   1.893   4.879 -0.8358 -0.9282 -0.8713
   61MOL    H13 8533   1.458   1.994   4.865 -0.6156 -0.4832  1.0492
   61MOL    H14 8534   1.551   2.173   5.007 -0.7885  0.9090 -1.6223
   61MOL    H15 8535   1.755   2.156   5.081  0.9542  0.1867 -0.2648
   61MOL    C16 8536   1.653   2.162   4.811  0.0861 -0.1627  0.2595
   61MOL    C17 8537   1.686   2.318   4.807 -0.3947  1.1290 -0.7069
   61MOL    O18 8538   1.759   2.352   4.694  0.1903 -0.3319 -0.0873
   61MOL    H19 8539   1.746   2.117   4.775  1.0514  1.5948  0.5141
   61MOL    H20 8540   1.582   2.133   4.733 -0.6811  1.0918  0.4796
   61MOL    H21 8541   1.757   2.333   4.888  3.8407  0.2788 -4.0744
   61MOL    H22 8542   1.819   2.281   4.682 -0.4261 -0.6551 -1.3811
   61MOL    C23 8543   1.559   2.413   4.819 -0.6430  0.0084 -0.9200
   61MOL    C24 8544   1.478   2.451   4.697  0.3638  1.0704  0.3065
   61MOL    O25 8545   1.430   2.335   4.626 -0.1988  0.0486 -0.4601
   61MOL    H26 8546   1.496   2.367   4.896  1.8176 -0.1087  1.1064
   61MOL    H27 8547   1.601   2.506   4.858  0.6089 -0.1948 -1.7559
   61MOL    H28 8548   1.532   2.516   4.628 -0.9851 -0.1172 -1.9218
   61MOL    H29 8549   1.368   2.286   4.678  0.4974  0.3903  0.7077
   61MOL    C30 8550   1.357   2.533   4.740  0.2456  0.6030 -0.4135
   61MOL    C31 8551   1.278   2.586   4.614 -0.5461  0.1296 -0.5290
   61MOL    O32 8552   1.139   2.588   4.646 -0.0958 -0.0048 -1.0014
   61MOL    H33 8553   1.289   2.473   4.802  1.2553 -0.7951 -0.6347
   61MOL    H34 8554   1.386   2.620   4.798 -2.6613  1.2294  0.1805
   61MOL    H35 8555   1.291   2.514   4.533  3.4712  1.5314 -1.2177
   61MOL    H36 8556   1.087   2.565   4.571 -2.3002 -0.2696  0.5533
   61MOL    C37 8557   1.326   2.726   4.554 -1.0589 -0.2851 -0.1850
   61MOL    C38 8558   1.434   2.722   4.442  0.3527  0.9596 -0.5474
   61MOL    O39 8559   1.566   2.713   4.486  0.3555  0.7573  0.0877
   61MOL    H40 8560   1.237   2.771   4.509 -0.3921  1.7870  0.5365
   61MOL    H41 8561   1.337   2.791   4.641  2.4913 -3.1944  1.6716
   61MOL    H42 8562   1.425   2.822   4.399  1.1039  1.7673  1.1242
   61MOL    H43 8563   1.617   2.730   4.409 -0.7742 -3.3319 -1.6963
   61MOL    C44 8564   1.416   2.625   4.330  0.1397 -0.5328 -0.0924
   61MOL    C45 8565   1.280   2.621   4.265  0.0085  0.1092  0.4159
   61MOL    O46 8566   1.272   2.713   4.155 -0.2012 -0.2701  0.0329
   61MOL    H47 8567   1.497   2.619   4.258 -0.5727  0.0228 -0.9538
   61MOL    H48 8568   1.427   2.525   4.374 -0.4597  0.1523  1.6805
   61MOL    H49 8569   1.202   2.655   4.331 -0.4162  2.5950 -1.3178
   61MOL    H50 8570   1.197   2.691   4.101 -0.3142  0.0678  0.0553
   61MOL    C51 8571   1.251   2.486   4.199  1.2421 -0.6361  0.3892
   61MOL    C52 8572   1.103   2.444   4.219  0.3181  0.3987  0.2158
   61MOL    O53 8573   1.069   2.360   4.114  0.0489  0.1502  0.1126
   61MOL    H54 8574   1.290   2.475   4.098  0.8588 -0.4780  0.2255
   61MOL    H55 8575   1.319   2.411   4.240  0.7171 -0.9474  0.6927
   61MOL    H56 8576   1.033   2.527   4.210 -0.2798  0.0910  1.7004
   61MOL    H57 8577   1.093   2.272   4.141 -0.3022  0.7891  2.6101
   61MOL    C58 8578   1.057   2.378   4.353  0.6478  0.4297 -0.9321
   61MOL    C59 8579   0.919   2.426   4.415 -0.4485 -0.2509 -0.4277
   61MOL    O60 8580   0.943   2.561   4.453  0.2708  0.3348 -0.1222
   61MOL    H61 8581   1.055   2.270   4.343 -1.3349  0.4019 -0.5872
   61MOL    H62 8582   1.128   2.385   4.435  0.7305  0.0359 -0.9701
   61MOL    H63 8583   0.890   2.367   4.502  0.2125 -1.4881 -1.0374
   61MOL    H64 8584   0.867   2.588   4.502  0.1248  0.5597 -0.4676
   61MOL    C65 8585   0.802   2.420   4.310 -0.6620 -0.5735  0.4942
   61MOL    C66 8586   0.729   2.284   4.309 -0.7521 -0.1589  0.0145
   61MOL    O67 8587   0.649   2.288   4.192 -0.1598  0.3113  0.2302
   61MOL    H68 8588   0.732   2.502   4.324 -0.9487 -0.8064  0.4144
   61MOL    H69 8589   0.846   2.441   4.212 -1.8087  1.8732  0.4602
   61MOL    H70 8590   0.655   2.272   4.388 -0.5802 -0.9078  0.0740
   61MOL    H71 8591   0.628   2.376   4.163  2.8829  1.0455 -0.0184
   61MOL    C72 8592   0.813   2.149   4.311  0.0252 -0.8059 -0.7585
   61MOL    C73 8593   0.736   2.013   4.320  0.1336  0.1728 -0.6172
   61MOL    O74 8594   0.831   1.915   4.292 -0.0185  0.3374  0.0487
   61MOL    H75 8595   0.873   2.157   4.220  0.6390 -0.3067 -0.3108
   61MOL    H76 8596   0.887   2.142   4.390 -0.7454  3.1382  0.3960
   61MOL    H77 8597   0.669   2.017   4.234  0.5577  1.9756 -0.8732
   61MOL    H78 8598   0.915   1.928   4.334  0.4510 -1.4828 -0.2759
   61MOL    C79 8599   0.673   1.989   4.458  0.1776 -0.2319 -0.6221
   61MOL    C80 8600   0.583   1.870   4.458  0.7775 -0.2447 -0.0711
   61MOL    O81 8601   0.659   1.754   4.441  0.4443 -0.0536  0.2765
   61MOL    H82 8602   0.755   1.977   4.529 -0.2734  0.0905 -0.0418
   61MOL    H83 8603   0.615   2.074   4.493  1.4260  0.8472 -1.1566
   61MOL    H84 8604   0.516   1.873   4.372  2.8319 -0.4065 -1.7315
   61MOL    H85 8605   0.733   1.780   4.389 -0.5884  0.5530 -0.9066
   61MOL    C86 8606   0.511   1.855   4.593 -0.2250  0.3362  0.0599
   61MOL    C87 8607   0.413   1.734   4.585  0.4112 -0.4620  0.3444
   61MOL    O88 8608   0.482   1.621   4.615 -0.1744 -0.4753  0.1022
   61MOL    H89 8609   0.583   1.844   4.673 -0.8612 -1.4903  0.3862
   61MOL    H90 8610   0.453   1.946   4.612  0.2003  0.4167  0.9856
   61MOL    H91 8611   0.391   1.718   4.479 -0.5262 -2.2298  0.7951
   61MOL    H92 8612   0.564   1.643   4.573 -0.5141 -2.0408 -1.4332
   61MOL    C93 8613   0.300   1.750   4.676  0.1575  0.1681 -0.0748
   61MOL    C94 8614   0.201   1.622   4.685  0.7307  0.0965  0.3970
   61MOL    O95 8615   0.110   1.645   4.793 -0.4667 -0.2922 -0.1956
   61MOL    H96 8616   0.331   1.768   4.779  1.1162 -3.2914  0.3237
   61MOL    H97 8617   0.242   1.836   4.646 -0.7786 -0.2246  0.5794
   61MOL    H98 8618   0.255   1.533   4.718  0.1474 -0.9753 -1.4384
   61MOL    H99 8619   0.155   1.662   4.874 -1.3907 -0.8656  0.4432
   61MOL   C100 8620   0.135   1.584   4.549 -0.5505 -0.5762  0.1559
   61MOL   C101 8621   0.151   1.437   4.520  0.1961 -0.1262 -0.5733
   61MOL   O102 8622   0.032   1.404   4.449  0.7646 -0.0049  0.6632
   61MOL   H103 8623   0.031   1.614   4.557 -0.8502 -1.6355  0.3049
   61MOL   H104 8624   0.167   1.647   4.466 -0.7623 -3.2649 -2.0772
   61MOL   H105 8625   0.149   1.390   4.618  0.8540  3.1718  1.1178
   61MOL   H106 8626   0.035   1.315   4.419  0.7842 -0.5272  2.2015
   61MOL   C107 8627   0.275   1.404   4.426  0.4015  0.5915 -0.4815
   61MOL   C108 8628   0.298   1.251   4.398 -0.0237 -0.1375 -0.0269
   61MOL   O109 8629   0.191   1.206   4.317 -0.0606  0.7915 -0.0388
   61MOL   H110 8630   0.260   1.458   4.332 -3.4509  1.1413  0.3862
   61MOL   H111 8631   0.367   1.450   4.463  1.1479 -1.0447 -0.2863
   61MOL   H112 8632   0.295   1.202   4.495 -0.3970 -0.5188 -0.2316
   61MOL   H113 8633   0.206   1.229   4.226  1.1639  0.9534  0.1957
   61MOL   C114 8634   0.429   1.232   4.324 -0.3497  0.1184 -0.7840
   61MOL   C115 8635   0.463   1.084   4.279  0.3076  0.3990 -0.6858
   61MOL   O116 8636   0.581   1.075   4.206  0.1505 -0.2975  0.4006
   61MOL   H117 8637   0.422   1.299   4.237 -0.3035  0.4876 -0.5051
   61MOL   H118 8638   0.517   1.271   4.375 -1.5579  0.5166  1.0242
   61MOL   H119 8639   0.380   1.054   4.214  1.1337 -0.4562 -1.3637
   61MOL   H120 8640   0.651   1.113   4.257  0.2867  0.2179 -0.1696
   61MOL   C121 8641   0.472   0.989   4.407 -0.5047  0.2385 -0.0637
   61MOL   C122 8642   0.438   0.846   4.379 -0.4404 -0.2185 -0.4175
   61MOL   O123 8643   0.567   0.791   4.349 -0.1128  0.4421 -0.2411
   61MOL   H124 8644   0.563   1.009   4.463 -0.3389  2.4227 -1.0570
   61MOL   H125 8645   0.388   1.016   4.471 -1.3794  2.2157 -1.9793
   61MOL   H126 8646   0.369   0.831   4.296 -0.9157 -0.8236  0.0776
   61MOL   H127 8647   0.621   0.815   4.423 -1.5175 -2.5691  1.8769
   61MOL   C128 8648   0.383   0.767   4.500  0.7650 -0.2667 -0.0220
   61MOL   C129 8649   0.316   0.632   4.456  0.7278  0.1119 -0.0708
   61MOL   O130 8650   0.403   0.558   4.367  0.2039 -0.3097 -0.0115
   61MOL   H131 8651   0.456   0.745   4.578 -0.3167  2.2606  1.7568
   61MOL   H132 8652   0.303   0.828   4.540  2.1168  0.2991  1.8868
   61MOL   H133 8653   0.224   0.659   4.404  0.2829  1.3160  1.3317
   61MOL   H134 8654   0.487   0.600   4.358 -0.5773  1.2266 -0.1672
   61MOL   C135 8655   0.280   0.553   4.579 -0.3017 -0.1745 -0.3468
   61MOL   C136 8656   0.218   0.415   4.561  0.2983  0.2787 -0.9886
   61MOL   O137 8657   0.184   0.371   4.692  0.5439 -0.0866 -0.0631
   61MOL   H138 8658   0.361   0.543   4.651 -2.8586  0.0094  2.6710
   61MOL   H139 8659   0.207   0.617   4.629  1.4528  1.3177  0.3140
   61MOL   H140 8660   0.293   0.343   4.530 -0.0024 -1.2609  1.7447
   61MOL   H141 8661   0.108   0.419   4.720  0.4146  0.6460 -1.5787
   61MOL   H142 8662   0.130   0.401   4.497  2.4461  0.2004 -4.0316
   62MOL     C1 8663   3.414   4.351   6.102  0.4231  0.4178  0.4635
   62MOL     C2 8664   3.357   4.333   5.958 -0.4291  0.0101  0.3014
   62MOL     O3 8665   3.215   4.317   5.949 -0.0083 -0.3573 -0.0754
   62MOL     H4 8666   3.372   4.439   6.151  2.0804 -0.1819  3.0594
   62MOL     H5 8667   3.519   4.379   6.098  0.9461 -1.2548  1.6666
   62MOL     H6 8668   3.397   4.238   5.924 -2.0104 -0.3216 -0.6622
   62MOL     H7 8669   3.198   4.234   5.992 -1.4465 -1.4942 -2.7355
   62MOL     H8 8670   3.402   4.264   6.167 -0.7283 -1.1700 -1.7938
   62MOL     C9 8671   3.400   4.453   5.874 -1.5646  0.7354  0.2376
   62MOL    C10 8672   3.386   4.436   5.723  0.2625  0.0063 -0.6526
   62MOL    O11 8673   3.251   4.430   5.682 -0.2519  0.3104 -0.1733
   62MOL    H12 8674   3.346   4.541   5.908 -1.7586  0.2010  1.3391
   62MOL    H13 8675   3.502   4.476   5.905 -1.6610  1.5857 -0.0832
   62MOL    H14 8676   3.426   4.338   5.697 -0.5196  0.1245 -2.3678
   62MOL    H15 8677   3.205   4.381   5.748 -0.4442 -0.3124 -0.7612
   62MOL    C16 8678   3.460   4.538   5.633  0.3942  0.9493 -0.2834
   62MOL    C17 8679   3.614   4.550   5.646 -0.3203  0.1310 -0.1699
   62MOL    O18 8680   3.671   4.429   5.615  0.3362  0.2173 -0.2125
   62MOL    H19 8681   3.426   4.519   5.531 -0.1195 -0.2325  0.1017
   62MOL    H20 8682   3.419   4.638   5.651 -0.1216  0.3025  2.3264
   62MOL    H21 8683   3.648   4.589   5.742 -0.5960 -1.0101  0.3937
   62MOL    H22 8684   3.762   4.437   5.640  0.3598  1.1116 -0.5794
   62MOL    C23 8685   3.680   4.632   5.531 -0.0587 -1.1898  0.6509
   62MOL    C24 8686   3.647   4.780   5.541 -0.2815 -0.3163  1.0459
   62MOL    O25 8687   3.674   4.846   5.662 -0.2708  0.1478 -0.1489
   62MOL    H26 8688   3.787   4.623   5.552 -0.1808  0.1099  1.9152
   62MOL    H27 8689   3.646   4.590   5.437  0.8526  0.1121 -0.2859
   62MOL    H28 8690   3.540   4.787   5.526  0.2540  1.1002 -2.6034
   62MOL    H29 8691   3.627   4.816   5.739  1.0862 -1.4734  0.0733
   62MOL    C30 8692   3.704   4.862   5.427  0.1983 -0.0283  0.1649
   62MOL    C31 8693   3.621   4.978   5.372 -1.0241 -0.3587  0.2178
   62MOL    O32 8694   3.511   4.922   5.311 -0.3065 -0.4018  0.0703
   62MOL    H33 8695   3.807   4.889   5.452  0.4059 -2.0234  1.6637
   62MOL    H34 8696   3.716   4.791   5.345  0.5439  0.1599  0.0480
   62MOL    H35 8697   3.686   5.033   5.304 -0.8226  0.2749  0.9205
   62MOL    H36 8698   3.446   4.897   5.374  1.7182 -1.3845  1.8668
   62MOL    C37 8699   3.561   5.078   5.470  0.5144 -0.6445  0.5837
   62MOL    C38 8700   3.661   5.153   5.560 -0.1302 -0.1071 -0.3779
   62MOL    O39 8701   3.719   5.272   5.505  0.1323  0.3589 -0.8575
   62MOL    H40 8702   3.522   5.156   5.404 -0.7966 -1.3814  0.4633
   62MOL    H41 8703   3.473   5.043   5.524 -0.5138  1.6708  0.5194
   62MOL    H42 8704   3.739   5.079   5.579  0.6386  0.7731 -0.0649
   62MOL    H43 8705   3.754   5.310   5.584 -0.3527 -4.0507  1.5870
   62MOL    C44 8706   3.593   5.187   5.697 -0.2534  0.5875 -0.1721
   62MOL    C45 8707   3.688   5.220   5.817  0.1995  1.1261 -0.7066
   62MOL    O46 8708   3.743   5.347   5.789 -0.2989 -0.0063 -0.1276
   62MOL    H47 8709   3.511   5.258   5.691 -2.5144 -2.0890 -1.6679
   62MOL    H48 8710   3.538   5.100   5.733 -0.6308  1.0245  0.3201
   62MOL    H49 8711   3.773   5.153   5.807  0.1801  1.0032 -0.0500
   62MOL    H50 8712   3.689   5.423   5.804 -1.4460 -0.6530 -0.9306
   62MOL    C51 8713   3.628   5.213   5.959  0.2034 -0.4146  0.2169
   62MOL    C52 8714   3.715   5.256   6.078 -0.8373  0.4793 -0.2692
   62MOL    O53 8715   3.637   5.264   6.196  0.1916 -0.0404  1.2339
   62MOL    H54 8716   3.539   5.276   5.963 -2.4199 -3.7934 -1.8309
   62MOL    H55 8717   3.595   5.113   5.988 -2.0999  0.3467  0.3590
   62MOL    H56 8718   3.750   5.358   6.060  0.3781  0.2408  0.7102
   62MOL    H57 8719   3.638   5.354   6.225 -1.6821  0.1053  0.8907
   62MOL    C58 8720   3.822   5.149   6.106  0.7288  0.3600  0.2197
   62MOL    C59 8721   3.964   5.211   6.114  0.1139 -0.0568 -0.2967
   62MOL    O60 8722   4.053   5.107   6.132 -0.9350  0.2196 -0.6308
   62MOL    H61 8723   3.806   5.099   6.201 -0.8356 -1.7207 -1.1156
   62MOL    H62 8724   3.821   5.075   6.027  0.4288  0.8665 -0.2501
   62MOL    H63 8725   3.959   5.269   6.207 -2.0250  0.6759 -0.8362
   62MOL    H64 8726   4.037   5.064   6.215 -0.0410 -0.1853 -0.6648
   62MOL    C65 8727   4.008   5.299   5.992  0.3535 -0.8163 -0.1135
   62MOL    C66 8728   4.136   5.388   6.019  0.3379  0.1745  0.8435
   62MOL    O67 8729   4.200   5.450   5.902 -0.5025  0.1174  0.1006
   62MOL    H68 8730   4.022   5.228   5.911 -1.8714 -1.6725  0.2340
   62MOL    H69 8731   3.933   5.366   5.950 -0.0189  0.5672  2.5926
   62MOL    H70 8732   4.214   5.323   6.059  0.2449 -0.9852 -0.8413
   62MOL    H71 8733   4.149   5.525   5.873  1.0846  0.8428 -0.9183
   62MOL    C72 8734   4.118   5.503   6.125  0.5971 -0.1883  0.4648
   62MOL    C73 8735   4.244   5.562   6.179 -0.4578 -0.0998 -0.3803
   62MOL    O74 8736   4.225   5.698   6.225  0.5251  0.5448  0.0848
   62MOL    H75 8737   4.045   5.575   6.089  1.1365 -0.0201 -0.3029
   62MOL    H76 8738   4.059   5.463   6.207 -1.7220 -0.6866 -1.3748
   62MOL    H77 8739   4.315   5.569   6.097 -0.0835 -1.3646 -0.1628
   62MOL    H78 8740   4.173   5.744   6.161 -3.4070  0.3124  2.9008
   62MOL    C79 8741   4.304   5.488   6.297 -0.1416 -0.2356  0.8868
   62MOL    C80 8742   4.209   5.476   6.418  1.1103  0.4474 -0.1601
   62MOL    O81 8743   4.145   5.350   6.419  0.5707 -0.1717  0.4538
   62MOL    H82 8744   4.338   5.395   6.253  1.3730  0.9335 -0.4852
   62MOL    H83 8745   4.395   5.545   6.320  0.3920 -0.8615  0.3273
   62MOL    H84 8746   4.133   5.553   6.424  0.5963 -0.1557  1.4293
   62MOL    H85 8747   4.061   5.354   6.462  0.2324  0.9190 -0.3071
   62MOL    C86 8748   4.286   5.470   6.554  0.4127  0.0875  0.9135
   62MOL    C87 8749   4.322   5.606   6.628  0.3080 -0.0997 -0.7448
   62MOL    O88 8750   4.344   5.579   6.767 -0.0172 -0.0264  0.1120
   62MOL    H89 8751   4.236   5.414   6.632 -1.4757 -0.5805 -0.7421
   62MOL    H90 8752   4.377   5.412   6.539 -1.7327 -2.9760 -0.7642
   62MOL    H91 8753   4.245   5.683   6.619 -0.0461 -0.5786 -1.9364
   62MOL    H92 8754   4.262   5.577   6.813 -0.9900  0.4344 -1.5694
   62MOL    C93 8755   4.453   5.669   6.584  0.3058  0.5887 -0.1826
   62MOL    C94 8756   4.505   5.792   6.657 -0.3290 -0.1325 -0.2404
   62MOL    O95 8757   4.641   5.787   6.639  0.1914  0.1019  0.1517
   62MOL    H96 8758   4.527   5.589   6.590 -1.3482 -1.0345 -0.8568
   62MOL    H97 8759   4.449   5.694   6.478 -1.1191  1.0179 -0.0375
   62MOL    H98 8760   4.485   5.777   6.763 -1.9404 -0.9047 -0.6336
   62MOL    H99 8761   4.680   5.784   6.725 -3.5771  0.6304  1.9485
   62MOL   C100 8762   4.452   5.932   6.613  0.1405  0.0126  0.4776
   62MOL   C101 8763   4.497   6.046   6.704 -0.0101  0.4563 -0.1453
   62MOL   O102 8764   4.621   6.104   6.670 -0.1250 -0.0961  0.0327
   62MOL   H103 8765   4.464   5.957   6.508 -0.1470 -2.2068 -0.0907
   62MOL   H104 8766   4.345   5.921   6.628  0.2427  0.0174  1.2491
   62MOL   H105 8767   4.505   6.008   6.805  0.0002  1.9524  0.4349
   62MOL   H106 8768   4.674   6.034   6.636 -2.0198 -2.7258  2.2713
   62MOL   C107 8769   4.393   6.159   6.692 -0.1954  0.1363 -0.8562
   62MOL   C108 8770   4.399   6.259   6.816  0.1177 -0.0414 -0.3791
   62MOL   O109 8771   4.326   6.374   6.776 -0.1110 -0.0356 -0.0321
   62MOL   H110 8772   4.393   6.214   6.598  0.7082 -0.7484 -1.3738
   62MOL   H111 8773   4.292   6.121   6.702 -0.0613 -0.1335 -0.4887
   62MOL   H112 8774   4.497   6.297   6.845 -1.1500  2.0898  1.2729
   62MOL   H113 8775   4.371   6.452   6.805 -0.3139  0.4039 -0.8462
   62MOL   C114 8776   4.322   6.208   6.945 -0.7016 -0.3897  0.1686
   62MOL   C115 8777   4.309   6.300   7.061 -0.1026  0.1238 -0.9848
   62MOL   O116 8778   4.208   6.246   7.138 -0.6444  0.2059  0.4541
   62MOL   H117 8779   4.226   6.175   6.906 -1.1312 -0.4990  1.2969
   62MOL   H118 8780   4.366   6.112   6.975  0.2942 -0.0324 -0.1340
   62MOL   H119 8781   4.281   6.399   7.026 -0.3096  0.4753  0.1412
   62MOL   H120 8782   4.147   6.318   7.145 -0.9151 -0.0248  0.5179
   62MOL   C121 8783   4.442   6.312   7.144 -0.8079 -0.6800  0.2541
   62MOL   C122 8784   4.446   6.409   7.266 -0.2972 -0.2825  0.1285
   62MOL   O123 8785   4.569   6.380   7.336  0.0613 -0.1446 -0.2917
   62MOL   H124 8786   4.465   6.212   7.179  1.5848 -0.5969 -1.0068
   62MOL   H125 8787   4.526   6.335   7.078 -0.4664  0.9148  1.2100
   62MOL   H126 8788   4.359   6.396   7.330 -0.3550 -2.6139 -0.3816
   62MOL   H127 8789   4.548   6.345   7.421  1.4342 -0.5714 -0.1031
   62MOL   C128 8790   4.457   6.555   7.218 -0.5742 -0.4087  0.1479
   62MOL   C129 8791   4.476   6.658   7.332 -0.2030 -0.0938  0.8759
   62MOL   O130 8792   4.572   6.750   7.286 -0.1094 -0.0883  0.6711
   62MOL   H131 8793   4.534   6.555   7.141 -0.4870 -1.4584  0.2261
   62MOL   H132 8794   4.368   6.588   7.164 -0.2036 -2.1380 -1.5671
   62MOL   H133 8795   4.515   6.600   7.416 -0.8995 -1.3912  0.3282
   62MOL   H134 8796   4.657   6.709   7.279  0.4772  0.7624  2.5128
   62MOL   C135 8797   4.352   6.743   7.385  0.0746 -0.1367  0.3727
   62MOL   C136 8798   4.376   6.810   7.519 -0.3796 -0.8426  0.0241
   62MOL   O137 8799   4.263   6.878   0.052  0.2039  0.0289 -0.0308
   62MOL   H138 8800   4.317   6.814   7.310 -0.9776 -2.3087 -1.2715
   62MOL   H139 8801   4.266   6.678   7.397  0.5644 -0.4073  2.4597
   62MOL   H140 8802   4.457   6.883   7.512 -1.8572  0.7816 -0.8306
   62MOL   H141 8803   4.283   6.902   0.141 -0.6310  1.8993 -0.3210
   62MOL   H142 8804   4.417   6.747   0.078  3.3729 -0.0278 -1.1629
   63MOL     C1 8805   1.028   5.502   0.107 -0.0813  0.1778 -0.0887
   63MOL     C2 8806   0.939   5.430   0.208 -0.3372  0.3140 -0.1079
   63MOL     O3 8807   0.813   5.493   0.218  0.6631  0.2304  0.3662
   63MOL     H4 8808   0.985   5.514   0.007 -1.7601  0.5031  0.6474
   63MOL     H5 8809   1.121   5.446   0.110 -0.0544  0.2380  0.2611
   63MOL     H6 8810   0.980   5.431   0.309  0.5321  0.4394 -0.4612
   63MOL     H7 8811   0.785   5.516   0.130 -1.8131 -1.2669  0.7205
   63MOL     H8 8812   1.059   5.605   0.126  5.5890 -1.3003 -0.5278
   63MOL     C9 8813   0.903   5.291   0.162 -0.1237  0.2576 -0.0064
   63MOL    C10 8814   0.831   5.209   0.266  0.6914 -0.5764  0.1845
   63MOL    O11 8815   0.693   5.250   0.269 -0.0399 -0.2952  0.1159
   63MOL    H12 8816   0.853   5.305   0.066 -1.9904  1.5966  1.1361
   63MOL    H13 8817   0.994   5.233   0.141  0.7499  1.7512 -0.4095
   63MOL    H14 8818   0.880   5.245   0.357  0.4952  1.6110 -0.5270
   63MOL    H15 8819   0.693   5.342   0.250 -1.1847  0.0553  1.7422
   63MOL    C16 8820   0.837   5.060   0.227 -0.5352 -1.4541  0.3904
   63MOL    C17 8821   0.805   4.947   0.335 -0.0042  0.6128  0.1139
   63MOL    O18 8822   0.797   4.823   0.259  0.5803  0.6048  0.4437
   63MOL    H19 8823   0.773   5.054   0.139  1.0053 -0.2465 -0.8629
   63MOL    H20 8824   0.941   5.046   0.196 -0.2251 -0.3384  0.9116
   63MOL    H21 8825   0.707   4.959   0.382  1.2101  1.4169  2.5136
   63MOL    H22 8826   0.705   4.816   0.239 -0.1222  2.6556  2.6841
   63MOL    C23 8827   0.912   4.923   0.445 -0.3373 -0.0360  0.4551
   63MOL    C24 8828   0.856   4.828   0.555 -0.5809 -0.4968 -0.5124
   63MOL    O25 8829   0.966   4.749   0.614  0.4358 -0.4630 -0.2042
   63MOL    H26 8830   1.006   4.885   0.405 -0.5584  1.6596 -1.8212
   63MOL    H27 8831   0.947   5.019   0.482 -1.5586  0.4041  0.4834
   63MOL    H28 8832   0.796   4.750   0.507  0.8713 -1.7450 -0.3424
   63MOL    H29 8833   1.043   4.804   0.614 -0.9431  1.5754 -2.0014
   63MOL    C30 8834   0.773   4.905   0.660  0.0175  0.0992  0.3057
   63MOL    C31 8835   0.699   4.813   0.767 -0.3893 -0.2441  0.4922
   63MOL    O32 8836   0.800   4.740   0.828  0.1022  0.0738  0.2120
   63MOL    H33 8837   0.833   4.976   0.716  0.3291  0.8309 -0.9234
   63MOL    H34 8838   0.697   4.960   0.604  0.4954 -0.6798 -1.1360
   63MOL    H35 8839   0.636   4.753   0.701  0.6449  0.6534 -1.3686
   63MOL    H36 8840   0.864   4.732   0.758 -0.3788 -0.1207 -0.2063
   63MOL    C37 8841   0.610   4.884   0.871  0.4422 -0.1308 -0.5179
   63MOL    C38 8842   0.529   4.801   0.972  0.3802 -0.2518  0.0647
   63MOL    O39 8843   0.460   4.897   1.047  0.3843 -0.1068  0.2562
   63MOL    H40 8844   0.680   4.957   0.913 -1.1041  0.8735  0.3585
   63MOL    H41 8845   0.535   4.936   0.812  0.9834  1.6635  0.3224
   63MOL    H42 8846   0.601   4.747   1.034  0.4325  2.4755  2.4916
   63MOL    H43 8847   0.467   4.987   1.018 -1.5446  0.5323  1.6490
   63MOL    C44 8848   0.440   4.695   0.893  0.3518  0.0461  0.0623
   63MOL    C45 8849   0.343   4.621   0.973  0.0880 -0.3945 -0.7205
   63MOL    O46 8850   0.239   4.580   0.892 -0.6941 -0.7998  0.0221
   63MOL    H47 8851   0.393   4.753   0.814  0.7114  0.7329  0.3475
   63MOL    H48 8852   0.516   4.630   0.849  0.4195 -0.0939  0.3796
   63MOL    H49 8853   0.288   4.700   1.023  0.0033 -0.5785 -0.5186
   63MOL    H50 8854   0.257   4.488   0.882  0.9157 -0.4197 -0.6921
   63MOL    C51 8855   0.395   4.515   1.072  0.1664 -0.1372  0.0980
   63MOL    C52 8856   0.287   4.423   1.133  0.0743  0.5123  0.4177
   63MOL    O53 8857   0.241   4.328   1.038 -0.1881  0.1008 -0.0770
   63MOL    H54 8858   0.459   4.446   1.016  1.2987  2.2980 -1.7151
   63MOL    H55 8859   0.464   4.557   1.145  0.6684  1.3349 -1.1867
   63MOL    H56 8860   0.200   4.482   1.163 -0.0296  1.3713 -1.4968
   63MOL    H57 8861   0.310   4.290   0.985 -0.3615  2.2300 -1.8980
   63MOL    C58 8862   0.331   4.341   1.256 -0.1164  0.5425 -0.8409
   63MOL    C59 8863   0.353   4.431   1.381  0.2373  0.7930  0.1404
   63MOL    O60 8864   0.249   4.526   1.394 -0.1998  0.5021  0.2035
   63MOL    H61 8865   0.256   4.263   1.261  0.6220 -0.1568 -0.5405
   63MOL    H62 8866   0.421   4.288   1.222 -1.3696  0.0120 -3.4593
   63MOL    H63 8867   0.443   4.493   1.372  0.9426 -0.3090 -0.3960
   63MOL    H64 8868   0.266   4.600   1.338 -2.3868  0.0174 -1.1599
   63MOL    C65 8869   0.376   4.356   1.513  0.2873 -0.2384 -0.5441
   63MOL    C66 8870   0.500   4.261   1.519  0.0281  0.3170  0.4812
   63MOL    O67 8871   0.611   4.346   1.527 -0.0003 -0.1552  0.4606
   63MOL    H68 8872   0.395   4.428   1.592 -0.7201  0.4322 -0.8963
   63MOL    H69 8873   0.277   4.317   1.538  0.0054  0.8120  0.0003
   63MOL    H70 8874   0.510   4.212   1.422  2.0818  0.7722  0.4328
   63MOL    H71 8875   0.685   4.290   1.509 -0.4203 -0.1072 -1.5756
   63MOL    C72 8876   0.502   4.171   1.639 -0.2150 -0.0664 -0.6487
   63MOL    C73 8877   0.388   4.058   1.643  0.0710 -0.0472  0.0138
   63MOL    O74 8878   0.440   3.944   1.580 -0.0087 -0.0872 -0.8350
   63MOL    H75 8879   0.602   4.128   1.645 -0.1849  0.1088  0.2014
   63MOL    H76 8880   0.489   4.230   1.729  0.0325 -1.0782  0.0612
   63MOL    H77 8881   0.306   4.093   1.580 -0.5719 -0.6564  0.5094
   63MOL    H78 8882   0.520   3.921   1.625  0.1229 -0.2648 -1.1601
   63MOL    C79 8883   0.332   4.032   1.784 -0.3848 -0.7633  0.2698
   63MOL    C80 8884   0.218   3.933   1.786 -0.5192  0.1977  0.6972
   63MOL    O81 8885   0.227   3.839   1.889 -0.4873 -0.3053 -1.2406
   63MOL    H82 8886   0.416   3.984   1.834 -1.2301 -1.2809  1.2132
   63MOL    H83 8887   0.303   4.122   1.838 -2.1194 -1.6745  0.8668
   63MOL    H84 8888   0.232   3.869   1.699 -0.7363  0.7940  0.2196
   63MOL    H85 8889   0.160   3.773   1.881  0.3859 -1.5527  1.2749
   63MOL    C86 8890   0.070   3.993   1.790 -0.0724 -0.9059 -0.0142
   63MOL    C87 8891   7.475   3.895   1.782 -0.0125 -0.4809  0.7168
   63MOL    O88 8892   7.490   3.811   1.888  0.2432  0.1560 -0.1037
   63MOL    H89 8893   0.071   4.067   1.870 -0.1385 -1.3833  0.4294
   63MOL    H90 8894   0.064   4.055   1.701 -1.1888 -0.9417  0.0277
   63MOL    H91 8895   7.476   3.842   1.687 -1.0231 -0.3859  0.6456
   63MOL    H92 8896   7.502   3.860   1.968  3.0703  3.2410 -2.2800
   63MOL    C93 8897   7.338   3.957   1.789  0.7033  0.3420  0.1455
   63MOL    C94 8898   7.297   4.044   1.674 -0.0432 -0.1738 -0.5168
   63MOL    O95 8899   7.306   3.969   1.543  0.1582 -0.2727  0.0433
   63MOL    H96 8900   7.266   3.876   1.785 -0.5847  1.2642  3.1632
   63MOL    H97 8901   7.309   4.015   1.877  1.2939  0.0470  0.5421
   63MOL    H98 8902   7.365   4.127   1.658 -0.3988  0.2938  0.3631
   63MOL    H99 8903   7.238   3.904   1.536 -0.8488  0.4630  2.4567
   63MOL   C100 8904   7.152   4.109   1.685  0.3299  0.5167  0.4306
   63MOL   C101 8905   7.123   4.216   1.798 -0.0494  0.0878  0.2144
   63MOL   O102 8906   7.223   4.310   1.812  0.1094 -0.6928  0.4719
   63MOL   H103 8907   7.132   4.159   1.591  1.3393  0.6126  0.2534
   63MOL   H104 8908   7.074   4.033   1.688 -0.7851  1.6471 -0.1369
   63MOL   H105 8909   7.113   4.160   1.891  0.3804  0.8862  0.7440
   63MOL   H106 8910   7.206   4.360   1.733 -1.3425  0.5649  1.5729
   63MOL   C107 8911   6.993   4.292   1.779  0.4325  0.3452  0.7657
   63MOL   C108 8912   6.959   4.398   1.893  0.2681  0.0795 -0.3549
   63MOL   O109 8913   6.904   4.506   1.822 -0.0972  0.2177  1.3335
   63MOL   H110 8914   7.006   4.342   1.683 -0.9881  1.0033  0.9101
   63MOL   H111 8915   6.906   4.229   1.761  1.3997 -1.0870  0.9880
   63MOL   H112 8916   7.045   4.440   1.945  0.0669  1.2785 -0.9721
   63MOL   H113 8917   6.970   4.574   1.826  1.5282 -1.3024  1.3918
   63MOL   C114 8918   6.868   4.336   2.004  0.2528 -0.5160  0.1715
   63MOL   C115 8919   6.846   4.427   2.121  0.0412 -0.3231 -0.5981
   63MOL   O116 8920   6.962   4.446   2.200  0.0226 -0.7382  0.0105
   63MOL   H117 8921   6.772   4.302   1.965 -0.1531  0.7526  0.0283
   63MOL   H118 8922   6.916   4.244   2.035  1.4249 -0.0779 -0.3275
   63MOL   H119 8923   6.771   4.383   2.186  1.0818 -2.1870 -0.5953
   63MOL   H120 8924   7.001   4.362   2.220 -0.8610 -1.2183 -0.2226
   63MOL   C121 8925   6.773   4.556   2.084 -0.7764 -0.4223 -0.1783
   63MOL   C122 8926   6.642   4.551   2.018  0.6725  0.2430 -0.0059
   63MOL   O123 8927   6.546   4.488   2.100 -0.2004  0.4976 -0.2850
   63MOL   H124 8928   6.753   4.588   2.186  0.9307 -0.8485  0.3084
   63MOL   H125 8929   6.852   4.616   2.038 -1.4434 -0.7515 -1.7885
   63MOL   H126 8930   6.644   4.501   1.921 -2.1149  3.3864 -1.8212
   63MOL   H127 8931   6.538   4.542   2.176  1.0253  0.1716  0.0805
   63MOL   C128 8932   6.593   4.698   1.994  0.2125 -0.2097  0.2503
   63MOL   C129 8933   6.676   4.765   1.881 -0.1132  0.0403  0.2726
   63MOL   O130 8934   6.612   4.737   1.759  0.4906  0.3316 -0.2156
   63MOL   H131 8935   6.489   4.698   1.963  0.1386 -1.8764  0.4485
   63MOL   H132 8936   6.600   4.746   2.092  0.0558  0.7021 -0.1754
   63MOL   H133 8937   6.776   4.721   1.883  0.5452  1.5195  0.3745
   63MOL   H134 8938   6.636   4.651   1.728 -2.9920 -0.8795  0.1966
   63MOL   C135 8939   6.684   4.913   1.880  0.2038  0.7138 -0.3453
   63MOL   C136 8940   6.779   4.969   1.993 -0.2107 -0.4411 -0.0983
   63MOL   O137 8941   6.787   5.114   1.991 -0.1608 -0.0885  0.1259
   63MOL   H138 8942   6.727   4.935   1.782  0.1305  1.5809 -0.1919
   63MOL   H139 8943   6.590   4.967   1.888 -1.0514 -1.6704  1.4603
   63MOL   H140 8944   6.878   4.924   1.987 -0.6236 -1.6740  1.9723
   63MOL   H141 8945   6.833   5.149   1.917  0.3674 -2.6405 -0.8042
   63MOL   H142 8946   6.747   4.933   2.091 -2.7067  1.2759 -0.2152
   64MOL     C1 8947   5.430   3.027   7.163 -0.0689 -0.6366 -0.4498
   64MOL     C2 8948   5.485   3.172   7.195  0.4159  0.1394 -0.4644
   64MOL     O3 8949   5.622   3.152   7.228 -0.1715  0.3036 -0.2964
   64MOL     H4 8950   5.447   2.953   7.242  1.7113 -2.4153 -2.4290
   64MOL     H5 8951   5.484   2.981   7.080  0.0489 -1.3603  0.0221
   64MOL     H6 8952   5.419   3.215   7.271 -1.5300 -0.7583 -1.6092
   64MOL     H7 8953   5.664   3.113   7.153  2.4460  0.6117  0.9501
   64MOL     H8 8954   5.323   3.017   7.146 -0.0806 -0.5707 -0.4098
   64MOL     C9 8955   5.480   3.267   7.074 -0.0863 -0.2787 -0.4281
   64MOL    C10 8956   5.334   3.317   7.045 -0.3331  0.0221 -0.3694
   64MOL    O11 8957   5.294   3.413   7.134 -0.5057 -0.7118  0.1096
   64MOL    H12 8958   5.543   3.355   7.087 -0.3914 -0.0062 -0.7846
   64MOL    H13 8959   5.523   3.211   6.990 -0.2955 -2.8385  1.1161
   64MOL    H14 8960   5.264   3.234   7.041  0.9277 -1.1057  0.5339
   64MOL    H15 8961   5.358   3.478   7.111  0.4318 -1.2083  1.2453
   64MOL    C16 8962   5.333   3.380   6.904 -0.8192 -1.1913 -0.2671
   64MOL    C17 8963   5.346   3.292   6.786 -0.0884 -0.9563  0.2765
   64MOL    O18 8964   5.216   3.236   6.764 -0.1545  0.0241  0.3271
   64MOL    H19 8965   5.242   3.437   6.886 -0.1894 -0.4274 -1.0995
   64MOL    H20 8966   5.406   3.462   6.901 -0.2701 -1.6186  1.0444
   64MOL    H21 8967   5.407   3.203   6.804  2.2930  0.1445 -1.9658
   64MOL    H22 8968   5.150   3.300   6.786 -0.4662  0.5712 -2.0771
   64MOL    C23 8969   5.400   3.368   6.667 -0.0456  0.2986  0.8450
   64MOL    C24 8970   5.550   3.398   6.682  0.2274  0.2156 -0.5360
   64MOL    O25 8971   5.606   3.323   6.575 -0.1992 -0.1026  0.3159
   64MOL    H26 8972   5.377   3.307   6.580 -0.0687  0.1714  0.9404
   64MOL    H27 8973   5.352   3.463   6.644  0.4874  0.3541 -0.0627
   64MOL    H28 8974   5.585   3.358   6.778  2.4434  1.7082 -0.6932
   64MOL    H29 8975   5.597   3.229   6.586  0.7647 -0.3398 -0.7950
   64MOL    C30 8976   5.605   3.539   6.645 -0.2916 -0.2942  0.3674
   64MOL    C31 8977   5.564   3.646   6.744  0.3267  0.4109 -0.0185
   64MOL    O32 8978   5.640   3.632   6.862 -0.5380 -0.2870  0.7399
   64MOL    H33 8979   5.713   3.532   6.635 -0.2953  0.5843 -0.3190
   64MOL    H34 8980   5.583   3.568   6.542  0.2428 -0.6354  0.1593
   64MOL    H35 8981   5.462   3.623   6.774  0.4349  0.2514  0.2330
   64MOL    H36 8982   5.730   3.637   6.833 -0.7313 -1.7047 -0.1404
   64MOL    C37 8983   5.580   3.798   6.696 -0.3596 -0.0092  0.1332
   64MOL    C38 8984   5.564   3.901   6.813 -0.0828 -0.1425  0.4504
   64MOL    O39 8985   5.587   4.024   6.751  0.5873 -0.0564  0.2774
   64MOL    H40 8986   5.673   3.811   6.641  0.5321 -1.2178  1.3268
   64MOL    H41 8987   5.502   3.810   6.621 -0.6951  0.9267  0.6170
   64MOL    H42 8988   5.643   3.875   6.883  0.4343  1.5353  0.5113
   64MOL    H43 8989   5.574   4.096   6.811  0.5064 -0.4870  0.7839
   64MOL    C44 8990   5.431   3.929   6.889 -0.0113 -0.2277  0.2918
   64MOL    C45 8991   5.459   4.021   7.009 -0.2720  0.4179  0.2408
   64MOL    O46 8992   5.489   4.157   6.972  0.0996  1.0394 -0.3330
   64MOL    H47 8993   5.359   3.970   6.818 -0.0048  2.2079  1.6278
   64MOL    H48 8994   5.392   3.836   6.931  0.0899  0.4487  1.9250
   64MOL    H49 8995   5.544   3.985   7.067 -0.7107 -0.0567  0.5944
   64MOL    H50 8996   5.469   4.207   7.049 -2.6819  0.0327 -0.3378
   64MOL    C51 8997   5.339   4.021   7.107  0.0449  0.0203 -0.0406
   64MOL    C52 8998   5.378   4.101   7.236  0.8064 -0.3032  0.7802
   64MOL    O53 8999   5.383   4.244   7.219 -0.2090 -0.1126  0.4482
   64MOL    H54 9000   5.251   4.057   7.055 -0.0460  0.2107  0.2413
   64MOL    H55 9001   5.339   3.916   7.136  1.7730 -0.5547 -2.0530
   64MOL    H56 9002   5.476   4.073   7.275 -0.1192 -2.8771  1.3291
   64MOL    H57 9003   5.414   4.283   7.300  1.6168  1.3668 -0.9270
   64MOL    C58 9004   5.302   4.067   7.363 -0.1476 -0.0442  0.1596
   64MOL    C59 9005   5.180   3.969   7.352 -0.2917  0.0026  0.5215
   64MOL    O60 9006   5.149   3.922   7.481 -0.1733 -0.7692  0.0974
   64MOL    H61 9007   5.370   4.036   7.443  1.3280  0.9407 -0.6766
   64MOL    H62 9008   5.278   4.160   7.414  0.5120  1.3454 -2.0230
   64MOL    H63 9009   5.210   3.883   7.292 -0.4627 -0.9993  1.8638
   64MOL    H64 9010   5.104   3.996   7.517  0.8148 -0.7457  1.3257
   64MOL    C65 9011   5.060   4.038   7.292  0.0806  0.4560 -0.8568
   64MOL    C66 9012   4.937   3.952   7.269  0.5028 -0.1998  0.3470
   64MOL    O67 9013   4.841   4.039   7.210  0.1435 -0.4257  0.2898
   64MOL    H68 9014   5.044   4.138   7.333  3.3331  0.3189  0.8842
   64MOL    H69 9015   5.100   4.074   7.197 -0.9787  1.2046 -1.0367
   64MOL    H70 9016   4.887   3.937   7.365 -0.7677  2.0572  0.0649
   64MOL    H71 9017   4.787   4.085   7.272  0.9050  1.1228 -0.1689
   64MOL    C72 9018   4.958   3.823   7.193 -0.4072  0.0859  0.1607
   64MOL    C73 9019   4.991   3.696   7.284  0.4307 -0.1328 -0.2710
   64MOL    O74 9020   4.897   3.688   7.386 -1.1490 -0.0755 -0.1681
   64MOL    H75 9021   4.869   3.798   7.134 -0.0032 -1.9166  0.3744
   64MOL    H76 9022   5.032   3.830   7.113  0.0854  1.0896  0.7058
   64MOL    H77 9023   5.084   3.720   7.336  1.3316 -1.4900 -1.2382
   64MOL    H78 9024   4.836   3.617   7.374  1.0764 -1.8080 -1.6856
   64MOL    C79 9025   4.998   3.562   7.218 -0.1400  0.5333  0.3299
   64MOL    C80 9026   5.008   3.439   7.318  0.5661 -0.3343  0.5754
   64MOL    O81 9027   5.045   3.338   7.234 -0.4144  0.7478  0.1678
   64MOL    H82 9028   4.913   3.536   7.154  0.2660  1.7618 -0.7197
   64MOL    H83 9029   5.090   3.564   7.160  1.2598 -1.5922  2.3856
   64MOL    H84 9030   4.912   3.414   7.363  0.3926  3.5626  2.6318
   64MOL    H85 9031   5.135   3.358   7.213 -0.6855  0.0714 -1.7634
   64MOL    C86 9032   5.108   3.431   7.431 -0.7902 -0.3572  0.3927
   64MOL    C87 9033   5.115   3.321   0.012  0.7689 -0.0478 -0.2067
   64MOL    O88 9034   5.224   3.346   0.090  0.0346  0.1536  0.1529
   64MOL    H89 9035   5.208   3.441   7.389 -0.8262 -1.1050  0.1102
   64MOL    H90 9036   5.093   3.524   7.484  0.9229  1.2668 -1.8528
   64MOL    H91 9037   5.147   3.228   7.483  2.1081  0.2330  0.0965
   64MOL    H92 9038   5.224   3.273   0.150 -0.0280 -0.3120 -0.4112
   64MOL    C93 9039   4.992   3.303   0.110  0.2850  0.0582  0.0622
   64MOL    C94 9040   4.892   3.199   0.059  0.0676  0.0312  0.3743
   64MOL    O95 9041   4.947   3.069   0.079 -0.0319 -0.0202 -0.5361
   64MOL    H96 9042   5.020   3.286   0.214  3.8557 -0.3853 -0.9044
   64MOL    H97 9043   4.938   3.397   0.114  0.9390  0.4588 -0.3619
   64MOL    H98 9044   4.875   3.222   7.473 -0.1276  0.8659  0.5824
   64MOL    H99 9045   4.873   3.012   0.068 -0.5836  0.5727  0.0797
   64MOL   C100 9046   4.749   3.203   0.122 -0.2283 -0.3994 -0.0029
   64MOL   C101 9047   4.660   3.325   0.074 -0.1998 -0.7865 -0.0809
   64MOL   O102 9048   4.569   3.279   7.491  0.1580 -0.4919  0.0238
   64MOL   H103 9049   4.698   3.108   0.105 -0.6213 -0.4742  1.4757
   64MOL   H104 9050   4.752   3.204   0.231  2.5008 -2.3657  0.0177
   64MOL   H105 9051   4.725   3.404   0.034 -0.8965  0.9265  2.0544
   64MOL   H106 9052   4.514   3.211   0.005  0.0932 -0.6019 -0.3035
   64MOL   C107 9053   4.566   3.383   0.192 -0.0636 -0.5162  0.1811
   64MOL   C108 9054   4.620   3.491   0.287  0.5936 -0.1813 -0.1242
   64MOL   O109 9055   4.519   3.561   0.357 -0.3855  0.3784  0.4156
   64MOL   H110 9056   4.486   3.437   0.140  0.2821 -0.0692  0.1100
   64MOL   H111 9057   4.513   3.310   0.253  0.3949 -0.1851  0.9762
   64MOL   H112 9058   4.652   3.566   0.214 -2.3409 -0.5256 -1.8217
   64MOL   H113 9059   4.483   3.628   0.300 -2.7867 -1.4143 -0.2136
   64MOL   C114 9060   4.741   3.463   0.382  0.5698 -0.1911 -0.2811
   64MOL   C115 9061   4.712   3.353   0.494  0.2465  0.3744 -0.4598
   64MOL   O116 9062   4.829   3.269   0.500 -0.3263 -0.2196  0.4068
   64MOL   H117 9063   4.826   3.432   0.321 -0.1250  0.4965 -1.6204
   64MOL   H118 9064   4.766   3.560   0.427 -1.9264  0.8546 -1.0773
   64MOL   H119 9065   4.620   3.306   0.457 -1.1541  2.0212  0.8530
   64MOL   H120 9066   4.803   3.183   0.529 -1.6939  0.9974  2.9588
   64MOL   C121 9067   4.697   3.410   0.638 -0.1674 -0.0302 -0.7739
   64MOL   C122 9068   4.564   3.484   0.669 -0.1824 -0.0812  0.4601
   64MOL   O123 9069   4.458   3.391   0.678 -0.8392  0.2246  0.3009
   64MOL   H124 9070   4.714   3.352   0.729 -0.2968  1.3293  0.1334
   64MOL   H125 9071   4.784   3.474   0.649  0.4092 -0.8928 -0.2284
   64MOL   H126 9072   4.549   3.564   0.595  1.6787  1.6811  1.9391
   64MOL   H127 9073   4.476   3.328   0.746  0.7632  1.5181  1.1175
   64MOL   C128 9074   4.583   3.559   0.809 -1.4201  0.5217  0.5186
   64MOL   C129 9075   4.501   3.686   0.832 -0.0206 -0.2122  0.6047
   64MOL   O130 9076   4.501   3.682   0.972 -0.2982 -0.0491 -0.3269
   64MOL   H131 9077   4.558   3.477   0.875  0.9547 -1.5958 -1.1173
   64MOL   H132 9078   4.688   3.583   0.822 -1.8798  1.8381  1.8750
   64MOL   H133 9079   4.400   3.663   0.799  0.7848 -2.1962 -0.5854
   64MOL   H134 9080   4.590   3.695   1.000 -1.0673  0.0311  2.2545
   64MOL   C135 9081   4.564   3.823   0.794  0.9591 -0.0628 -0.2286
   64MOL   C136 9082   4.543   3.847   0.650  0.8253  0.2244  0.1856
   64MOL   O137 9083   4.586   3.972   0.608 -0.3322  0.0129 -0.1251
   64MOL   H138 9084   4.524   3.904   0.854  0.8368 -0.8136  0.7019
   64MOL   H139 9085   4.671   3.829   0.817  0.6301  3.1607  0.6790
   64MOL   H140 9086   4.439   3.826   0.625  1.0794  0.6753 -1.2626
   64MOL   H141 9087   4.588   3.966   0.514 -2.5460  1.1846 -0.2756
   64MOL   H142 9088   4.601   3.777   0.589  1.9489  2.3261 -1.1847
   65MOL     C1 9089   0.851   0.458   3.413  0.5239  0.4285 -0.6457
   65MOL     C2 9090   0.772   0.491   3.285 -0.2950 -0.0341 -0.4417
   65MOL     O3 9091   0.665   0.578   3.310  0.2768 -0.2810  0.8353
   65MOL     H4 9092   0.900   0.362   3.400  0.9688  0.6359 -0.5266
   65MOL     H5 9093   0.790   0.461   3.503 -1.1495  0.6393 -1.7627
   65MOL     H6 9094   0.723   0.399   3.255 -0.9988 -0.4399  1.8039
   65MOL     H7 9095   0.598   0.555   3.247 -0.0369  1.6326  0.4366
   65MOL     H8 9096   0.931   0.533   3.416  0.0849  0.9383 -1.3362
   65MOL     C9 9097   0.857   0.539   3.166 -0.2125 -0.2921  0.2600
   65MOL    C10 9098   0.915   0.421   3.085 -0.2383  1.0870 -0.0875
   65MOL    O11 9099   0.814   0.363   3.006  0.3569 -0.0038  0.9839
   65MOL    H12 9100   0.784   0.583   3.098  0.8480 -0.4013 -0.9780
   65MOL    H13 9101   0.929   0.615   3.195 -1.0584 -0.3443  2.6126
   65MOL    H14 9102   0.945   0.338   3.149 -2.2217 -0.8187 -1.5721
   65MOL    H15 9103   0.852   0.299   2.948 -1.2594 -1.3890  1.3980
   65MOL    C16 9104   1.032   0.458   2.996  0.1566  0.1933  0.0222
   65MOL    C17 9105   1.099   0.337   2.937  0.1721  0.0924  0.3207
   65MOL    O18 9106   1.016   0.284   2.838 -0.2794  0.2718 -0.9740
   65MOL    H19 9107   1.004   0.544   2.934 -1.6937 -0.1017  0.3977
   65MOL    H20 9108   1.108   0.508   3.057  0.1860  0.4116 -0.1952
   65MOL    H21 9109   1.139   0.267   3.010 -1.7801 -0.4141  0.9459
   65MOL    H22 9110   1.041   0.195   2.820 -1.1689 -0.5048  1.4339
   65MOL    C23 9111   1.221   0.384   2.857  0.1265 -0.8235  0.5467
   65MOL    C24 9112   1.351   0.405   2.944  1.0077 -0.2936 -0.0940
   65MOL    O25 9113   1.459   0.337   2.886 -0.7566 -0.0106 -0.3180
   65MOL    H26 9114   1.243   0.307   2.784  1.8155  1.2654 -1.2320
   65MOL    H27 9115   1.215   0.473   2.794  1.0237 -0.7635  0.5416
   65MOL    H28 9116   1.332   0.365   3.043 -1.5930  0.5557 -0.1865
   65MOL    H29 9117   1.537   0.369   2.931  0.5714 -0.2416 -2.3815
   65MOL    C30 9118   1.385   0.560   2.958  0.1642  0.7738  0.2073
   65MOL    C31 9119   1.444   0.596   3.093 -0.8474 -0.2628 -0.7171
   65MOL    O32 9120   1.573   0.521   3.097  0.3780 -0.4092  0.0976
   65MOL    H33 9121   1.444   0.610   2.881 -3.2465  2.3678 -1.4950
   65MOL    H34 9122   1.287   0.607   2.949 -0.9419 -1.8391 -1.9682
   65MOL    H35 9123   1.389   0.547   3.173  1.8834 -1.2533  0.6123
   65MOL    H36 9124   1.608   0.509   3.184  0.5167 -1.2468 -0.0706
   65MOL    C37 9125   1.451   0.753   3.108  0.1055  0.1761  0.5643
   65MOL    C38 9126   1.471   0.784   3.252  0.6363 -0.8210  0.4677
   65MOL    O39 9127   1.550   0.903   3.272 -0.1998 -0.0052 -0.1056
   65MOL    H40 9128   1.533   0.788   3.045 -0.2699  1.8638  0.9990
   65MOL    H41 9129   1.361   0.802   3.073  1.1415  0.2079 -2.1832
   65MOL    H42 9130   1.531   0.708   3.302 -0.3301 -2.6258 -1.0362
   65MOL    H43 9131   1.495   0.977   3.249  0.1507  0.0491 -0.7776
   65MOL    C44 9132   1.346   0.815   3.339 -0.1576  0.2221 -0.1825
   65MOL    C45 9133   1.243   0.705   3.366 -0.7245  0.4706 -0.4440
   65MOL    O46 9134   1.185   0.671   3.242  0.0247 -0.2271  0.2927
   65MOL    H47 9135   1.367   0.860   3.436  0.4069  0.4393 -0.4036
   65MOL    H48 9136   1.288   0.888   3.282 -1.2212 -0.6354 -0.2265
   65MOL    H49 9137   1.158   0.737   3.427 -1.9636 -0.9872 -1.3695
   65MOL    H50 9138   1.117   0.734   3.228  0.4418  0.3545  0.8113
   65MOL    C51 9139   1.309   0.591   3.437  0.1372  0.1216 -0.4518
   65MOL    C52 9140   1.212   0.479   3.480  0.1604  0.3415 -0.1848
   65MOL    O53 9141   1.181   0.403   3.362  0.2768  0.6976  0.1656
   65MOL    H54 9142   1.375   0.544   3.364  0.3329 -0.7501  0.2706
   65MOL    H55 9143   1.367   0.635   3.518  1.0167 -3.8757  1.1984
   65MOL    H56 9144   1.122   0.523   3.522  0.6683  1.5045 -0.3008
   65MOL    H57 9145   1.162   0.468   3.295 -0.1875 -1.0082 -1.4209
   65MOL    C58 9146   1.286   0.398   3.583  0.0349  0.6822 -0.2142
   65MOL    C59 9147   1.206   0.281   3.638 -0.1754  0.8688  0.6075
   65MOL    O60 9148   1.295   0.190   3.709 -0.1652  0.1476 -0.1211
   65MOL    H61 9149   1.379   0.369   3.534  0.8066 -1.1010  2.1589
   65MOL    H62 9150   1.318   0.464   3.664 -0.5614 -0.9300  1.3629
   65MOL    H63 9151   1.158   0.223   3.560  1.3971  1.0650 -0.5171
   65MOL    H64 9152   1.373   0.243   3.719 -0.1944  0.1143  0.2735
   65MOL    C65 9153   1.100   0.303   3.741 -0.3837  0.0975 -0.4871
   65MOL    C66 9154   0.970   0.217   3.730 -0.0818  0.6164  0.4619
   65MOL    O67 9155   0.996   0.076   3.736 -0.0790 -0.1098  0.1951
   65MOL    H68 9156   1.144   0.284   3.839  2.2133 -1.2733 -1.8646
   65MOL    H69 9157   1.086   0.410   3.732 -0.6669  0.1995  0.9273
   65MOL    H70 9158   0.920   0.230   3.634 -0.0519  0.8533  0.4777
   65MOL    H71 9159   1.044   0.062   3.816 -0.4959 -2.2873  0.0920
   65MOL    C72 9160   0.859   0.265   3.841 -0.2149 -0.1505  0.0648
   65MOL    C73 9161   0.727   0.183   3.851  0.2911 -0.0175 -0.3074
   65MOL    O74 9162   0.664   0.231   3.973  0.3900 -0.3322  0.2135
   65MOL    H75 9163   0.904   0.268   3.940 -1.9319 -4.5337  1.0873
   65MOL    H76 9164   0.822   0.361   3.806  0.6517  0.4872  0.8666
   65MOL    H77 9165   0.751   0.077   3.865 -0.2213 -0.2077 -0.8520
   65MOL    H78 9166   0.634   0.152   4.015 -0.5625 -0.8520 -1.3703
   65MOL    C79 9167   0.634   0.201   3.730 -0.2460  0.8424  0.2258
   65MOL    C80 9168   0.498   0.124   3.746 -0.4574  0.4472  0.2773
   65MOL    O81 9169   0.386   0.211   3.723  0.7215  0.3489  0.0845
   65MOL    H82 9170   0.615   0.308   3.736  0.2274  1.0395 -1.6292
   65MOL    H83 9171   0.678   0.182   3.632 -0.3851  0.0339  0.3180
   65MOL    H84 9172   0.490   0.106   3.853  0.8975 -2.3007 -0.0459
   65MOL    H85 9173   0.403   0.285   3.779 -0.4687  1.5135 -1.0574
   65MOL    C86 9174   0.467   0.003   3.659 -0.3916  0.6040  0.6714
   65MOL    C87 9175   0.568   7.406   3.674  0.5683 -0.0178  0.0474
   65MOL    O88 9176   0.509   7.282   3.667 -1.0103 -0.3734 -0.5331
   65MOL    H89 9177   0.371   7.493   3.702 -0.2962 -0.0101  0.4596
   65MOL    H90 9178   0.452   0.038   3.557 -0.1721  1.4876  0.9403
   65MOL    H91 9179   0.601   7.413   3.778  0.1108  1.5297  0.0928
   65MOL    H92 9180   0.577   7.222   3.639  0.5347  0.4400  1.3525
   65MOL    C93 9181   0.678   7.427   3.571 -0.2329  1.2422  0.2237
   65MOL    C94 9182   0.806   7.333   3.601 -0.4104 -0.7944  0.0994
   65MOL    O95 9183   0.760   7.203   3.599  0.4887  0.0954  0.6636
   65MOL    H96 9184   0.639   7.408   3.471  1.1103 -1.0306  0.1076
   65MOL    H97 9185   0.721   0.008   3.573 -1.6946  1.9014 -0.3689
   65MOL    H98 9186   0.855   7.357   3.695 -0.4179 -1.9512  0.4098
   65MOL    H99 9187   0.832   7.144   3.586  0.5974  0.3421  0.1378
   65MOL   C100 9188   0.914   7.354   3.497 -0.5640 -0.5170  0.1774
   65MOL   C101 9189   1.049   7.291   3.547 -0.1697 -0.1781  0.1109
   65MOL   O102 9190   1.031   7.146   3.554 -0.5884  0.2565 -0.2328
   65MOL   H103 9191   0.886   7.312   3.401 -1.1682 -0.5409  0.3576
   65MOL   H104 9192   0.931   7.460   3.481 -0.7018 -0.2759  1.5771
   65MOL   H105 9193   1.075   7.314   3.650  0.0194  0.8756 -0.1617
   65MOL   H106 9194   1.033   7.113   3.466  0.9927  0.3592 -0.2617
   65MOL   C107 9195   1.168   7.325   3.454  0.3854 -0.0109 -0.0110
   65MOL   C108 9196   1.220   7.458   3.493 -0.2156 -0.6469  0.5287
   65MOL   O109 9197   1.280   7.443   3.616  0.6265  0.3077  0.2662
   65MOL   H110 9198   1.241   7.245   3.468  1.3378  0.9432  0.5574
   65MOL   H111 9199   1.121   7.310   3.357 -1.1625 -0.4961  0.8014
   65MOL   H112 9200   1.137   0.009   3.486  0.4536  0.0435 -0.5790
   65MOL   H113 9201   1.266   0.005   3.662 -0.7854  0.0834  0.2546
   65MOL   C114 9202   1.332   7.512   3.395  0.1303  0.4377  0.3467
   65MOL   C115 9203   1.285   0.022   3.253 -0.2248 -0.1447  0.1599
   65MOL   O116 9204   1.181   0.121   3.270 -0.0730 -0.5441 -0.0963
   65MOL   H117 9205   1.368   0.089   3.430 -0.1318  0.9481 -0.7822
   65MOL   H118 9206   1.413   7.439   3.395  1.0351  1.4428  0.7630
   65MOL   H119 9207   1.240   7.453   3.206 -0.5933 -0.9058  1.9116
   65MOL   H120 9208   1.210   0.203   3.307  0.0483  0.9258 -3.2663
   65MOL   C121 9209   1.394   0.079   3.155 -0.2676 -0.7274 -0.1420
   65MOL   C122 9210   1.513   7.502   3.137  0.0252  0.2393  0.1861
   65MOL   O123 9211   1.462   7.383   3.076 -0.1543 -0.1070 -0.0895
   65MOL   H124 9212   1.347   0.106   3.061 -0.3628 -1.3887 -0.2845
   65MOL   H125 9213   1.436   0.170   3.199  0.1465 -0.2169 -1.5520
   65MOL   H126 9214   1.559   7.471   3.230 -0.9472  0.6068  0.7985
   65MOL   H127 9215   1.536   7.326   3.071 -1.3021 -1.4362 -3.2226
   65MOL   C128 9216   1.619   0.030   3.037 -0.4443 -0.1028 -0.2937
   65MOL   C129 9217   1.704   0.148   3.079 -0.3316 -0.1936 -0.2556
   65MOL   O130 9218   1.802   0.111   3.179 -0.1964 -0.2954 -0.1504
   65MOL   H131 9219   1.687   7.465   3.023 -1.4739 -1.1116  0.6408
   65MOL   H132 9220   1.578   0.055   2.940 -0.4703  0.3735 -0.1615
   65MOL   H133 9221   1.650   0.233   3.120  0.5234 -1.2410  3.1679
   65MOL   H134 9222   1.760   0.137   3.260 -0.0694 -0.2551 -0.0981
   65MOL   C135 9223   1.807   0.190   2.967 -0.0688 -0.0372 -0.2419
   65MOL   C136 9224   1.894   0.311   3.000 -0.0812 -0.5704  0.1676
   65MOL   O137 9225   1.962   0.369   2.890  0.3375  0.5977 -0.1937
   65MOL   H138 9226   1.866   0.102   2.941 -0.1977 -1.3352  3.5127
   65MOL   H139 9227   1.745   0.232   2.888 -1.4835 -3.1786 -0.8781
   65MOL   H140 9228   1.970   0.284   3.074  0.9927 -1.2610 -1.1467
   65MOL   H141 9229   1.942   0.462   2.896 -2.0841  0.2845 -2.6177
   65MOL   H142 9230   1.833   0.394   3.034  0.0984 -0.7380  0.9011
   66MOL     C1 9231   5.081   2.816   0.778  0.5367 -0.0184  0.3827
   66MOL     C2 9232   5.165   2.687   0.784  0.2502 -0.0216 -0.0877
   66MOL     O3 9233   5.176   2.625   0.658 -0.6177  0.1875  0.2469
   66MOL     H4 9234   4.985   2.798   0.728  0.1693  0.0381  1.0647
   66MOL     H5 9235   5.136   2.895   0.727  2.8947 -1.5705  0.4472
   66MOL     H6 9236   5.110   2.619   0.850  1.7265 -0.9757  0.1776
   66MOL     H7 9237   5.230   2.548   0.652  1.1215  1.4361 -0.8165
   66MOL     H8 9238   5.061   2.845   0.881 -0.3899 -4.4842  1.6055
   66MOL     C9 9239   5.297   2.713   0.862  0.0529  0.4726 -0.0704
   66MOL    C10 9240   5.402   2.805   0.778 -0.2030  0.3392 -0.3988
   66MOL    O11 9241   5.518   2.836   0.865  0.0645 -0.0500 -0.3167
   66MOL    H12 9242   5.288   2.758   0.961  1.1769 -1.1431  0.7836
   66MOL    H13 9243   5.347   2.619   0.886  0.3242 -0.2281 -3.1723
   66MOL    H14 9244   5.360   2.904   0.760  2.3144  1.8413  1.7250
   66MOL    H15 9245   5.578   2.889   0.815  0.7052  0.1012  0.6096
   66MOL    C16 9246   5.473   2.746   0.655  0.1603 -0.6951 -0.1615
   66MOL    C17 9247   5.552   2.846   0.560 -0.3416 -0.1104  0.1496
   66MOL    O18 9248   5.648   2.916   0.644  0.1190  0.2075 -0.6668
   66MOL    H19 9249   5.530   2.656   0.680 -0.9287 -1.4201 -0.2238
   66MOL    H20 9250   5.396   2.709   0.587  1.3843 -2.8389 -0.4304
   66MOL    H21 9251   5.478   2.915   0.520  2.1289  2.3012 -0.4386
   66MOL    H22 9252   5.684   2.991   0.600  0.3211  0.2418 -0.4431
   66MOL    C23 9253   5.636   2.791   0.448  0.4041  1.1375 -0.0270
   66MOL    C24 9254   5.559   2.692   0.352  0.7810  0.0111 -0.0552
   66MOL    O25 9255   5.452   2.764   0.289  0.0235  0.2621  0.0481
   66MOL    H26 9256   5.682   2.857   0.375  1.4356  0.9396  0.4389
   66MOL    H27 9257   5.718   2.731   0.487  0.3178  1.5214  0.7518
   66MOL    H28 9258   5.517   2.614   0.416  0.1397 -1.2261 -1.9435
   66MOL    H29 9259   5.414   2.695   0.236 -2.1853 -0.4311  2.4564
   66MOL    C30 9260   5.655   2.627   0.246  0.0704 -0.2717  0.2234
   66MOL    C31 9261   5.589   2.520   0.159  0.8191 -0.3608  0.1482
   66MOL    O32 9262   5.497   2.593   0.074  0.0306 -0.4553 -0.3223
   66MOL    H33 9263   5.692   2.705   0.180 -0.5186  1.4291  1.8832
   66MOL    H34 9264   5.743   2.588   0.298  1.5259  2.4264 -0.1739
   66MOL    H35 9265   5.538   2.449   0.224 -2.0959  2.8974  1.5443
   66MOL    H36 9266   5.544   2.603   7.512  1.6842  0.8104  0.7675
   66MOL    C37 9267   5.689   2.434   0.079 -0.1289 -0.3547  0.4349
   66MOL    C38 9268   5.620   2.328   7.509 -0.7428 -0.4620  0.6760
   66MOL    O39 9269   5.557   2.403   7.404  0.1213  0.2214  0.2473
   66MOL    H40 9270   5.764   2.479   0.015 -0.3773 -1.3268 -0.5436
   66MOL    H41 9271   5.760   2.381   0.143  0.6138  1.3197  1.0276
   66MOL    H42 9272   5.542   2.277   0.046 -0.4179 -0.9504  0.6875
   66MOL    H43 9273   5.476   2.355   7.400 -0.3795  0.8675  2.0631
   66MOL    C44 9274   5.716   2.219   7.459  0.3089  0.2892 -0.3338
   66MOL    C45 9275   5.698   2.077   7.519 -0.3958 -0.2863  0.2581
   66MOL    O46 9276   5.763   1.978   7.438 -0.3351 -0.0043 -0.6483
   66MOL    H47 9277   5.695   2.209   7.353 -0.4247 -0.7755 -0.0984
   66MOL    H48 9278   5.821   2.248   7.455  0.5548 -0.7141 -1.3698
   66MOL    H49 9279   5.593   2.051   7.504 -0.1314 -0.4834 -1.3228
   66MOL    H50 9280   5.761   2.009   7.348 -0.2606  2.9224  0.3126
   66MOL    C51 9281   5.760   2.051   0.140 -0.1130  0.1735 -0.3408
   66MOL    C52 9282   5.662   2.062   0.267  0.3049  0.9432  0.0559
   66MOL    O53 9283   5.631   2.200   0.275  0.0585  0.4780 -0.7368
   66MOL    H54 9284   5.801   1.951   0.153  1.3144  0.8145  0.2423
   66MOL    H55 9285   5.839   2.126   0.139 -1.6691  1.9241  1.6889
   66MOL    H56 9286   5.715   2.029   0.357  0.4501 -2.1123 -1.1099
   66MOL    H57 9287   5.699   2.227   0.335 -1.2340 -2.5608  2.2497
   66MOL    C58 9288   5.546   1.965   0.267  0.0859  0.0883  0.1200
   66MOL    C59 9289   5.480   1.941   0.400 -0.6084  0.3582 -0.1345
   66MOL    O60 9290   5.348   1.924   0.378  0.5421 -0.3509  0.1338
   66MOL    H61 9291   5.474   1.995   0.191  1.9354  2.2161 -0.8308
   66MOL    H62 9292   5.583   1.868   0.234 -0.6903 -0.5291  1.0387
   66MOL    H63 9293   5.494   2.032   0.459 -1.2636 -0.9065  2.0052
   66MOL    H64 9294   5.338   1.854   0.315 -0.3940 -0.3692  0.2930
   66MOL    C65 9295   5.537   1.821   0.483  0.3611  0.1960  0.3827
   66MOL    C66 9296   5.488   1.810   0.630 -0.4431  0.1215 -0.4435
   66MOL    O67 9297   5.552   1.693   0.682  0.4401 -0.0656 -0.2982
   66MOL    H68 9298   5.509   1.731   0.428 -0.3348 -0.2624  1.4580
   66MOL    H69 9299   5.645   1.810   0.490  0.2586  0.5160  3.6806
   66MOL    H70 9300   5.379   1.810   0.619 -0.4124  1.8711 -1.0009
   66MOL    H71 9301   5.629   1.674   0.631  1.1827  0.4596  0.6140
   66MOL    C72 9302   5.532   1.935   0.712  0.0242  0.1901  0.5606
   66MOL    C73 9303   5.485   1.954   0.852 -0.3207 -0.0866 -0.0877
   66MOL    O74 9304   5.549   1.857   0.929 -0.5684 -0.0782 -0.0493
   66MOL    H75 9305   5.641   1.941   0.711  0.0787 -0.7459  1.0619
   66MOL    H76 9306   5.509   2.026   0.656 -1.5494 -0.3758  0.2644
   66MOL    H77 9307   5.376   1.958   0.861 -0.2573  0.3958  0.5231
   66MOL    H78 9308   5.584   1.787   0.875  2.1530 -0.4962  2.1184
   66MOL    C79 9309   5.536   2.098   0.896 -0.5501  0.5279  0.0660
   66MOL    C80 9310   5.474   2.222   0.834  0.5213 -0.9936 -0.1548
   66MOL    O81 9311   5.363   2.273   0.915  0.1658  0.2405  0.0795
   66MOL    H82 9312   5.517   2.112   1.003  1.9147 -2.0492  0.8976
   66MOL    H83 9313   5.644   2.102   0.883 -0.5758  0.1998 -0.2483
   66MOL    H84 9314   5.421   2.182   0.747 -0.7937  0.9891 -0.3009
   66MOL    H85 9315   5.298   2.309   0.856 -0.2786  0.9384  0.9737
   66MOL    C86 9316   5.569   2.327   0.789  0.2030  0.1901 -0.6684
   66MOL    C87 9317   5.648   2.283   0.663 -0.7659  0.5861 -0.3861
   66MOL    O88 9318   5.563   2.297   0.545  0.5184  0.0906  0.3120
   66MOL    H89 9319   5.517   2.421   0.769  0.5131  0.2254 -1.3062
   66MOL    H90 9320   5.637   2.352   0.870 -0.4544  1.5364 -0.5114
   66MOL    H91 9321   5.665   2.176   0.673 -2.6631  0.4099  1.4459
   66MOL    H92 9322   5.603   2.260   0.469 -1.0330  1.6663 -1.3164
   66MOL    C93 9323   5.787   2.360   0.652  0.0616  0.6349  0.1228
   66MOL    C94 9324   5.883   2.258   0.585  0.3531  0.1670 -0.2471
   66MOL    O95 9325   5.850   2.250   0.449  0.1343  0.0709  0.4418
   66MOL    H96 9326   5.781   2.449   0.590  0.3541  1.2226  0.9280
   66MOL    H97 9327   5.831   2.389   0.747 -1.6238  1.7397  0.5789
   66MOL    H98 9328   5.877   2.162   0.636  1.8923 -0.2467 -0.8324
   66MOL    H99 9329   5.936   2.233   0.415  0.4486 -1.4302  1.9260
   66MOL   C100 9330   6.028   2.304   0.608 -0.3574  0.1374 -0.0701
   66MOL   C101 9331   6.126   2.201   0.542  0.1326  0.3665  0.2816
   66MOL   O102 9332   6.107   2.205   0.401 -0.2278  0.1671 -0.3072
   66MOL   H103 9333   6.054   2.405   0.576  0.8025 -0.1505 -0.0679
   66MOL   H104 9334   6.045   2.310   0.716 -0.1122 -1.4347 -0.0047
   66MOL   H105 9335   6.091   2.099   0.559 -1.5139  0.6442 -1.2781
   66MOL   H106 9336   6.165   2.140   0.367 -0.1357 -0.1157  0.3847
   66MOL   C107 9337   6.270   2.231   0.574 -0.1865 -0.0754  0.2735
   66MOL   C108 9338   6.327   2.174   0.709 -0.2992 -0.2130 -0.0700
   66MOL   O109 9339   6.305   2.033   0.714  0.1815  0.3852  0.1362
   66MOL   H110 9340   6.330   2.185   0.496  0.2616  0.4136  0.3252
   66MOL   H111 9341   6.287   2.338   0.567  0.5914 -0.1009  1.6271
   66MOL   H112 9342   6.285   2.226   0.796  0.4751  1.1598 -0.5012
   66MOL   H113 9343   6.265   2.012   0.797 -0.4143  1.7126  0.2117
   66MOL   C114 9344   6.477   2.205   0.731  0.1480 -0.3252  0.4552
   66MOL   C115 9345   6.526   2.160   0.870  0.2736  0.3767  0.0130
   66MOL   O116 9346   6.664   2.131   0.862 -0.7498  0.0119  0.3580
   66MOL   H117 9347   6.528   2.157   0.647  1.4955  0.4123  0.8277
   66MOL   H118 9348   6.495   2.312   0.726  0.1970 -0.3545 -0.0605
   66MOL   H119 9349   6.471   2.072   0.901 -0.5265  0.7903 -0.2070
   66MOL   H120 9350   6.683   2.040   0.879 -0.4380 -0.3575 -1.8541
   66MOL   C121 9351   6.495   2.267   0.977  0.9458  0.2805  0.4308
   66MOL   C122 9352   6.547   2.238   1.122 -0.0879 -0.5340  0.4553
   66MOL   O123 9353   6.682   2.257   1.122  0.1567 -0.2963  0.3090
   66MOL   H124 9354   6.530   2.369   0.961 -0.7096  0.6763 -0.7424
   66MOL   H125 9355   6.388   2.290   0.978  1.3118  2.1468 -0.6556
   66MOL   H126 9356   6.528   2.131   1.133  0.2322 -0.9090 -2.1904
   66MOL   H127 9357   6.700   2.202   1.047  0.1720 -1.4577  1.1530
   66MOL   C128 9358   6.497   2.329   1.237  0.0916 -0.2731 -0.6962
   66MOL   C129 9359   6.359   2.311   1.294  0.6789 -0.4649  0.1095
   66MOL   O130 9360   6.339   2.198   1.379 -0.3610 -0.5147 -0.1316
   66MOL   H131 9361   6.563   2.316   1.323 -0.5582  0.5545 -0.0644
   66MOL   H132 9362   6.516   2.433   1.212 -1.0091  0.8130  2.6689
   66MOL   H133 9363   6.287   2.309   1.212 -2.0958 -0.1934  2.4705
   66MOL   H134 9364   6.247   2.178   1.379  0.0943 -2.7366 -0.4279
   66MOL   C135 9365   6.323   2.429   1.379  0.5028  0.3065  0.5147
   66MOL   C136 9366   6.172   2.441   1.399  0.4959  0.0621  0.1385
   66MOL   O137 9367   6.154   2.546   1.488  0.1393 -0.4143  0.2652
   66MOL   H138 9368   6.377   2.438   1.473 -0.1237 -2.2891  1.1624
   66MOL   H139 9369   6.351   2.522   1.328  0.1476  0.6052  0.8552
   66MOL   H140 9370   6.132   2.350   1.445  1.1516 -0.8869 -1.1395
   66MOL   H141 9371   6.063   2.569   1.495  0.1848 -0.5261  1.3418
   66MOL   H142 9372   6.127   2.463   1.302 -1.0956 -1.7675  0.4277
   67MOL     C1 9373   2.063   3.760   4.711 -0.6679 -0.5857 -0.2699
   67MOL     C2 9374   2.030   3.817   4.852  0.0500 -0.4834  0.0147
   67MOL     O3 9375   2.007   3.705   4.934  0.2419  0.0969 -1.0309
   67MOL     H4 9376   2.087   3.836   4.637  2.4265 -0.4204  0.8305
   67MOL     H5 9377   1.990   3.687   4.675 -2.0355  1.2762 -1.3632
   67MOL     H6 9378   1.933   3.866   4.842 -0.5143 -1.0014  2.6131
   67MOL     H7 9379   1.931   3.659   4.903  0.2452 -0.5579 -0.0763
   67MOL     H8 9380   2.156   3.704   4.714  0.2289  0.9321  1.9133
   67MOL     C9 9381   2.133   3.920   4.900  0.1359 -0.9906 -1.4394
   67MOL    C10 9382   2.284   3.869   4.896 -0.1226 -0.1665  0.2376
   67MOL    O11 9383   2.344   3.909   4.773  0.3632  0.2726  0.0006
   67MOL    H12 9384   2.113   4.013   4.846  1.5185  1.4999  2.1390
   67MOL    H13 9385   2.107   3.937   5.004 -0.3002  0.1256 -1.7149
   67MOL    H14 9386   2.283   3.761   4.903  3.2196 -0.3749 -1.2296
   67MOL    H15 9387   2.378   3.832   4.731  0.0069 -0.3869  0.9093
   67MOL    C16 9388   2.372   3.918   5.005  0.0858  0.0749 -0.1572
   67MOL    C17 9389   2.329   3.861   5.145  0.3603 -0.6246 -0.0826
   67MOL    O18 9390   2.345   3.724   5.148 -0.1233  0.7265 -0.1357
   67MOL    H19 9391   2.475   3.891   4.981 -0.2851 -2.6629  1.1217
   67MOL    H20 9392   2.384   4.026   5.016  0.1451  0.1839 -1.2984
   67MOL    H21 9393   2.232   3.896   5.182  1.0765 -0.2801  1.4978
   67MOL    H22 9394   2.269   3.688   5.192  1.0033 -1.2001  0.2825
   67MOL    C23 9395   2.426   3.910   5.258  0.0678  0.3126  0.2885
   67MOL    C24 9396   2.418   4.064   5.289  0.1720  0.0629 -0.3927
   67MOL    O25 9397   2.288   4.095   5.335 -0.4147  0.2541 -0.0624
   67MOL    H26 9398   2.404   3.853   5.348  3.7489  0.5837  1.4427
   67MOL    H27 9399   2.532   3.899   5.232  0.6059  3.3070  1.0044
   67MOL    H28 9400   2.448   4.125   5.204  0.1786 -1.3737 -1.4400
   67MOL    H29 9401   2.277   4.042   5.412  2.3553 -1.0369 -0.4971
   67MOL    C30 9402   2.521   4.109   5.385 -0.0643 -0.2632  0.0679
   67MOL    C31 9403   2.523   4.248   5.440  0.8788 -0.5284  0.1077
   67MOL    O32 9404   2.607   4.249   5.553  0.5815 -0.1485  0.0176
   67MOL    H33 9405   2.521   4.039   5.468 -1.7060 -0.1053  0.2058
   67MOL    H34 9406   2.618   4.099   5.336 -0.6485 -0.2154 -1.0934
   67MOL    H35 9407   2.418   4.255   5.469  1.8239  1.0449  3.3756
   67MOL    H36 9408   2.687   4.207   5.524 -0.9508 -3.0821 -0.1685
   67MOL    C37 9409   2.564   4.358   5.342 -0.0938 -0.7158 -0.5632
   67MOL    C38 9410   2.550   4.504   5.405  0.0606 -0.3316  0.3466
   67MOL    O39 9411   2.584   4.594   5.305  0.1123  0.3672  0.3125
   67MOL    H40 9412   2.663   4.331   5.305  0.0048 -1.3639  0.1777
   67MOL    H41 9413   2.506   4.366   5.250 -0.3924 -1.9978 -0.4989
   67MOL    H42 9414   2.625   4.515   5.484 -0.4554 -0.7645  0.9090
   67MOL    H43 9415   2.637   4.659   5.348  1.4372  1.7566 -3.2484
   67MOL    C44 9416   2.412   4.542   5.470 -0.4436  0.5247 -0.0726
   67MOL    C45 9417   2.395   4.678   5.539  0.1319  0.7470 -0.0907
   67MOL    O46 9418   2.256   4.715   5.532 -0.7965 -0.1025  0.2536
   67MOL    H47 9419   2.348   4.528   5.383 -2.2960  0.6992  1.2530
   67MOL    H48 9420   2.374   4.465   5.536 -0.9853  0.2992 -0.6388
   67MOL    H49 9421   2.454   4.752   5.484  0.4545 -0.4120 -1.3457
   67MOL    H50 9422   2.242   4.776   5.461  3.1129  1.8091  1.0238
   67MOL    C51 9423   2.429   4.672   5.700  0.1690  0.1649 -0.0372
   67MOL    C52 9424   2.469   4.805   5.765 -0.4794  0.1433 -0.0686
   67MOL    O53 9425   2.350   4.890   5.770 -0.1259 -0.6804  0.7443
   67MOL    H54 9426   2.343   4.624   5.747 -0.3411  0.6928 -0.4282
   67MOL    H55 9427   2.507   4.596   5.700  0.5042  0.4996  0.4489
   67MOL    H56 9428   2.535   4.862   5.700 -0.1671 -1.0056 -0.7742
   67MOL    H57 9429   2.304   4.861   5.692 -0.0421 -1.9361  1.1500
   67MOL    C58 9430   2.526   4.785   5.910  0.3912 -0.4507 -0.1566
   67MOL    C59 9431   2.577   4.911   5.988 -0.1388 -0.0292  0.3214
   67MOL    O60 9432   2.633   4.862   6.108  0.2337  0.1092 -0.5597
   67MOL    H61 9433   2.461   4.733   5.979  0.1476  0.8325  0.6012
   67MOL    H62 9434   2.612   4.719   5.900  0.7713 -0.0299  0.2973
   67MOL    H63 9435   2.501   4.988   6.004  0.6131  0.5312  1.2292
   67MOL    H64 9436   2.669   4.930   6.163  0.0118  0.6322 -1.0555
   67MOL    C65 9437   2.689   4.972   5.903 -0.1947  0.0441  0.4523
   67MOL    C66 9438   2.653   5.103   5.829 -0.4636 -0.5719 -0.3448
   67MOL    O67 9439   2.632   5.209   5.926 -0.2982 -0.1626 -0.1976
   67MOL    H68 9440   2.779   4.979   5.964 -0.3639 -1.6250  0.9286
   67MOL    H69 9441   2.728   4.897   5.834  0.5194  1.9140 -1.2504
   67MOL    H70 9442   2.558   5.094   5.776  0.6034 -1.5628 -2.1575
   67MOL    H71 9443   2.551   5.190   5.970 -0.6130 -1.2864 -1.2374
   67MOL    C72 9444   2.765   5.155   5.731  0.2550  0.7439  0.4434
   67MOL    C73 9445   2.807   5.061   5.614 -0.5952 -0.1571 -0.1673
   67MOL    O74 9446   2.698   5.048   5.516 -0.3671 -0.4180  0.0067
   67MOL    H75 9447   2.738   5.248   5.681 -0.2879  0.0264 -0.6194
   67MOL    H76 9448   2.854   5.162   5.795  1.0420  1.1090 -0.6713
   67MOL    H77 9449   2.823   4.968   5.668  0.6173 -0.6589 -1.3715
   67MOL    H78 9450   2.659   5.132   5.498 -0.5710 -0.0874  1.8958
   67MOL    C79 9451   2.924   5.118   5.532 -0.3960 -1.1425  0.2645
   67MOL    C80 9452   3.059   5.139   5.591 -0.3582 -1.0220 -0.2289
   67MOL    O81 9453   3.093   5.026   5.664 -0.0170 -0.9982 -0.5676
   67MOL    H82 9454   2.951   5.060   5.444  1.2529  0.6007 -0.4242
   67MOL    H83 9455   2.889   5.208   5.481 -1.6842 -1.3753  0.7294
   67MOL    H84 9456   3.052   5.226   5.657  1.7928 -1.0116  0.0128
   67MOL    H85 9457   3.167   5.049   5.717 -1.0196  1.1306  0.0034
   67MOL    C86 9458   3.170   5.165   5.486 -0.1847  0.1336  0.2202
   67MOL    C87 9459   3.154   5.290   5.385 -0.2312 -0.0172 -0.0810
   67MOL    O88 9460   3.194   5.403   5.460  0.5238 -0.5925 -0.7061
   67MOL    H89 9461   3.269   5.183   5.528  0.1014  0.5061 -0.6029
   67MOL    H90 9462   3.186   5.079   5.422  1.2097  1.4105 -1.2026
   67MOL    H91 9463   3.049   5.304   5.359 -0.1492  1.4945  0.3669
   67MOL    H92 9464   3.171   5.476   5.405 -0.6532 -0.1109  0.3806
   67MOL    C93 9465   3.261   5.284   5.271 -0.1420 -0.4801  0.5548
   67MOL    C94 9466   3.242   5.172   5.156 -0.0159 -0.3627  0.2199
   67MOL    O95 9467   3.106   5.174   5.127  0.0757  0.4136  0.1012
   67MOL    H96 9468   3.273   5.372   5.208  1.0361 -1.7619 -1.0550
   67MOL    H97 9469   3.361   5.278   5.312 -0.9034  0.4895  2.6125
   67MOL    H98 9470   3.276   5.073   5.186 -0.3690 -1.0153 -1.4276
   67MOL    H99 9471   3.078   5.084   5.131  0.2440  0.2888 -1.3492
   67MOL   C100 9472   3.331   5.206   5.030  0.2368  0.1758 -0.1875
   67MOL   C101 9473   3.480   5.194   5.057  0.2294  0.0265 -0.7263
   67MOL   O102 9474   3.520   5.054   5.048  0.2420  0.3289 -0.3934
   67MOL   H103 9475   3.307   5.150   4.939  0.1954  1.1146 -0.7602
   67MOL   H104 9476   3.311   5.311   5.013  0.4428  0.4124  1.0038
   67MOL   H105 9477   3.499   5.227   5.159  1.0792 -2.2013 -0.1411
   67MOL   H106 9478   3.488   5.006   5.123 -0.3603 -2.5490 -2.3911
   67MOL   C107 9479   3.561   5.276   4.949 -0.8161 -0.2116  1.4379
   67MOL   C108 9480   3.721   5.272   4.966  1.1839  0.2822 -0.2277
   67MOL   O109 9481   3.784   5.290   4.844  0.6024 -0.3172 -0.3337
   67MOL   H110 9482   3.535   5.230   4.854 -1.1344  1.7572  0.5432
   67MOL   H111 9483   3.537   5.382   4.936  2.1053  0.1462 -1.9005
   67MOL   H112 9484   3.739   5.171   5.000  0.8697  0.3120  0.0330
   67MOL   H113 9485   3.775   5.380   4.817 -0.6188 -0.5106 -0.5904
   67MOL   C114 9486   3.779   5.361   5.080 -0.6227 -0.3662 -0.1827
   67MOL   C115 9487   3.925   5.329   5.113  0.2764  0.0102 -0.4813
   67MOL   O116 9488   3.968   5.428   5.210  0.6017  0.1057 -0.0157
   67MOL   H117 9489   3.773   5.465   5.048 -2.8788 -0.5417 -0.3985
   67MOL   H118 9490   3.722   5.353   5.173 -1.6662  1.4628 -0.6443
   67MOL   H119 9491   3.972   5.342   5.015 -1.1855 -2.2271 -1.5196
   67MOL   H120 9492   3.921   5.416   5.292 -2.0703 -1.9158 -1.7520
   67MOL   C121 9493   3.951   5.182   5.166  0.2852  0.4566 -0.1725
   67MOL   C122 9494   4.108   5.159   5.182  0.6458  0.3565 -0.0876
   67MOL   O123 9495   4.127   5.031   5.247 -0.4703  0.2417 -0.1946
   67MOL   H124 9496   3.890   5.171   5.256  0.1333 -1.2333 -0.4663
   67MOL   H125 9497   3.913   5.101   5.104  0.2533 -0.3944  0.9627
   67MOL   H126 9498   4.136   5.248   5.239 -2.5416  1.3697 -0.0389
   67MOL   H127 9499   4.070   4.962   5.216 -0.1699 -0.0646 -0.0712
   67MOL   C128 9500   4.196   5.153   5.054  0.3758  0.1032  0.3356
   67MOL   C129 9501   4.348   5.143   5.080  0.0247 -0.0957 -0.2073
   67MOL   O130 9502   4.410   5.085   4.969 -0.5805  0.1048 -0.0846
   67MOL   H131 9503   4.157   5.080   4.982 -0.5942  1.2570 -0.3465
   67MOL   H132 9504   4.177   5.246   4.999  0.9923  0.8064  1.2947
   67MOL   H133 9505   4.368   5.073   5.161  0.0059 -0.9013 -0.8957
   67MOL   H134 9506   4.451   5.008   5.006 -0.4672 -1.8064 -3.9642
   67MOL   C135 9507   4.420   5.277   5.114  0.4625 -0.3529 -0.3516
   67MOL   C136 9508   4.521   5.262   5.224 -0.4677  0.4800  0.4034
   67MOL   O137 9509   4.569   5.385   5.267  0.2865 -0.0256 -0.1136
   67MOL   H138 9510   4.467   5.312   5.022 -0.9047 -0.3023 -1.0466
   67MOL   H139 9511   4.357   5.357   5.151  0.7115 -0.7118  0.8489
   67MOL   H140 9512   4.611   5.208   5.196 -0.5067  0.2941  0.6366
   67MOL   H141 9513   4.513   5.423   5.334 -2.6639 -0.1853 -2.3984
   67MOL   H142 9514   4.474   5.221   5.313 -2.4017 -0.3374 -0.9720
   68MOL     C1 9515   6.618   3.728   0.246  0.5264 -0.0667  0.0122
   68MOL     C2 9516   6.538   3.844   0.319  0.4917  0.1358 -0.0398
   68MOL     O3 9517   6.620   3.917   0.402  0.0297  0.2151 -0.4215
   68MOL     H4 9518   6.685   3.687   0.322  1.9019  1.5975 -0.2649
   68MOL     H5 9519   6.679   3.780   0.172 -0.9848  0.8157 -0.6323
   68MOL     H6 9520   6.461   3.796   0.381  0.9979 -0.8813 -0.1954
   68MOL     H7 9521   6.682   3.959   0.345  0.6878 -0.5257 -0.2651
   68MOL     H8 9522   6.558   3.656   0.191  2.1586 -0.7831 -0.8796
   68MOL     C9 9523   6.472   3.952   0.226  1.1087 -0.4155  0.7583
   68MOL    C10 9524   6.355   3.887   0.146  0.2213  0.6700 -0.6600
   68MOL    O11 9525   6.238   3.864   0.221 -0.5695 -0.1726  0.5328
   68MOL    H12 9526   6.430   4.024   0.297 -0.5875  0.4156 -1.0257
   68MOL    H13 9527   6.548   3.992   0.159 -0.5565 -0.1894 -1.0604
   68MOL    H14 9528   6.387   3.791   0.105 -1.5208 -0.0763 -0.2857
   68MOL    H15 9529   6.173   3.832   0.161 -2.0755  1.4949  1.2419
   68MOL    C16 9530   6.315   3.984   0.034  0.2678 -0.0869  0.3389
   68MOL    C17 9531   6.222   3.913   7.442  0.0904 -0.3751  0.4014
   68MOL    O18 9532   6.135   3.822   7.494 -0.1183 -0.4084  0.0484
   68MOL    H19 9533   6.268   4.073   0.076 -0.4731  0.3652 -1.4169
   68MOL    H20 9534   6.405   4.022   7.505  0.1582 -0.2376  0.0136
   68MOL    H21 9535   6.286   3.851   7.378  0.2448 -1.0847  1.2367
   68MOL    H22 9536   6.079   3.792   7.423 -1.0656  0.1880  0.5420
   68MOL    C23 9537   6.148   4.023   7.356 -0.4281 -0.0831 -0.5998
   68MOL    C24 9538   6.237   4.095   7.247  0.2247 -0.5686  0.0464
   68MOL    O25 9539   6.212   4.053   7.114 -0.4504  0.7319  0.7424
   68MOL    H26 9540   6.062   3.977   7.306  1.0957 -3.0418 -0.6200
   68MOL    H27 9541   6.099   4.093   7.424  2.4906  0.8338  0.5977
   68MOL    H28 9542   6.342   4.080   7.272  0.1090 -2.4362 -0.4635
   68MOL    H29 9543   6.248   3.966   7.106 -0.4550  0.6639  1.4195
   68MOL    C30 9544   6.208   4.251   7.241  0.1820  0.0943 -0.5081
   68MOL    C31 9545   6.315   4.325   7.173 -0.2207  0.7541  0.5524
   68MOL    O32 9546   6.265   4.455   7.128  0.0273  0.2353 -0.1226
   68MOL    H33 9547   6.112   4.271   7.194  0.3225  1.8737 -0.0696
   68MOL    H34 9548   6.186   4.284   7.343  0.2135 -2.7590  0.4908
   68MOL    H35 9549   6.348   4.268   7.087 -1.8968 -0.7866  0.9102
   68MOL    H36 9550   6.200   4.447   7.060 -1.2660 -1.2125  1.2401
   68MOL    C37 9551   6.433   4.349   7.268 -0.0188  0.3654  0.0715
   68MOL    C38 9552   6.414   4.442   7.391 -0.0415 -0.6393 -0.5919
   68MOL    O39 9553   6.533   4.422   7.471  0.6932 -0.5879 -0.1089
   68MOL    H40 9554   6.454   4.250   7.308  1.4808  0.9865  0.8801
   68MOL    H41 9555   6.520   4.368   7.205 -0.1230  0.0403 -0.1723
   68MOL    H42 9556   6.331   4.402   7.450  1.5973 -1.7712  1.0195
   68MOL    H43 9557   6.566   4.335   7.458  2.9247 -0.3333  3.3294
   68MOL    C44 9558   6.393   4.597   7.378 -0.6456 -0.8441  0.1125
   68MOL    C45 9559   6.479   4.665   7.272 -0.1318  0.9053  0.2855
   68MOL    O46 9560   6.408   4.686   7.154 -0.3072 -0.0586 -0.5796
   68MOL    H47 9561   6.291   4.617   7.347 -0.5060 -1.3953 -0.7350
   68MOL    H48 9562   6.402   4.653   7.471 -4.3264  0.3275 -0.1564
   68MOL    H49 9563   6.557   4.597   7.235 -1.1784 -0.4691  0.5556
   68MOL    H50 9564   6.361   4.610   7.123  0.0132 -0.6996  0.4858
   68MOL    C51 9565   6.534   4.799   7.319  0.3438  0.0210  0.3700
   68MOL    C52 9566   6.669   4.837   7.252  0.5492 -0.0302  0.0311
   68MOL    O53 9567   6.647   4.861   7.115  0.1944 -0.0166 -0.4269
   68MOL    H54 9568   6.457   4.874   7.304  2.8577  2.5043 -0.4407
   68MOL    H55 9569   6.557   4.794   7.425  0.1315 -0.4892  0.3952
   68MOL    H56 9570   6.732   4.749   7.263 -0.2088 -0.7014 -0.8680
   68MOL    H57 9571   6.600   4.786   7.081  1.3984 -0.4830 -1.0851
   68MOL    C58 9572   6.737   4.959   7.311 -0.1409  0.2957  1.1678
   68MOL    C59 9573   6.873   4.988   7.244  0.3328  0.2366  0.8237
   68MOL    O60 9574   6.872   5.121   7.197 -0.1515 -0.2520  0.3154
   68MOL    H61 9575   6.683   5.053   7.297 -1.1023 -0.2323  1.3034
   68MOL    H62 9576   6.742   4.963   7.420 -0.2533 -0.8916  1.2184
   68MOL    H63 9577   6.888   4.937   7.149  1.7556  2.7802 -0.3670
   68MOL    H64 9578   6.910   5.117   7.111  0.4318 -0.3406  0.5724
   68MOL    C65 9579   6.999   4.961   7.323  0.2167  0.0948  0.5248
   68MOL    C66 9580   7.035   4.818   7.365 -0.2468  0.0530 -0.2669
   68MOL    O67 9581   7.021   4.727   7.259 -0.0900 -0.0025  0.5698
   68MOL    H68 9582   7.085   4.999   7.267  0.3304 -1.9886 -0.7694
   68MOL    H69 9583   6.987   5.028   7.408 -2.1426  1.3692 -0.7720
   68MOL    H70 9584   6.965   4.762   7.427 -1.0840  0.3315 -0.9337
   68MOL    H71 9585   7.039   4.640   7.291  1.0887 -0.0470 -0.1786
   68MOL    C72 9586   7.178   4.805   7.404  0.4540  0.0267  0.0654
   68MOL    C73 9587   7.200   4.816   0.037  0.3614  0.5443 -0.2722
   68MOL    O74 9588   7.148   4.698   0.094  0.1741  0.2679  0.4718
   68MOL    H75 9589   7.225   4.715   7.364 -0.8103 -0.4010 -0.4716
   68MOL    H76 9590   7.237   4.884   7.357  2.3023 -2.4897 -2.0139
   68MOL    H77 9591   7.150   4.904   0.078 -1.0361 -0.6906  0.7121
   68MOL    H78 9592   7.095   4.725   0.168  0.8625  0.1628  1.0094
   68MOL    C79 9593   7.352   4.815   0.081  0.4847 -0.5192 -0.0773
   68MOL    C80 9594   7.419   4.930   0.167 -0.4312  0.5679 -0.2820
   68MOL    O81 9595   0.029   4.873   0.188  0.4879  0.0065 -0.9232
   68MOL    H82 9596   7.375   4.716   0.119 -1.3228 -0.7469  0.4724
   68MOL    H83 9597   7.407   4.805   7.507 -0.2332 -0.9852 -0.4569
   68MOL    H84 9598   7.378   4.943   0.267  0.7680 -0.0197  0.3143
   68MOL    H85 9599   0.022   4.798   0.244 -1.0811 -0.3726 -1.5817
   68MOL    C86 9600   7.445   5.060   0.084 -0.2451  0.4493 -0.0942
   68MOL    C87 9601   7.337   5.154   0.049  0.0698 -0.4223  0.0828
   68MOL    O88 9602   7.255   5.106   7.460 -0.3270  0.1503 -0.0652
   68MOL    H89 9603   0.008   5.119   0.125 -0.7278  0.6534  0.5885
   68MOL    H90 9604   7.491   5.042   7.506  1.9419  0.4675  0.8963
   68MOL    H91 9605   7.372   5.248   0.008  0.1345 -1.4977 -2.4278
   68MOL    H92 9606   7.250   5.175   7.395  0.8770  0.4190  0.1154
   68MOL    C93 9607   7.243   5.180   0.170  0.8107 -0.2793 -0.3313
   68MOL    C94 9608   7.304   5.248   0.297  0.1528  0.2056 -0.6789
   68MOL    O95 9609   7.339   5.379   0.263 -0.3204 -0.1932 -0.4352
   68MOL    H96 9610   7.166   5.253   0.145  0.4414 -0.8358 -0.8411
   68MOL    H97 9611   7.188   5.090   0.196 -0.1596  0.2875 -0.3774
   68MOL    H98 9612   7.402   5.214   0.328 -1.2779 -1.6564  1.9825
   68MOL    H99 9613   7.274   5.406   0.200 -2.4293 -1.6012  1.0391
   68MOL   C100 9614   7.217   5.253   0.423  0.2092 -0.1688  0.1308
   68MOL   C101 9615   7.215   5.111   0.495 -0.3146  0.3171 -0.1067
   68MOL   O102 9616   7.350   5.059   0.512 -0.6252 -0.4439 -0.5584
   68MOL   H103 9617   7.241   5.328   0.499  2.8995 -0.6310 -0.2121
   68MOL   H104 9618   7.120   5.288   0.390  0.9806  1.3709 -0.5504
   68MOL   H105 9619   7.149   5.036   0.452 -2.5847 -0.3122  4.1355
   68MOL   H106 9620   7.394   5.116   0.573 -2.0256  0.0649 -0.0209
   68MOL   C107 9621   7.164   5.132   0.645 -0.4043 -0.5559  0.1431
   68MOL   C108 9622   7.100   5.006   0.709 -0.3146 -0.7733 -0.1460
   68MOL   O109 9623   7.173   4.887   0.683  0.1575 -0.1443  0.0033
   68MOL   H110 9624   7.242   5.178   0.706 -1.6895  0.3598  1.1135
   68MOL   H111 9625   7.089   5.210   0.645 -0.4305 -0.5675 -1.9731
   68MOL   H112 9626   7.008   4.984   0.655  0.7138 -0.4053 -2.0812
   68MOL   H113 9627   7.263   4.906   0.662  0.2756 -0.0720  0.5806
   68MOL   C114 9628   7.074   5.013   0.862 -0.0974 -0.0035  0.2665
   68MOL   C115 9629   6.965   5.112   0.911  0.2388  0.4682  0.2647
   68MOL   O116 9630   6.919   5.061   1.030 -0.5553  0.6021  0.2959
   68MOL   H117 9631   7.048   4.911   0.887  0.0950  0.0937  0.8825
   68MOL   H118 9632   7.169   5.032   0.912 -0.8340  0.6769  1.4441
   68MOL   H119 9633   6.876   5.105   0.848  0.6159 -1.7520 -0.0759
   68MOL   H120 9634   6.893   4.972   1.014  2.7824 -0.3467 -0.0995
   68MOL   C121 9635   7.000   5.256   0.936  1.0188  0.4007  0.2074
   68MOL   C122 9636   6.881   5.356   0.982 -0.2166  0.4920 -0.4697
   68MOL   O123 9637   6.949   5.482   1.011 -0.4763  0.2244  0.2698
   68MOL   H124 9638   7.077   5.254   1.013  0.5160 -0.9789  0.6855
   68MOL   H125 9639   7.034   5.307   0.845  0.4959  0.3617 -0.0143
   68MOL   H126 9640   6.841   5.311   1.073 -0.0535  0.7340 -0.2782
   68MOL   H127 9641   6.887   5.536   1.059 -0.3372  1.8399 -1.3008
   68MOL   C128 9642   6.755   5.389   0.899 -0.6996 -0.0053 -0.0316
   68MOL   C129 9643   6.775   5.470   0.769 -0.5885  0.3057 -0.0900
   68MOL   O130 9644   6.824   5.388   0.672  0.0245  0.1264  0.3289
   68MOL   H131 9645   6.700   5.297   0.880  1.8040 -1.1235 -2.2370
   68MOL   H132 9646   6.692   5.452   0.961 -1.5593 -0.9688  0.0823
   68MOL   H133 9647   6.849   5.546   0.796 -1.5400  0.6847  1.5747
   68MOL   H134 9648   6.779   5.306   0.684  0.9442 -0.6883 -1.6628
   68MOL   C135 9649   6.643   5.540   0.713 -0.1092 -0.5466 -0.1202
   68MOL   C136 9650   6.657   5.606   0.572 -0.0415  0.4848 -0.5531
   68MOL   O137 9651   6.537   5.686   0.533 -1.0453 -0.2057 -0.1364
   68MOL   H138 9652   6.550   5.484   0.719  0.3376 -1.3792 -0.7892
   68MOL   H139 9653   6.618   5.616   0.786 -2.1330 -1.2651 -0.0123
   68MOL   H140 9654   6.684   5.542   0.488 -0.0136 -1.1984  0.7061
   68MOL   H141 9655   6.550   5.702   0.441  1.6516 -0.9665  0.0555
   68MOL   H142 9656   6.747   5.666   0.574  0.0150  0.3748  0.5683
   69MOL     C1 9657   3.789   7.378   6.273 -0.4282  0.5805  0.3269
   69MOL     C2 9658   3.735   7.250   6.321 -0.4267 -0.0822 -0.3908
   69MOL     O3 9659   3.713   7.261   6.461 -0.0072  0.4458  0.3254
   69MOL     H4 9660   3.833   7.383   6.174  0.8016  1.7077  0.9109
   69MOL     H5 9661   3.875   7.410   6.331 -0.5048  3.7223 -1.1321
   69MOL     H6 9662   3.824   7.193   6.293 -0.9987 -0.5904 -1.1855
   69MOL     H7 9663   3.641   7.315   6.490  0.0280  0.8938 -0.4071
   69MOL     H8 9664   3.711   7.455   6.278  1.2118  2.3742 -0.8552
   69MOL     C9 9665   3.616   7.182   6.249  0.2588  0.3240  0.0342
   69MOL    C10 9666   3.650   7.158   6.098  0.6391 -0.0851 -1.1005
   69MOL    O11 9667   3.728   7.035   6.092 -0.4420 -0.2500  0.5044
   69MOL    H12 9668   3.588   7.095   6.309 -1.3214 -1.3534 -3.0338
   69MOL    H13 9669   3.524   7.241   6.259 -0.8818 -1.6254  1.3279
   69MOL    H14 9670   3.708   7.242   6.061  2.7348 -0.7463  0.6306
   69MOL    H15 9671   3.750   7.021   6.001 -0.0061  0.9055  0.4247
   69MOL    C16 9672   3.525   7.139   6.014 -0.5844  0.3661 -0.0316
   69MOL    C17 9673   3.445   7.269   5.995 -0.5715 -0.4415  0.0940
   69MOL    O18 9674   3.468   7.316   5.861  0.1332 -0.0073  0.0107
   69MOL    H19 9675   3.543   7.084   5.921 -1.4327  1.6933 -0.9873
   69MOL    H20 9676   3.470   7.063   6.070 -1.1923  1.6932  1.2088
   69MOL    H21 9677   3.470   7.347   6.066 -0.7762 -1.8169  1.6983
   69MOL    H22 9678   3.561   7.325   5.845  0.5014  0.9819  2.5038
   69MOL    C23 9679   3.296   7.242   5.999 -0.2787 -0.1734 -1.4496
   69MOL    C24 9680   3.242   7.252   6.144  0.2902 -0.2786 -0.2092
   69MOL    O25 9681   3.225   7.392   6.190 -0.2190 -0.7425  0.3549
   69MOL    H26 9682   3.241   7.325   5.955 -2.3318 -1.3521 -1.1737
   69MOL    H27 9683   3.284   7.145   5.950 -3.4995  0.1366 -1.3633
   69MOL    H28 9684   3.300   7.198   6.218  0.1652  0.1879  0.2357
   69MOL    H29 9685   3.174   7.429   6.119  1.5158  1.8647  0.4004
   69MOL    C30 9686   3.096   7.199   6.148  0.6781 -0.0963  0.5681
   69MOL    C31 9687   3.049   7.188   6.296 -0.3223  0.4479 -0.0901
   69MOL    O32 9688   2.909   7.173   6.294  0.6739 -0.7033  0.1936
   69MOL    H33 9689   3.046   7.282   6.098  0.7474  0.4729  1.4403
   69MOL    H34 9690   3.082   7.109   6.088 -0.9834  1.8145 -2.0227
   69MOL    H35 9691   3.065   7.273   6.362  0.0925 -0.1826  0.6285
   69MOL    H36 9692   2.889   7.101   6.236 -1.4972 -0.3618  0.4727
   69MOL    C37 9693   3.104   7.054   6.364 -0.7541 -0.8402  0.2740
   69MOL    C38 9694   3.099   7.063   6.520  0.8896 -0.3282  0.3741
   69MOL    O39 9695   2.958   7.060   6.557 -0.6868 -0.7786  0.2113
   69MOL    H40 9696   3.045   6.967   6.336  0.4366 -1.5744  0.0177
   69MOL    H41 9697   3.209   7.040   6.339 -0.2924  0.4531  1.3815
   69MOL    H42 9698   3.136   7.158   6.559 -1.5955  0.2898  1.3763
   69MOL    H43 9699   2.907   7.095   6.486  0.0948  1.3893  0.6608
   69MOL    C44 9700   3.178   6.955   6.587  0.7667  0.1941  0.2896
   69MOL    C45 9701   3.309   6.996   6.651  0.4536  0.5737  0.5340
   69MOL    O46 9702   3.301   7.099   6.745 -0.6686  0.3379  0.3592
   69MOL    H47 9703   3.123   6.931   6.678  1.4014  1.0312  0.9018
   69MOL    H48 9704   3.186   6.863   6.529 -0.2390  0.1666  0.1911
   69MOL    H49 9705   3.367   7.035   6.567 -1.3885  2.1346 -0.0580
   69MOL    H50 9706   3.231   7.089   6.808  0.4632 -1.1756  1.4232
   69MOL    C51 9707   3.382   6.884   6.728  0.6945 -0.2235  0.5984
   69MOL    C52 9708   3.427   6.763   6.648  0.2468 -0.3121  0.7275
   69MOL    O53 9709   3.497   6.784   6.523 -0.3120  0.0864  0.0291
   69MOL    H54 9710   3.474   6.929   6.766  0.7485  1.1642 -1.0955
   69MOL    H55 9711   3.319   6.853   6.811  1.8615 -3.1510  0.4552
   69MOL    H56 9712   3.335   6.715   6.614  0.4463  0.1039 -0.4333
   69MOL    H57 9713   3.560   6.853   6.541 -1.2817  1.8112 -2.8413
   69MOL    C58 9714   3.498   6.660   6.734  0.4609  0.1325 -0.2203
   69MOL    C59 9715   3.519   6.522   6.656 -0.0451 -0.5600  0.1900
   69MOL    O60 9716   3.611   6.451   6.734  0.0962 -0.4659 -0.8540
   69MOL    H61 9717   3.595   6.697   6.767  1.4657 -2.4873 -0.1154
   69MOL    H62 9718   3.439   6.634   6.822 -1.1568  1.0927 -1.0004
   69MOL    H63 9719   3.569   6.544   6.562 -1.7983 -3.4736 -1.4849
   69MOL    H64 9720   3.662   6.390   6.683 -2.7502 -1.8161 -2.2023
   69MOL    C65 9721   3.399   6.431   6.631  0.3094 -0.2235  0.5040
   69MOL    C66 9722   3.423   6.333   6.520  0.3282  0.0846  0.1657
   69MOL    O67 9723   3.511   6.228   6.560 -0.0485 -0.2650 -0.0661
   69MOL    H68 9724   3.373   6.378   6.722  0.6543 -0.6150  0.3771
   69MOL    H69 9725   3.311   6.492   6.608  2.3920  3.1263  1.0031
   69MOL    H70 9726   3.467   6.380   6.432  0.5474 -0.3600  0.0313
   69MOL    H71 9727   3.602   6.254   6.549 -0.1136  0.3243  0.7562
   69MOL    C72 9728   3.290   6.271   6.473  0.1376  1.0698  0.3220
   69MOL    C73 9729   3.221   6.330   6.351  0.0651 -0.9237 -0.3437
   69MOL    O74 9730   3.090   6.276   6.338 -0.0351  0.4569 -0.4053
   69MOL    H75 9731   3.309   6.166   6.451 -0.9282  1.3658 -2.1908
   69MOL    H76 9732   3.224   6.261   6.559 -0.0959  0.4127  0.0681
   69MOL    H77 9733   3.285   6.306   6.266  2.0943  1.3359  0.4704
   69MOL    H78 9734   3.044   6.346   6.294  0.9558  1.3446 -0.0403
   69MOL    C79 9735   3.202   6.481   6.352  0.2212 -0.1164 -0.4788
   69MOL    C80 9736   3.151   6.542   6.229  0.8067 -0.1190 -0.1998
   69MOL    O81 9737   3.015   6.515   6.241 -0.2542  0.1395 -0.0974
   69MOL    H82 9738   3.135   6.501   6.436  0.1166 -1.6906 -0.1675
   69MOL    H83 9739   3.303   6.520   6.362  0.0110  0.4430 -0.5198
   69MOL    H84 9740   3.191   6.509   6.133 -0.9970  1.0043 -1.3590
   69MOL    H85 9741   2.966   6.546   6.166  1.6119  2.1778 -0.5177
   69MOL    C86 9742   3.166   6.694   6.235  0.3035 -0.7035  0.4346
   69MOL    C87 9743   3.281   6.751   6.144 -0.3070  0.0956  0.3366
   69MOL    O88 9744   3.248   6.883   6.114  0.2249  0.3944  0.5956
   69MOL    H89 9745   3.079   6.753   6.210  0.6394  0.1294  1.1992
   69MOL    H90 9746   3.180   6.725   6.339  0.9882  0.2638  0.0630
   69MOL    H91 9747   3.276   6.690   6.054  2.1611 -1.4688  1.2199
   69MOL    H92 9748   3.269   6.896   6.023 -0.1087  2.0302  0.7395
   69MOL    C93 9749   3.424   6.724   6.200  0.3153  0.0077 -0.0046
   69MOL    C94 9750   3.547   6.740   6.109 -0.0110 -0.4976 -0.4938
   69MOL    O95 9751   3.659   6.761   6.190  0.2172  0.7418  0.0149
   69MOL    H96 9752   3.428   6.784   6.291 -0.2229  0.0960 -0.0340
   69MOL    H97 9753   3.439   6.625   6.243 -0.7528 -0.3097 -0.3469
   69MOL    H98 9754   3.523   6.835   6.060 -4.5916 -2.0205 -1.4666
   69MOL    H99 9755   3.668   6.854   6.197 -1.6187  1.0870 -1.7606
   69MOL   C100 9756   3.561   6.626   6.007 -0.8442 -0.1897 -0.3158
   69MOL   C101 9757   3.629   6.653   5.868  0.1642 -0.7773 -0.0112
   69MOL   O102 9758   3.539   6.739   5.796 -0.1992  0.4131  0.2934
   69MOL   H103 9759   3.622   6.544   6.044  0.6396  0.6337 -0.8875
   69MOL   H104 9760   3.465   6.577   5.997 -0.0948 -1.7173 -0.0660
   69MOL   H105 9761   3.649   6.554   5.829  2.2017 -0.1382 -0.6247
   69MOL   H106 9762   3.567   6.759   5.708 -1.6442 -1.8874 -0.7329
   69MOL   C107 9763   3.772   6.721   5.869 -0.4347  0.2332 -0.0751
   69MOL   C108 9764   3.880   6.625   5.942 -0.4452  1.3760 -0.0504
   69MOL   O109 9765   3.928   6.527   5.857  0.1798  0.2234  0.2245
   69MOL   H110 9766   3.798   6.732   5.764  0.6280 -0.5694  0.0919
   69MOL   H111 9767   3.772   6.818   5.919  1.8403  0.3165 -0.1902
   69MOL   H112 9768   3.824   6.570   6.017  2.8922  0.1735  1.6467
   69MOL   H113 9769   3.999   6.479   5.896 -0.6405 -2.1131 -1.0383
   69MOL   C114 9770   3.996   6.694   6.014  0.0958 -0.5695  0.5814
   69MOL   C115 9771   4.082   6.608   6.106 -0.3243 -0.5336 -0.1557
   69MOL   O116 9772   4.205   6.672   6.148 -0.4658 -0.7719 -0.2816
   69MOL   H117 9773   4.061   6.742   5.940 -0.6580 -1.4558 -0.6776
   69MOL   H118 9774   3.956   6.777   6.071 -0.0035 -1.8179  2.3491
   69MOL   H119 9775   4.114   6.521   6.049 -3.1086 -2.3578  0.9926
   69MOL   H120 9776   4.251   6.602   6.191 -0.0765 -0.0588  0.4748
   69MOL   C121 9777   4.020   6.534   6.225 -0.2867 -0.3919  0.2257
   69MOL   C122 9778   3.927   6.626   6.311 -0.1531  0.0888 -0.5529
   69MOL   O123 9779   3.823   6.548   6.363  0.0541 -0.4767  0.1320
   69MOL   H124 9780   3.961   6.456   6.176 -0.9421  0.0786  0.2642
   69MOL   H125 9781   4.097   6.478   6.279  0.4848  0.0551 -0.4060
   69MOL   H126 9782   3.889   6.714   6.258 -0.9416  0.6078  0.8563
   69MOL   H127 9783   3.743   6.591   6.338  0.3437  0.1372  0.2586
   69MOL   C128 9784   4.008   6.677   6.436  0.6167  0.2890 -0.0456
   69MOL   C129 9785   3.931   6.751   6.552 -0.0738 -0.4490  0.4461
   69MOL   O130 9786   4.048   6.808   6.620  0.1213  0.6569 -0.3530
   69MOL   H131 9787   4.062   6.593   6.477 -0.0231  0.1182  0.4522
   69MOL   H132 9788   4.077   6.748   6.390  1.5765 -1.0205 -0.6609
   69MOL   H133 9789   3.884   6.674   6.613  0.6946  0.1433  1.8217
   69MOL   H134 9790   4.097   6.860   6.558  0.1387  2.0563  0.8279
   69MOL   C135 9791   3.834   6.872   6.512  0.8877 -0.1689 -0.2412
   69MOL   C136 9792   3.775   6.937   6.638 -0.3696  1.3967  0.4194
   69MOL   O137 9793   3.659   7.011   6.612 -0.1203 -0.5214 -0.6181
   69MOL   H138 9794   3.891   6.949   6.460  0.5331  0.9296  0.9461
   69MOL   H139 9795   3.756   6.821   6.455  0.0686  1.5303 -0.6688
   69MOL   H140 9796   3.856   6.990   6.688  0.7209  0.1981 -0.0627
   69MOL   H141 9797   3.686   7.096   6.583  1.6002 -1.2602 -1.2359
   69MOL   H142 9798   3.746   6.855   6.703  2.6350 -0.5079 -0.5891
   70MOL     C1 9799   3.373   0.059   3.918  0.2447  0.6040 -0.3454
   70MOL     C2 9800   3.379   0.159   4.040 -0.1727 -0.9432 -0.9361
   70MOL     O3 9801   3.398   0.081   4.158  0.2002  0.3615  0.2566
   70MOL     H4 9802   3.301   7.498   3.930 -1.2516  1.8714 -0.6877
   70MOL     H5 9803   3.476   0.024   3.906 -0.6258 -2.0640 -0.3165
   70MOL     H6 9804   3.281   0.207   4.044 -0.2167 -0.9503 -1.9311
   70MOL     H7 9805   3.372   0.136   4.230 -2.4010  0.5514 -0.7472
   70MOL     H8 9806   3.349   0.099   3.820 -1.0905  1.2047  0.2207
   70MOL     C9 9807   3.492   0.262   4.025  0.7163  0.3306 -0.1338
   70MOL    C10 9808   3.490   0.380   4.124 -0.2697  0.3935 -0.0028
   70MOL    O11 9809   3.597   0.370   4.217 -0.5157 -0.3949  0.4705
   70MOL    H12 9810   3.585   0.206   4.035 -0.2465 -1.3667 -0.4004
   70MOL    H13 9811   3.495   0.301   3.923  2.3790  1.2848  0.2565
   70MOL    H14 9812   3.400   0.389   4.184  0.4381  0.8607  0.9880
   70MOL    H15 9813   3.568   0.423   4.290 -2.7783 -0.1429 -0.5693
   70MOL    C16 9814   3.492   0.516   4.050 -0.1845  0.7747  0.1398
   70MOL    C17 9815   3.350   0.566   4.010  0.5761  0.1207  0.2205
   70MOL    O18 9816   3.360   0.704   3.982 -0.2581  0.2926  0.0731
   70MOL    H19 9817   3.525   0.597   4.114  0.0057  1.4286 -0.7738
   70MOL    H20 9818   3.556   0.518   3.962 -0.7914  0.6374 -0.3060
   70MOL    H21 9819   3.267   0.540   4.076 -0.2652 -0.3395 -0.9935
   70MOL    H22 9820   3.274   0.744   3.985 -0.2572  0.3551 -0.6300
   70MOL    C23 9821   3.317   0.490   3.882 -0.3720  0.0663 -0.3177
   70MOL    C24 9822   3.185   0.535   3.807  0.5891 -0.4082  0.0516
   70MOL    O25 9823   3.169   0.452   3.697  0.0009  0.1791 -0.2040
   70MOL    H26 9824   3.404   0.491   3.817  0.9120 -1.0940  1.3366
   70MOL    H27 9825   3.303   0.385   3.908 -1.0943  0.4528  0.9332
   70MOL    H28 9826   3.175   0.642   3.786  2.8320 -0.3255 -0.6408
   70MOL    H29 9827   3.242   0.466   3.640  1.9496 -1.4416  1.7763
   70MOL    C30 9828   3.052   0.523   3.894 -0.5306  0.3225  0.6067
   70MOL    C31 9829   2.914   0.559   3.827  0.2287 -0.2425 -0.1567
   70MOL    O32 9830   2.900   0.472   3.718 -0.0091 -0.1303  0.0447
   70MOL    H33 9831   3.054   0.419   3.927  0.4149  0.8035  2.1055
   70MOL    H34 9832   3.062   0.579   3.987 -1.4504 -0.7639  1.3782
   70MOL    H35 9833   2.927   0.663   3.795  1.0727 -0.7088 -1.3702
   70MOL    H36 9834   2.985   0.468   3.678 -0.9026  3.5992 -2.4485
   70MOL    C37 9835   2.797   0.549   3.924  0.1807 -0.1875  0.1642
   70MOL    C38 9836   2.649   0.549   3.861  0.5956 -0.1502 -0.0971
   70MOL    O39 9837   2.564   0.504   3.962  0.6024 -0.2355 -0.2950
   70MOL    H40 9838   2.799   0.456   3.980 -0.3287  0.1342  0.7198
   70MOL    H41 9839   2.803   0.626   4.000  1.0568 -0.1612  0.0679
   70MOL    H42 9840   2.651   0.494   3.767  0.8164  1.1161 -0.8465
   70MOL    H43 9841   2.480   0.539   3.938  1.3930  1.7836 -0.2476
   70MOL    C44 9842   2.584   0.692   3.838 -0.1408 -0.2630 -0.3152
   70MOL    C45 9843   2.442   0.688   3.774  0.5429  0.1472 -0.2004
   70MOL    O46 9844   2.352   0.650   3.879 -0.3000  0.3331  0.7155
   70MOL    H47 9845   2.579   0.743   3.934  0.9469  0.0555 -0.4277
   70MOL    H48 9846   2.651   0.762   3.789 -0.7183  0.1908 -0.4708
   70MOL    H49 9847   2.437   0.608   3.700  1.2391  0.0659 -0.1653
   70MOL    H50 9848   2.280   0.609   3.834  0.6397  1.4136 -1.8868
   70MOL    C51 9849   2.403   0.823   3.712 -0.2424  0.2593  0.4175
   70MOL    C52 9850   2.466   0.834   3.571  0.2212 -0.4417 -0.2221
   70MOL    O53 9851   2.365   0.786   3.475  0.1775  0.1795  0.3717
   70MOL    H54 9852   2.295   0.818   3.700 -0.0592  2.0971 -2.6445
   70MOL    H55 9853   2.423   0.909   3.776 -1.1924  0.4980  0.3966
   70MOL    H56 9854   2.549   0.767   3.550  0.6650 -0.3400  1.1406
   70MOL    H57 9855   2.348   0.695   3.494  1.0480  0.2456  1.5362
   70MOL    C58 9856   2.499   0.981   3.524 -0.1217 -0.6271 -0.1290
   70MOL    C59 9857   2.630   1.036   3.589  0.0946 -0.0564 -0.5077
   70MOL    O60 9858   2.733   0.947   3.576 -0.8308  0.6005  0.0134
   70MOL    H61 9859   2.511   0.978   3.416 -1.7308  1.4460 -0.3845
   70MOL    H62 9860   2.420   1.052   3.544  2.0366  1.3460  1.7729
   70MOL    H63 9861   2.624   1.049   3.697 -0.6616 -2.1062 -0.2742
   70MOL    H64 9862   2.748   0.929   3.485  1.1400  2.7338 -0.1253
   70MOL    C65 9863   2.668   1.172   3.536  0.1917 -0.3594 -0.0329
   70MOL    C66 9864   2.750   1.253   3.639  0.4718 -0.1774  0.5566
   70MOL    O67 9865   2.869   1.199   3.684  0.0074  0.4360 -0.1811
   70MOL    H68 9866   2.721   1.161   3.442 -1.0565  0.6600 -0.8759
   70MOL    H69 9867   2.582   1.231   3.504  1.8342  1.4188 -1.2442
   70MOL    H70 9868   2.680   1.264   3.722  0.2718 -0.8400  0.4729
   70MOL    H71 9869   2.857   1.107   3.664 -0.9729  0.7968 -1.2799
   70MOL    C72 9870   2.780   1.394   3.575 -0.0188  0.3125  0.0203
   70MOL    C73 9871   2.803   1.509   3.680 -0.7944  0.4103  0.8957
   70MOL    O74 9872   2.928   1.485   3.745  0.4451  0.0055  0.3494
   70MOL    H75 9873   2.859   1.381   3.501  0.2207  3.6146 -0.3663
   70MOL    H76 9874   2.692   1.418   3.516 -0.6637  3.6386  2.2313
   70MOL    H77 9875   2.725   1.504   3.756 -0.6753 -2.5517  0.9161
   70MOL    H78 9876   2.930   1.395   3.771 -1.3023  0.3379  1.7470
   70MOL    C79 9877   2.807   1.651   3.618  0.0825 -0.3276  0.4658
   70MOL    C80 9878   2.819   1.772   3.701 -0.0006  0.0833  0.1643
   70MOL    O81 9879   2.761   1.880   3.632 -0.3636 -0.0743 -0.1509
   70MOL    H82 9880   2.872   1.660   3.531 -1.0386  0.3884 -0.3086
   70MOL    H83 9881   2.706   1.652   3.578 -0.4085 -0.7720  1.6745
   70MOL    H84 9882   2.924   1.799   3.698  0.3153 -1.0520  0.6851
   70MOL    H85 9883   2.824   1.946   3.608  0.7626 -0.5424  1.4490
   70MOL    C86 9884   2.748   1.770   3.839 -0.2695  0.9605  0.1383
   70MOL    C87 9885   2.769   1.900   3.921 -0.4575 -0.4326 -0.4237
   70MOL    O88 9886   2.675   1.984   3.873  0.1741 -0.7380 -0.1445
   70MOL    H89 9887   2.641   1.764   3.822 -0.3463 -3.1745  1.6127
   70MOL    H90 9888   2.777   1.677   3.886 -0.8236  1.4636  1.4968
   70MOL    H91 9889   2.868   1.942   3.901  0.5168 -1.0370  2.7903
   70MOL    H92 9890   2.684   1.986   3.779  1.5453 -0.6098 -0.0206
   70MOL    C93 9891   2.747   1.875   4.073  0.5341 -0.3507 -1.1441
   70MOL    C94 9892   2.869   1.799   4.149 -0.7589 -0.1555  0.4880
   70MOL    O95 9893   2.978   1.891   4.154  0.0932 -0.2598 -0.4993
   70MOL    H96 9894   2.727   1.967   4.128 -0.4776 -0.8933 -0.6033
   70MOL    H97 9895   2.668   1.803   4.090  0.5275 -0.5651 -2.0629
   70MOL    H98 9896   2.914   1.721   4.087 -1.2413 -0.4014  0.4477
   70MOL    H99 9897   3.031   1.885   4.077  2.4428  0.4358  1.0072
   70MOL   C100 9898   2.836   1.747   4.290 -0.4762  0.1690  0.1365
   70MOL   C101 9899   2.797   1.598   4.310 -0.1431  0.5023  0.6840
   70MOL   O102 9900   2.780   1.548   4.440  0.2436 -0.3454 -0.0320
   70MOL   H103 9901   2.924   1.762   4.353 -2.1536 -1.0384  2.8503
   70MOL   H104 9902   2.761   1.812   4.336  0.8971  2.1859 -0.3788
   70MOL   H105 9903   2.876   1.530   4.278 -0.2125  0.3430  0.8505
   70MOL   H106 9904   2.738   1.609   4.499  0.9132  0.4117 -0.3271
   70MOL   C107 9905   2.671   1.568   4.229 -0.7691 -0.3959 -0.1803
   70MOL   C108 9906   2.619   1.419   4.234  0.4115  0.4096  0.3960
   70MOL   O109 9907   2.477   1.424   4.222  0.3249  0.4158  0.1151
   70MOL   H110 9908   2.589   1.632   4.262 -0.0124  0.1780  0.6397
   70MOL   H111 9909   2.686   1.597   4.125  2.0379  0.6852  0.4698
   70MOL   H112 9910   2.631   1.367   4.329 -1.2723 -0.4964  0.1311
   70MOL   H113 9911   2.430   1.419   4.304 -2.8404 -0.9730 -1.6993
   70MOL   C114 9912   2.682   1.341   4.123 -0.1249 -0.2091 -0.1326
   70MOL   C115 9913   2.628   1.192   4.106  0.1728  0.3386  0.1897
   70MOL   O116 9914   2.499   1.192   4.053 -0.1524 -0.3153 -0.1283
   70MOL   H117 9915   2.678   1.406   4.036 -1.8197  1.0785  0.8732
   70MOL   H118 9916   2.784   1.334   4.159 -0.0896 -0.8152 -0.3421
   70MOL   H119 9917   2.610   1.145   4.202 -2.5943 -0.0154 -0.4616
   70MOL   H120 9918   2.446   1.244   4.112  1.4188 -0.1045  1.1469
   70MOL   C121 9919   2.715   1.094   4.019 -0.2952  0.2968 -0.7728
   70MOL   C122 9920   2.865   1.083   4.069  0.2139 -0.3597 -0.5000
   70MOL   O123 9921   2.877   1.061   4.205 -0.3049 -0.0831  0.2909
   70MOL   H124 9922   2.663   0.999   4.023 -1.4455  0.9224 -0.6833
   70MOL   H125 9923   2.721   1.132   3.917 -0.8068 -1.1467 -1.3528
   70MOL   H126 9924   2.916   1.179   4.057 -0.1264 -0.4092 -2.4082
   70MOL   H127 9925   2.799   1.012   4.224 -0.0233 -1.4419 -1.9380
   70MOL   C128 9926   2.940   0.973   3.987  0.1382  0.2893 -0.3208
   70MOL   C129 9927   3.095   0.970   3.985 -0.2244 -0.9789 -0.2605
   70MOL   O130 9928   3.138   0.868   3.902 -0.3146  0.4167 -0.0623
   70MOL   H131 9929   2.905   0.872   4.005  1.7358 -0.0411  1.0413
   70MOL   H132 9930   2.904   0.988   3.885  1.3107 -0.7194 -0.9048
   70MOL   H133 9931   3.138   0.958   4.084 -1.3955 -2.3274  0.0977
   70MOL   H134 9932   3.103   0.891   3.817 -1.5885  3.4186  1.1876
   70MOL   C135 9933   3.153   1.102   3.927  0.0597  0.7434 -0.2149
   70MOL   C136 9934   3.311   1.100   3.900  0.0289  0.0490  0.6986
   70MOL   O137 9935   3.358   1.224   3.839 -0.5245 -0.3467  0.1345
   70MOL   H138 9936   3.090   1.131   3.844 -0.1413  1.6961  0.2647
   70MOL   H139 9937   3.141   1.181   4.001 -1.5163  0.3224 -0.0140
   70MOL   H140 9938   3.341   1.013   3.841  0.9272  0.9147 -0.1365
   70MOL   H141 9939   3.346   1.211   3.746 -1.5194  0.5149  0.1382
   70MOL   H142 9940   3.353   1.074   3.997 -1.3581 -1.8251  0.8288
   71MOL     C1 9941   3.414   1.471   4.266  0.4520  0.6642  0.0268
   71MOL     C2 9942   3.324   1.348   4.245  0.1057  0.3653  0.3540
   71MOL     O3 9943   3.328   1.269   4.361  0.1201 -0.9451  0.4170
   71MOL     H4 9944   3.443   1.526   4.176 -1.3129  0.2355 -0.8349
   71MOL     H5 9945   3.505   1.434   4.313  0.1615 -1.8895 -1.3309
   71MOL     H6 9946   3.358   1.281   4.166 -0.7105  1.3963 -0.8871
   71MOL     H7 9947   3.270   1.195   4.347  2.3358 -3.1798  2.6030
   71MOL     H8 9948   3.373   1.542   4.338  3.4302  3.1854 -0.6650
   71MOL     C9 9949   3.175   1.372   4.223  0.0777 -1.5858  0.2116
   71MOL    C10 9950   3.139   1.452   4.092  0.8550 -0.0527 -0.0747
   71MOL    O11 9951   3.009   1.423   4.055 -0.2841 -0.4328  0.2078
   71MOL    H12 9952   3.129   1.275   4.205 -0.5835 -1.5060  1.4130
   71MOL    H13 9953   3.125   1.414   4.310  0.7184 -1.3515  0.4740
   71MOL    H14 9954   3.195   1.408   4.011  3.6008 -1.5937  2.5641
   71MOL    H15 9955   2.999   1.450   3.966  0.3130  1.3095  0.6614
   71MOL    C16 9956   3.158   1.603   4.100  0.2819  0.3163  0.5161
   71MOL    C17 9957   3.171   1.680   3.969 -0.2162  0.0278 -0.2775
   71MOL    O18 9958   3.163   1.815   3.979 -0.3645 -0.5125 -0.5062
   71MOL    H19 9959   3.079   1.643   4.163 -1.3678  0.9976 -1.9064
   71MOL    H20 9960   3.253   1.624   4.149  0.0665 -0.9490  1.5203
   71MOL    H21 9961   3.100   1.643   3.895 -1.5742  0.6156  0.7180
   71MOL    H22 9962   3.169   1.863   3.898 -0.3319  0.8743  0.3129
   71MOL    C23 9963   3.310   1.663   3.907 -0.4820 -0.1576 -0.6640
   71MOL    C24 9964   3.325   1.693   3.754 -0.0347 -0.6408 -0.1584
   71MOL    O25 9965   3.465   1.720   3.729  0.2652  0.0317  0.3320
   71MOL    H26 9966   3.385   1.715   3.967 -2.6417  0.7092  1.3674
   71MOL    H27 9967   3.330   1.556   3.916 -0.0302  0.0775  1.2662
   71MOL    H28 9968   3.263   1.780   3.733 -2.8417 -2.9232 -1.6226
   71MOL    H29 9969   3.523   1.663   3.777  0.7837  0.0646 -0.2468
   71MOL    C30 9970   3.290   1.574   3.661 -0.3661  0.4245  0.8773
   71MOL    C31 9971   3.302   1.616   3.508  0.3529 -0.2160 -0.6560
   71MOL    O32 9972   3.300   1.499   3.426  0.5550  0.3155 -0.2661
   71MOL    H33 9973   3.344   1.487   3.700 -1.8158 -1.9851 -2.2454
   71MOL    H34 9974   3.187   1.541   3.670 -0.2384 -0.5502 -0.9685
   71MOL    H35 9975   3.397   1.669   3.494 -0.1308  1.0068  0.5921
   71MOL    H36 9976   3.378   1.449   3.446  0.6149  0.7546  0.6378
   71MOL    C37 9977   3.188   1.706   3.454 -0.4077 -0.0530  0.7605
   71MOL    C38 9978   3.212   1.771   3.317 -0.4294  0.6111 -0.7692
   71MOL    O39 9979   3.084   1.784   3.260  0.2468  0.3955  0.6380
   71MOL    H40 9980   3.098   1.647   3.437  0.8197 -1.0667 -2.4561
   71MOL    H41 9981   3.166   1.787   3.524 -0.0603  0.1726  0.6082
   71MOL    H42 9982   3.251   1.696   3.247 -0.8403  0.2540 -0.6201
   71MOL    H43 9983   3.059   1.874   3.273  0.9264  0.8118 -0.7553
   71MOL    C44 9984   3.275   1.916   3.311 -0.6868  0.4668 -0.5437
   71MOL    C45 9985   3.421   1.937   3.341  0.1537 -0.2701  0.2054
   71MOL    O46 9986   3.509   1.851   3.267 -0.3871  0.4112 -0.3426
   71MOL    H47 9987   3.253   1.954   3.211  0.0697  2.3894  0.0089
   71MOL    H48 9988   3.234   1.991   3.377 -1.5861 -0.3927 -0.1135
   71MOL    H49 9989   3.437   1.900   3.443 -0.8096 -0.2144  0.3879
   71MOL    H50 9990   3.566   1.815   3.334 -0.4730  0.0808 -0.4476
   71MOL    C51 9991   3.461   2.088   3.342  1.2625  0.1304  0.1957
   71MOL    C52 9992   3.518   2.153   3.466 -0.9895  0.5510 -0.7465
   71MOL    O53 9993   3.555   2.277   3.417  0.2873  0.1529  0.1660
   71MOL    H54 9994   3.541   2.095   3.268 -0.2825  1.3432 -1.3796
   71MOL    H55 9995   3.376   2.150   3.312  1.2703 -0.0756 -0.2560
   71MOL    H56 9996   3.614   2.115   3.503 -0.9768  1.4260  0.1537
   71MOL    H57 9997   3.555   2.336   3.491 -2.6043 -0.7705  0.9697
   71MOL    C58 9998   3.416   2.167   3.579 -0.0577  0.3447  0.0283
   71MOL    C59 9999   3.403   2.038   3.662  0.1750  0.8260  0.2987
   71MOL    O6010000   3.530   1.982   3.682 -0.1362 -0.2969  0.0836
   71MOL    H6110001   3.443   2.250   3.645  1.8442 -2.3709  2.8453
   71MOL    H6210002   3.319   2.184   3.531 -0.1979 -0.7050 -0.0609
   71MOL    H6310003   3.332   1.973   3.610  1.8826 -1.3540  0.6499
   71MOL    H6410004   3.514   1.894   3.712  0.3682  0.0946  1.5648
   71MOL    C6510005   3.347   2.053   3.800  0.5242 -0.4805  0.0757
   71MOL    C6610006   3.212   2.131   3.808  0.2110 -0.4693  0.2123
   71MOL    O6710007   3.112   2.032   3.800  0.7065  0.2928 -0.2870
   71MOL    H6810008   3.330   1.954   3.843  1.9818 -1.3641 -1.3248
   71MOL    H6910009   3.433   2.096   3.851  0.8733 -0.1085 -0.8218
   71MOL    H7010010   3.200   2.213   3.737 -1.4500 -0.3017  0.6709
   71MOL    H7110011   3.034   2.085   3.797  0.9418  0.6084 -1.0379
   71MOL    C7210012   3.205   2.195   3.946 -0.0275  0.2055 -0.6602
   71MOL    C7310013   3.099   2.307   3.963  0.4680 -0.1497 -0.1296
   71MOL    O7410014   2.972   2.264   3.922  0.0175  0.6094 -0.6940
   71MOL    H7510015   3.178   2.124   4.023 -3.2254  0.2199 -1.6964
   71MOL    H7610016   3.304   2.226   3.980  0.2853 -1.6122  0.1044
   71MOL    H7710017   3.125   2.383   3.890 -1.5405  1.4100  0.7562
   71MOL    H7810018   2.910   2.269   3.992 -0.8669  1.5299 -1.5388
   71MOL    C7910019   3.106   2.389   4.100 -0.1186  0.0565  0.1413
   71MOL    C8010020   2.983   2.484   4.123 -0.7621  1.0750 -0.3730
   71MOL    O8110021   2.882   2.405   4.181 -0.2172 -0.6628  0.3499
   71MOL    H8210022   3.116   2.326   4.188  0.1578 -0.8032 -0.4932
   71MOL    H8310023   3.196   2.450   4.104  0.3592 -0.6659  0.4858
   71MOL    H8410024   2.959   2.532   4.028  1.8888  2.9527 -0.1526
   71MOL    H8510025   2.811   2.466   4.192  0.0239  0.0589 -1.8673
   71MOL    C8610026   3.021   2.609   4.211  0.5172 -0.1644  0.2380
   71MOL    C8710027   2.937   2.740   4.185 -0.2353 -0.6519  0.1504
   71MOL    O8810028   2.803   2.707   4.217 -0.0106  0.3360  0.1047
   71MOL    H8910029   3.028   2.578   4.315  0.0557 -1.4160 -0.0842
   71MOL    H9010030   3.122   2.639   4.182  0.9153 -0.9921  0.7560
   71MOL    H9110031   2.935   2.777   4.083  1.5182 -2.5000 -0.5845
   71MOL    H9210032   2.755   2.698   4.136 -2.6374  1.1799  1.5114
   71MOL    C9310033   2.982   2.860   4.270  0.3952  0.7115  0.5975
   71MOL    C9410034   3.111   2.928   4.225 -0.1863  0.2499  0.6787
   71MOL    O9510035   3.093   2.981   4.097  0.1048 -0.1673  0.5420
   71MOL    H9610036   2.908   2.940   4.275  2.0294  2.3194 -0.1074
   71MOL    H9710037   2.992   2.815   4.369  4.5688 -1.1216 -0.5156
   71MOL    H9810038   3.189   2.852   4.215 -0.8682  0.0475 -4.0315
   71MOL    H9910039   3.015   3.032   4.111  2.0344  2.3283  2.6094
   71MOL   C10010040   3.160   3.045   4.316 -0.5007 -0.0263  0.0058
   71MOL   C10110041   3.178   3.008   4.469 -0.7279  0.6691 -0.2951
   71MOL   O10210042   3.313   3.030   4.498  0.7269  0.0482  0.3550
   71MOL   H10310043   3.253   3.078   4.270  0.8403 -2.1411  1.0814
   71MOL   H10410044   3.089   3.124   4.296  1.3675  0.9169 -3.2626
   71MOL   H10510045   3.157   2.905   4.499 -2.0495  1.3412  1.1802
   71MOL   H10610046   3.352   2.960   4.549 -1.4653 -1.4030  0.1093
   71MOL   C10710047   3.096   3.091   4.574 -0.0829 -0.2349 -0.6931
   71MOL   C10810048   3.010   2.996   4.660 -0.6119 -0.4473 -0.0237
   71MOL   O10910049   3.073   2.908   4.746 -0.1157 -0.2529 -0.3097
   71MOL   H11010050   3.165   3.133   4.647 -0.0181 -0.2175 -0.7644
   71MOL   H11110051   3.044   3.171   4.523  1.3866  2.1424  1.4448
   71MOL   H11210052   2.955   2.925   4.597 -0.4931 -0.5460 -0.0169
   71MOL   H11310053   3.103   2.958   4.820  0.1360 -1.3173  0.3291
   71MOL   C11410054   2.907   3.080   4.737 -0.2075  0.1285 -0.2538
   71MOL   C11510055   2.784   3.109   4.645 -0.3510 -0.3496 -0.3999
   71MOL   O11610056   2.682   3.005   4.650 -0.1934  0.1265  0.1983
   71MOL   H11710057   2.871   3.022   4.822  1.7823 -0.6609  0.0654
   71MOL   H11810058   2.955   3.170   4.773 -2.8133  1.3751  0.2356
   71MOL   H11910059   2.817   3.114   4.541 -1.8044 -1.6010 -0.9375
   71MOL   H12010060   2.729   2.932   4.614  1.1143  1.0328  0.0384
   71MOL   C12110061   2.717   3.243   4.677  0.7732  0.7068  0.2095
   71MOL   C12210062   2.637   3.317   4.566  0.0790 -0.2444  0.6130
   71MOL   O12310063   2.564   3.426   4.617  0.7391  0.0167  0.2935
   71MOL   H12410064   2.659   3.220   4.766 -0.2006  2.1065 -0.0603
   71MOL   H12510065   2.791   3.319   4.703 -0.1910  2.1271 -1.1575
   71MOL   H12610066   2.567   3.255   4.511  0.2753  0.0862 -0.0139
   71MOL   H12710067   2.487   3.384   4.651  1.3847 -0.9840  0.5420
   71MOL   C12810068   2.743   3.374   4.469 -0.5978  0.1811  0.1490
   71MOL   C12910069   2.692   3.449   4.347 -0.2349  0.7072 -0.7151
   71MOL   O13010070   2.797   3.484   4.263  0.3705 -0.2747 -0.6507
   71MOL   H13110071   2.813   3.433   4.529  0.2490 -2.0553  1.4052
   71MOL   H13210072   2.814   3.295   4.448  1.3758  1.2751  2.4177
   71MOL   H13310073   2.654   3.546   4.381  1.8936  0.5068  2.4301
   71MOL   H13410074   2.858   3.516   4.329  0.1002  1.6329 -1.2926
   71MOL   C13510075   2.571   3.378   4.274  0.0219  0.3875 -0.2396
   71MOL   C13610076   2.517   3.452   4.153 -0.2497  0.1619  0.1404
   71MOL   O13710077   2.403   3.396   4.093 -0.2368 -0.7386  0.0162
   71MOL   H13810078   2.594   3.273   4.257 -2.2980  0.1016 -1.9592
   71MOL   H13910079   2.491   3.387   4.347 -0.5452 -0.7828 -0.6994
   71MOL   H14010080   2.595   3.454   4.077  0.8071  0.1993  1.2194
   71MOL   H14110081   2.409   3.429   4.005  0.9921  0.0064  0.3666
   71MOL   H14210082   2.493   3.556   4.176 -0.6413  0.3532 -1.0958
   72MOL     C110083   0.950   5.208   1.190  0.1554 -0.2668 -0.1345
   72MOL     C210084   0.810   5.273   1.169  0.2695  0.7809 -0.2152
   72MOL     O310085   0.821   5.405   1.114 -0.4501  0.2664 -0.0383
   72MOL     H410086   1.001   5.201   1.094 -0.3429 -1.5902 -0.3048
   72MOL     H510087   0.938   5.118   1.249  0.9949  0.2700  0.8544
   72MOL     H610088   0.766   5.301   1.265  0.8104 -0.7219  0.4857
   72MOL     H710089   0.861   5.393   1.029 -0.7459  0.9561 -0.2740
   72MOL     H810090   1.014   5.275   1.247  0.4368  0.0568 -0.8277
   72MOL     C910091   0.718   5.181   1.078  0.2790  0.0684  0.3721
   72MOL    C1010092   0.568   5.233   1.080  0.8664  0.5334  0.0881
   72MOL    O1110093   0.492   5.171   0.978  0.2150 -0.4700 -0.2575
   72MOL    H1210094   0.742   5.185   0.972  0.7034 -1.2851  0.4050
   72MOL    H1310095   0.721   5.076   1.109  2.0334  0.0613  0.2630
   72MOL    H1410096   0.567   5.339   1.055 -1.1373  1.5813  4.1651
   72MOL    H1510097   0.503   5.235   0.910 -0.9404  0.6560  0.6030
   72MOL    C1610098   0.489   5.196   1.212 -0.3252 -0.1050 -0.5781
   72MOL    C1710099   0.349   5.268   1.222 -0.0329  0.5018 -0.0010
   72MOL    O1810100   0.245   5.177   1.247 -0.5656 -0.4207  0.2282
   72MOL    H1910101   0.487   5.088   1.228 -0.3799 -0.1502 -0.8965
   72MOL    H2010102   0.548   5.242   1.292 -0.8481 -0.1627 -0.1566
   72MOL    H2110103   0.329   5.319   1.127 -0.4684  0.2873 -0.0257
   72MOL    H2210104   0.198   5.180   1.166  0.6886  1.5544 -0.4370
   72MOL    C2310105   0.337   5.371   1.337 -0.1178  0.3828 -0.4206
   72MOL    C2410106   0.392   5.517   1.325 -0.0502  0.4012 -0.2130
   72MOL    O2510107   0.353   5.600   1.433  0.6800  0.3489  0.1437
   72MOL    H2610108   0.231   5.388   1.359 -0.6960 -2.8262 -0.4592
   72MOL    H2710109   0.377   5.321   1.425 -1.1542 -0.3102 -0.3315
   72MOL    H2810110   0.352   5.563   1.235 -1.8758  1.1052  0.9179
   72MOL    H2910111   0.352   5.555   1.516 -0.6355  0.7531  0.3581
   72MOL    C3010112   0.550   5.529   1.316 -0.2973 -0.8195  0.0238
   72MOL    C3110113   0.612   5.670   1.271 -0.0034  0.1293  0.1868
   72MOL    O3210114   0.752   5.639   1.248 -0.4936 -0.6249  0.1707
   72MOL    H3310115   0.591   5.509   1.415  0.3439 -1.3979 -0.3570
   72MOL    H3410116   0.599   5.457   1.251 -1.2274  0.1785 -1.8507
   72MOL    H3510117   0.615   5.749   1.346 -3.0256  2.1881 -1.7482
   72MOL    H3610118   0.756   5.567   1.187 -1.0808  0.7975 -1.6068
   72MOL    C3710119   0.553   5.723   1.136  0.4539 -0.4425 -0.8294
   72MOL    C3810120   0.620   5.845   1.061 -0.0509  0.8020  0.5061
   72MOL    O3910121   0.571   5.861   0.927  0.1772 -0.4153  0.1888
   72MOL    H4010122   0.547   5.639   1.066 -1.3949 -0.4333 -0.7249
   72MOL    H4110123   0.450   5.753   1.155  1.0074 -0.6962  2.8838
   72MOL    H4210124   0.726   5.822   1.052  0.0510  1.1006  0.9539
   72MOL    H4310125   0.597   5.796   0.863  1.9802  1.0471 -0.6254
   72MOL    C4410126   0.610   5.969   1.146  0.6763 -0.4481  0.0001
   72MOL    C4510127   0.682   6.092   1.087  0.0660 -0.2363  0.2725
   72MOL    O4610128   0.653   6.206   1.164 -0.1773 -0.0931  0.3606
   72MOL    H4710129   0.507   5.991   1.175  1.1505 -1.2440  2.4034
   72MOL    H4810130   0.657   5.961   1.244 -2.2217 -1.9080  1.3462
   72MOL    H4910131   0.645   6.122   0.988 -0.8966 -1.2623  0.3133
   72MOL    H5010132   0.562   6.226   1.151 -0.2527 -0.4235  0.3943
   72MOL    C5110133   0.835   6.062   1.080 -0.3350 -0.8261 -0.0286
   72MOL    C5210134   0.924   6.192   1.041  0.5717  0.2473  0.0917
   72MOL    O5310135   1.055   6.148   1.030 -0.1454  0.6277  0.1560
   72MOL    H5410136   0.865   6.029   1.179 -0.5823  0.0972  0.3582
   72MOL    H5510137   0.876   5.991   1.008  3.2002  0.5989  0.5276
   72MOL    H5610138   0.932   6.257   1.128 -0.1478  0.8782 -0.3014
   72MOL    H5710139   1.107   6.205   1.085 -0.6259  1.3694 -0.1547
   72MOL    C5810140   0.886   6.283   0.922 -0.2671 -0.3776  0.2268
   72MOL    C5910141   0.847   6.221   0.790 -1.1530  0.2077  0.0507
   72MOL    O6010142   0.807   6.331   0.707 -0.2883 -0.0402  0.0568
   72MOL    H6110143   0.802   6.348   0.947 -1.5062 -1.5201 -0.8741
   72MOL    H6210144   0.975   6.345   0.915 -0.7511  0.1491 -1.5913
   72MOL    H6310145   0.758   6.159   0.793 -0.5055 -0.7921 -1.1571
   72MOL    H6410146   0.737   6.374   0.754 -1.8426 -0.7159 -1.5821
   72MOL    C6510147   0.973   6.153   0.729 -0.1358  0.0210 -0.5821
   72MOL    C6610148   0.951   6.071   0.601  0.3252  0.0548 -0.3897
   72MOL    O6710149   0.918   6.168   0.500 -0.8439 -0.0283 -0.2072
   72MOL    H6810150   1.061   6.216   0.727 -0.0946 -0.0361 -0.5441
   72MOL    H6910151   1.011   6.075   0.794  0.2600 -0.1107 -0.9702
   72MOL    H7010152   0.860   6.014   0.620 -0.8329  1.2359 -2.1731
   72MOL    H7110153   0.870   6.230   0.553 -0.7790  0.9640 -1.3014
   72MOL    C7210154   1.077   5.988   0.551  0.9374 -0.5247  0.7064
   72MOL    C7310155   1.028   5.844   0.523 -0.0167  0.8524 -0.1734
   72MOL    O7410156   1.133   5.795   0.446  0.4088 -0.4322  0.0869
   72MOL    H7510157   1.108   6.041   0.460  0.5621 -0.5795  0.5480
   72MOL    H7610158   1.152   5.990   0.630  1.5332  0.1217  0.1331
   72MOL    H7710159   0.941   5.831   0.459  0.8579 -1.5540 -0.9304
   72MOL    H7810160   1.122   5.848   0.369 -3.0711 -0.0322  0.7456
   72MOL    C7910161   1.022   5.751   0.647  0.0755  0.3456 -0.5938
   72MOL    C8010162   0.985   5.601   0.617  0.3222  0.8443 -0.1793
   72MOL    O8110163   1.098   5.549   0.558 -0.5523 -0.2941 -0.4439
   72MOL    H8210164   1.115   5.754   0.703 -0.3175  1.3752  0.0203
   72MOL    H8310165   0.944   5.801   0.704 -0.0151 -1.3319  0.7878
   72MOL    H8410166   0.895   5.592   0.555  0.3608  0.6425 -0.2049
   72MOL    H8510167   1.119   5.611   0.491  1.0029 -1.4093 -1.0226
   72MOL    C8610168   0.959   5.531   0.751 -0.2147 -0.1770  0.5048
   72MOL    C8710169   0.859   5.420   0.747  0.3605 -0.5064 -0.0092
   72MOL    O8810170   0.897   5.330   0.845  0.2679 -0.2351 -0.0699
   72MOL    H8910171   1.055   5.490   0.782 -0.3290 -1.3718 -0.6634
   72MOL    H9010172   0.931   5.596   0.834  1.0954  0.4565  0.4581
   72MOL    H9110173   0.860   5.372   0.649 -0.0425  0.7423 -0.6237
   72MOL    H9210174   0.960   5.269   0.810 -1.3911 -1.2464 -1.3912
   72MOL    C9310175   0.714   5.465   0.775 -0.7599 -0.6243 -0.3431
   72MOL    C9410176   0.608   5.366   0.741  0.4180  0.5393  0.3697
   72MOL    O9510177   0.490   5.402   0.815 -0.5339 -0.0841 -0.1576
   72MOL    H9610178   0.708   5.485   0.882  0.0055 -0.0664 -0.4021
   72MOL    H9710179   0.695   5.558   0.722  0.6692  0.4909  1.0386
   72MOL    H9810180   0.649   5.271   0.775 -0.6384 -0.2070 -0.3857
   72MOL    H9910181   0.455   5.483   0.781 -0.9893 -0.3638 -0.3572
   72MOL   C10010182   0.571   5.359   0.593  0.3282 -0.0021  0.4544
   72MOL   C10110183   0.502   5.233   0.529  0.3165  0.3846  0.0391
   72MOL   O10210184   0.609   5.149   0.496  0.4463  0.2464  0.1421
   72MOL   H10310185   0.494   5.436   0.589  0.2186 -0.1782 -0.9023
   72MOL   H10410186   0.647   5.396   0.525 -0.0216 -0.8853 -0.4405
   72MOL   H10510187   0.460   5.258   0.432 -1.6182  0.9975  1.0210
   72MOL   H10610188   0.653   5.179   0.418 -1.2953 -0.7940 -1.2977
   72MOL   C10710189   0.394   5.157   0.602  0.6960 -0.2427  0.0214
   72MOL   C10810190   0.260   5.221   0.616 -0.1367  0.8583  0.6849
   72MOL   O10910191   0.197   5.240   0.488 -0.4925  0.0129  0.0297
   72MOL   H11010192   0.383   5.058   0.557  1.2573 -0.5834  0.6174
   72MOL   H11110193   0.433   5.133   0.701  2.2332  2.2300  0.0520
   72MOL   H11210194   0.281   5.321   0.653  2.4093  0.6001 -0.0353
   72MOL   H11310195   0.190   5.165   0.430 -3.6280  0.4441 -0.2395
   72MOL   C11410196   0.156   5.134   0.704  0.2335 -0.2927  0.4053
   72MOL   C11510197   0.047   5.219   0.769  1.0863 -0.2134  0.0288
   72MOL   O11610198   7.484   5.268   0.662  0.3474  0.7207 -0.0448
   72MOL   H11710199   0.106   5.055   0.648 -1.0691  2.0960 -1.8858
   72MOL   H11810200   0.209   5.081   0.784 -1.4530  1.0757  2.4714
   72MOL   H11910201   0.085   5.312   0.812  0.3276  0.0625  0.1283
   72MOL   H12010202   0.025   5.307   0.601  0.9732  0.4010  0.3557
   72MOL   C12110203   7.466   5.151   0.863  0.2271  0.6836  0.3228
   72MOL   C12210204   0.010   5.097   0.983  0.2784  0.6630 -0.5486
   72MOL   O12310205   0.067   5.207   1.050  0.2030 -0.1307  0.2853
   72MOL   H12410206   7.383   5.219   0.883 -0.9907 -1.1578  1.6591
   72MOL   H12510207   7.413   5.076   0.805  0.5239 -1.3880  2.6489
   72MOL   H12610208   0.091   5.032   0.951 -0.0972 -0.8982  1.5904
   72MOL   H12710209   7.516   5.269   1.055  0.4005  0.3145 -2.1758
   72MOL   C12810210   7.441   5.019   1.082 -0.1156  0.7502  0.5733
   72MOL   C12910211   7.503   4.974   1.218  0.1621 -0.3611  0.2339
   72MOL   O13010212   7.404   4.902   1.290  0.1939  0.8049 -0.4782
   72MOL   H13110213   7.368   5.089   1.122 -2.8577 -2.4532  1.5008
   72MOL   H13210214   7.383   4.940   1.033 -0.0632  0.5035  0.9039
   72MOL   H13310215   0.010   5.065   1.273 -3.1394  0.6801  0.2147
   72MOL   H13410216   7.435   4.897   1.379 -0.2423  0.3834 -0.3508
   72MOL   C13510217   0.109   4.878   1.204 -0.6228  0.1532  0.0782
   72MOL   C13610218   0.200   4.847   1.317 -0.6367  0.0277 -0.2191
   72MOL   O13710219   0.308   4.771   1.265  0.8412 -0.6057  0.0775
   72MOL   H13810220   0.075   4.787   1.156  0.3201  0.6584 -1.6142
   72MOL   H13910221   0.178   4.925   1.133  1.3975  0.2435  2.0513
   72MOL   H14010222   0.152   4.791   1.398 -1.2172 -1.0892 -1.3284
   72MOL   H14110223   0.351   4.819   1.196  1.5609 -2.5710 -0.8810
   72MOL   H14210224   0.248   4.937   1.357 -0.5771  0.6249 -1.6203
   73MOL     C110225   3.592   7.155   0.617 -0.2719 -0.4019 -0.4814
   73MOL     C210226   3.637   7.068   0.498  0.1093 -0.3679  0.5932
   73MOL     O310227   3.684   7.150   0.397 -0.0595 -0.2346 -0.4067
   73MOL     H410228   3.516   7.114   0.684  0.3519 -0.6996  0.0466
   73MOL     H510229   3.555   7.249   0.576  1.4299  1.7500  2.6875
   73MOL     H610230   3.545   7.031   0.453  1.5311 -1.4184 -1.5553
   73MOL     H710231   3.623   7.138   0.325 -1.1489  2.1271  0.0570
   73MOL     H810232   3.674   7.172   0.687 -0.1132  0.9529 -0.9759
   73MOL     C910233   3.737   6.962   0.531 -0.3874 -0.1737 -0.7686
   73MOL    C1010234   3.672   6.839   0.590  0.1912 -0.3868 -1.2117
   73MOL    O1110235   3.588   6.871   0.698  0.4617  0.1818 -0.1709
   73MOL    H1210236   3.794   6.922   0.447  0.1383 -0.7272 -0.1512
   73MOL    H1310237   3.806   7.000   0.606  0.1875 -1.9595 -0.3684
   73MOL    H1410238   3.752   6.784   0.639  0.2772  0.2258 -0.6679
   73MOL    H1510239   3.635   6.931   0.755  0.4973 -0.3781  0.3983
   73MOL    C1610240   3.608   6.753   0.480 -0.2250 -0.2669  0.0557
   73MOL    C1710241   3.591   6.600   0.524 -0.2249  0.3150 -0.1714
   73MOL    O1810242   3.501   6.588   0.634  0.0685 -0.4469  0.3968
   73MOL    H1910243   3.520   6.786   0.425 -0.2917  0.1261  0.3939
   73MOL    H2010244   3.680   6.746   0.399  0.8183 -0.0607  0.9522
   73MOL    H2110245   3.689   6.566   0.558 -0.4268 -0.4396 -0.3171
   73MOL    H2210246   3.494   6.501   0.670  0.0234  0.1702  1.9356
   73MOL    C2310247   3.535   6.506   0.413  0.6017  0.6248  0.1076
   73MOL    C2410248   3.639   6.466   0.301  0.2346 -0.0646 -0.2391
   73MOL    O2510249   3.746   6.391   0.364  0.6407  0.0850  0.1835
   73MOL    H2610250   3.508   6.412   0.460 -0.5648  0.1750 -1.4087
   73MOL    H2710251   3.451   6.557   0.366  0.8046  0.6721 -0.2088
   73MOL    H2810252   3.677   6.557   0.254 -2.4022  0.7765 -0.8951
   73MOL    H2910253   3.811   6.450   0.400 -0.3367  0.9433  0.5714
   73MOL    C3010254   3.578   6.375   0.193  0.3219 -0.0883 -0.8674
   73MOL    C3110255   3.669   6.329   0.078 -0.0566  0.1579  0.6053
   73MOL    O3210256   3.605   6.212   0.037 -0.0735 -0.2481 -0.2648
   73MOL    H3310257   3.546   6.288   0.251  0.2556  1.3290  1.2685
   73MOL    H3410258   3.485   6.416   0.154  0.1139 -2.1124 -2.5817
   73MOL    H3510259   3.764   6.296   0.120  1.2866 -0.2099 -2.5604
   73MOL    H3610260   3.668   6.150   0.003  0.7915  0.8220 -0.6114
   73MOL    C3710261   3.687   6.419   7.470 -0.3889 -0.1263  0.1297
   73MOL    C3810262   3.801   6.370   7.370  0.0650 -0.5893 -0.0505
   73MOL    O3910263   3.768   6.421   7.237  0.2465 -0.0843  0.1239
   73MOL    H4010264   3.587   6.424   7.427 -0.6003  1.4387  0.7422
   73MOL    H4110265   3.711   6.521   7.500  0.3624 -0.6999  1.4883
   73MOL    H4210266   3.813   6.263   7.358 -0.3474 -0.5857 -0.4993
   73MOL    H4310267   3.828   6.383   7.175 -0.5296 -1.4781  0.1872
   73MOL    C4410268   3.935   6.447   7.397 -0.0107  0.3291  0.1779
   73MOL    C4510269   4.016   6.405   0.003  0.3599 -0.3036 -0.1289
   73MOL    O4610270   4.090   6.297   7.473 -0.3132 -0.1567  0.1904
   73MOL    H4710271   4.004   6.445   7.313 -0.7566 -1.6834 -0.4247
   73MOL    H4810272   3.905   6.552   7.407 -2.0952 -0.3734  1.7869
   73MOL    H4910273   3.952   6.363   0.080  1.3596 -4.0879 -1.2415
   73MOL    H5010274   4.034   6.224   7.450 -0.4827 -0.2445  0.8817
   73MOL    C5110275   4.107   6.510   0.056  0.0050 -0.0176  0.1813
   73MOL    C5210276   4.180   6.463   0.183  0.0767 -0.3444  0.2613
   73MOL    O5310277   4.301   6.531   0.204 -0.5327 -0.7943 -0.3518
   73MOL    H5410278   4.188   6.510   7.502 -1.0907  0.2943 -1.0459
   73MOL    H5510279   4.047   6.602   0.060 -2.2422 -1.4576  0.5800
   73MOL    H5610280   4.196   6.356   0.167  1.0602 -0.2915  0.8457
   73MOL    H5710281   4.372   6.473   0.181 -0.2903  0.1657 -2.1151
   73MOL    C5810282   4.097   6.460   0.316  0.3436 -0.8743  0.4030
   73MOL    C5910283   4.059   6.596   0.377  0.0739  0.8210  0.6581
   73MOL    O6010284   3.933   6.573   0.443  1.2141  0.3257  0.4189
   73MOL    H6110285   4.008   6.400   0.297  1.4746 -1.5233 -3.2946
   73MOL    H6210286   4.152   6.396   0.383  0.5544 -1.9200 -0.7544
   73MOL    H6310287   4.045   6.667   0.296  1.1467  0.8057  0.4517
   73MOL    H6410288   3.943   6.533   0.528 -1.0270 -0.0586  0.5308
   73MOL    C6510289   4.166   6.651   0.480 -0.1605  0.4372  0.3242
   73MOL    C6610290   4.158   6.800   0.516 -0.0097  0.4391 -0.3019
   73MOL    O6710291   4.250   6.839   0.622  0.0684 -0.0474 -0.3939
   73MOL    H6810292   4.159   6.588   0.568  0.6893  2.8363  2.1613
   73MOL    H6910293   4.267   6.644   0.438  0.3000  0.5679  1.3983
   73MOL    H7010294   4.056   6.825   0.544  0.0338  2.8857 -2.1322
   73MOL    H7110295   4.267   6.930   0.603  0.7509 -0.4992 -2.0418
   73MOL    C7210296   4.184   6.910   0.404 -0.3449  0.9492 -0.2569
   73MOL    C7310297   4.130   7.045   0.443 -0.1954  0.1016  0.0129
   73MOL    O7410298   4.217   7.108   0.529 -1.1674  0.1034 -0.9679
   73MOL    H7510299   4.290   6.915   0.379  0.3429 -0.4240  2.2315
   73MOL    H7610300   4.140   6.866   0.315 -2.3869 -1.7267  1.9725
   73MOL    H7710301   4.037   7.036   0.499 -0.6701  0.7221 -0.6671
   73MOL    H7810302   4.207   7.198   0.505  0.5873  0.2185 -1.3445
   73MOL    C7910303   4.103   7.142   0.328  0.2487 -0.0833 -0.1931
   73MOL    C8010304   4.034   7.272   0.380 -0.0594  0.1359 -0.0248
   73MOL    O8110305   4.135   7.348   0.446 -0.0572  0.0268  0.2926
   73MOL    H8210306   4.189   7.173   0.268 -0.7530  0.9034 -1.1366
   73MOL    H8310307   4.031   7.098   0.259  1.7737  0.4292 -2.1575
   73MOL    H8410308   3.958   7.240   0.451 -0.9140  2.7979  0.3268
   73MOL    H8510309   4.091   7.420   0.489  1.0929 -0.1322  1.8053
   73MOL    C8610310   3.975   7.353   0.270 -0.5174 -0.2400 -1.2162
   73MOL    C8710311   3.895   7.479   0.316  0.0889 -0.5203  0.0482
   73MOL    O8810312   3.994   0.061   0.341  0.4429  0.2344 -0.0324
   73MOL    H8910313   4.048   7.378   0.194  0.3183 -2.9897 -1.3727
   73MOL    H9010314   3.899   7.298   0.214 -0.5287 -0.3433 -1.1009
   73MOL    H9110315   3.842   7.444   0.404 -1.2154  0.0931 -0.4884
   73MOL    H9210316   4.033   0.079   0.257  0.0993  2.8029  0.3201
   73MOL    C9310317   3.788   0.012   0.215 -0.5165  0.4151 -0.2161
   73MOL    C9410318   3.666   7.449   0.190 -0.0139 -0.2419  0.5072
   73MOL    O9510319   3.598   7.438   0.318 -0.0571  0.4453  0.1944
   73MOL    H9610320   3.752   0.109   0.248 -2.0028  0.6175 -2.2870
   73MOL    H9710321   3.839   0.029   0.120  0.5694  1.0958  0.4883
   73MOL    H9810322   3.692   7.353   0.147 -1.5314 -0.1241 -0.7352
   73MOL    H9910323   3.581   7.346   0.335  0.2283  0.5236  0.9167
   73MOL   C10010324   3.553   7.510   0.102 -0.0493 -1.0190 -0.7464
   73MOL   C10110325   3.580   7.510   7.471 -0.3868 -0.3813 -0.8362
   73MOL   O10210326   3.584   7.375   7.428  0.4404 -0.5479  0.0314
   73MOL   H10310327   3.457   7.466   0.129 -0.2041  0.6276  1.5473
   73MOL   H10410328   3.544   0.092   0.143  1.5256  0.1973 -3.2748
   73MOL   H10510329   3.678   0.037   7.458  1.3295 -3.1084  1.6951
   73MOL   H10610330   3.505   7.328   7.452  0.3775 -0.2704  0.3730
   73MOL   C10710331   3.467   0.069   7.398  0.4291  0.0645  0.1680
   73MOL   C10810332   3.500   0.213   7.357  0.3553 -0.6126  0.3601
   73MOL   O10910333   3.382   0.272   7.305  0.5054  0.0097 -0.1326
   73MOL   H11010334   3.442   0.014   7.307 -2.0823 -0.5741  1.2093
   73MOL   H11110335   3.372   0.069   7.451 -0.2250 -1.7527 -0.9422
   73MOL   H11210336   3.577   0.218   7.280 -1.1053 -0.4304 -1.1172
   73MOL   H11310337   3.342   0.222   7.235 -1.8705  2.2825 -0.5067
   73MOL   C11410338   3.552   0.301   7.473 -0.4274  0.0840 -0.7493
   73MOL   C11510339   3.582   0.445   7.419  0.0061  0.1804 -0.0575
   73MOL   O11610340   3.593   0.536   0.002  0.4356  0.0037 -0.1178
   73MOL   H11710341   3.474   0.311   0.029  0.5812  1.0122  0.1889
   73MOL   H11810342   3.642   0.264   0.001 -0.5446 -0.9172 -1.3063
   73MOL   H11910343   3.514   0.489   7.346  1.0366 -0.2403 -1.2789
   73MOL   H12010344   3.620   0.486   0.078 -1.8271 -2.0578 -0.5870
   73MOL   C12110345   3.727   0.455   7.362  0.1750  0.2599 -0.0688
   73MOL   C12210346   3.769   0.581   7.295  0.4943  0.0933 -0.6526
   73MOL   O12310347   3.795   0.672   7.404  0.3644  0.2469 -0.2046
   73MOL   H12410348   3.808   0.421   7.426 -0.8979 -0.9939  0.6577
   73MOL   H12510349   3.717   0.380   7.283  2.0453  0.4720 -0.5270
   73MOL   H12610350   3.695   0.629   7.231 -1.1026 -0.6958  0.5488
   73MOL   H12710351   3.729   0.644   7.467  0.1185  1.4602  0.0781
   73MOL   C12810352   3.889   0.583   7.196 -0.8488  0.5736 -0.0736
   73MOL   C12910353   3.867   0.521   7.059 -0.4072  0.8832 -0.5353
   73MOL   O13010354   3.758   0.585   6.999  0.4258  0.2516  0.2645
   73MOL   H13110355   3.926   0.684   7.179  0.8329 -0.2541 -1.5128
   73MOL   H13210356   3.971   0.526   7.239 -0.3479  0.2083 -1.4717
   73MOL   H13310357   3.843   0.416   7.075 -0.0462  0.2560 -3.8468
   73MOL   H13410358   3.759   0.679   7.001 -1.7164  0.2996  0.3731
   73MOL   C13510359   3.987   0.516   6.969  0.1209  0.0950  0.1359
   73MOL   C13610360   3.954   0.446   6.837  0.0852  0.2497  0.3581
   73MOL   O13710361   4.057   0.448   6.746 -0.2156  0.1078  0.3781
   73MOL   H13810362   3.996   0.619   6.933 -3.4021  1.0616  1.7359
   73MOL   H13910363   4.072   0.466   7.014 -0.0837 -0.4387 -0.0783
   73MOL   H14010364   3.865   0.491   6.795 -1.0097 -0.2416  2.0673
   73MOL   H14110365   4.043   0.377   6.684  1.1986 -0.0754  0.2314
   73MOL   H14210366   3.922   0.342   6.849 -0.2049  0.5028  1.8900
   74MOL     C110367   1.060   4.234   7.267 -0.4393  0.4073  0.1035
   74MOL     C210368   0.908   4.217   7.282  0.5766  0.2563  0.2384
   74MOL     O310369   0.866   4.096   7.334  0.0904 -0.3547  0.1299
   74MOL     H410370   1.099   4.191   7.174 -0.4265  0.8449 -0.0936
   74MOL     H510371   1.123   4.197   7.348 -0.8316  2.2296  1.2438
   74MOL     H610372   0.857   4.240   7.189 -1.1076  1.8145  1.5112
   74MOL     H710373   0.882   4.032   7.266 -0.5550 -0.3085 -0.0631
   74MOL     H810374   1.095   4.337   7.261 -0.7536  0.4512 -1.3598
   74MOL     C910375   0.855   4.333   7.379  0.4958  0.0588  0.1380
   74MOL    C1010376   0.816   4.458   7.312  0.1392  0.3955  1.3413
   74MOL    O1110377   0.924   4.514   7.234 -0.1311  0.0120 -0.7281
   74MOL    H1210378   0.767   4.301   7.435 -0.4815  0.3221 -1.2120
   74MOL    H1310379   0.924   4.352   7.461 -0.6476  0.3942  1.0363
   74MOL    H1410380   0.806   4.533   7.391 -0.4491  2.6900 -0.8249
   74MOL    H1510381   0.991   4.538   7.296 -3.5320 -0.1190  3.1487
   74MOL    C1610382   0.674   4.446   7.236  0.0737  0.3232  0.2551
   74MOL    C1710383   0.626   4.565   7.161 -0.0048 -0.5276  0.0152
   74MOL    O1810384   0.493   4.535   7.100 -0.0357 -0.4494  0.0685
   74MOL    H1910385   0.680   4.359   7.170 -1.5135 -0.9172  1.6922
   74MOL    H2010386   0.596   4.414   7.305 -0.3012 -1.4374 -0.9526
   74MOL    H2110387   0.694   4.599   7.084  1.6224  0.4290  1.8548
   74MOL    H2210388   0.480   4.572   7.014 -1.8870  2.4433  1.5175
   74MOL    C2310389   0.611   4.690   7.262  0.3775 -0.2951  0.6171
   74MOL    C2410390   0.596   4.819   7.194 -0.5196 -0.0112 -0.4114
   74MOL    O2510391   0.471   4.831   7.135  0.4678  0.0758  0.2332
   74MOL    H2610392   0.538   4.669   7.340 -1.6200  0.1563 -1.0980
   74MOL    H2710393   0.693   4.691   7.334  0.1043 -0.0256  0.9304
   74MOL    H2810394   0.679   4.833   7.124 -0.4995  0.4491 -0.2986
   74MOL    H2910395   0.458   4.740   7.112  0.8869 -0.1602  0.9104
   74MOL    C3010396   0.597   4.933   7.297  0.4319 -0.7843 -0.9521
   74MOL    C3110397   0.598   5.073   7.231  0.1218  0.1077  0.2959
   74MOL    O3210398   0.635   5.164   7.332 -0.8280  0.1451 -0.2881
   74MOL    H3310399   0.510   4.934   7.362  2.3121  0.0217  1.6198
   74MOL    H3410400   0.679   4.910   7.365  0.7907 -0.4116 -1.2570
   74MOL    H3510401   0.500   5.107   7.201  0.1000 -0.6237 -0.4914
   74MOL    H3610402   0.716   5.131   7.369  0.1173 -1.6139 -3.7011
   74MOL    C3710403   0.702   5.086   7.115 -0.4647  0.0257  1.0578
   74MOL    C3810404   0.654   5.070   6.968 -0.0808 -0.1807 -0.4372
   74MOL    O3910405   0.580   5.185   6.927  0.1605 -0.3988  0.1619
   74MOL    H4010406   0.765   5.174   7.126  1.2059 -0.8764 -0.7600
   74MOL    H4110407   0.785   5.018   7.135  1.8518  1.1660 -3.7582
   74MOL    H4210408   0.583   4.988   6.970 -1.6674  1.1268 -1.1890
   74MOL    H4310409   0.496   5.158   6.892  0.5228  0.0252 -1.0417
   74MOL    C4410410   0.766   5.055   6.867  0.1588  0.8619 -0.8284
   74MOL    C4510411   0.838   4.915   6.869  0.1341  0.5835 -0.2377
   74MOL    O4610412   0.744   4.811   6.837  0.6020  0.0678 -0.1162
   74MOL    H4710413   0.739   5.060   6.761 -0.4814 -1.0364 -0.7691
   74MOL    H4810414   0.842   5.127   6.897  3.4688 -2.4705 -0.8088
   74MOL    H4910415   0.869   4.891   6.970 -0.7999 -0.9119 -0.2946
   74MOL    H5010416   0.789   4.730   6.855  1.7416  0.6653 -0.2530
   74MOL    C5110417   0.964   4.900   6.772  0.1860 -0.3569 -0.5116
   74MOL    C5210418   1.074   5.004   6.799 -0.4043 -0.3907  1.4603
   74MOL    O5310419   1.131   4.976   6.922  0.2883 -0.3345  0.1573
   74MOL    H5410420   1.000   4.798   6.759  0.6396 -0.2018 -0.4876
   74MOL    H5510421   0.932   4.929   6.672  0.4487 -0.1803 -0.5441
   74MOL    H5610422   1.027   5.102   6.804 -0.0836 -0.2403  1.5223
   74MOL    H5710423   1.122   4.882   6.923 -0.4016 -0.2744 -0.0576
   74MOL    C5810424   1.189   5.010   6.700 -0.4592  0.1524 -0.9382
   74MOL    C5910425   1.166   5.060   6.553 -0.7126 -0.8261  0.0279
   74MOL    O6010426   1.112   4.942   6.483 -0.0694 -0.0790  0.0395
   74MOL    H6110427   1.267   5.070   6.747  0.6815 -0.3989 -2.0942
   74MOL    H6210428   1.233   4.911   6.693 -0.1744  0.2811 -0.9916
   74MOL    H6310429   1.262   5.098   6.519 -1.3459  0.7817 -0.0415
   74MOL    H6410430   1.064   4.963   6.404 -0.2208  1.0708  0.4212
   74MOL    C6510431   1.059   5.175   6.537  0.0395  0.3778 -0.0805
   74MOL    C6610432   1.107   5.314   6.582 -0.1815 -0.1601  0.5254
   74MOL    O6710433   1.205   5.363   6.487  0.2001  0.5627  0.2133
   74MOL    H6810434   1.034   5.178   6.431  0.1155  2.4465 -0.0495
   74MOL    H6910435   0.964   5.153   6.585  0.0326  0.3591 -0.1028
   74MOL    H7010436   1.143   5.297   6.684 -0.8947  0.3853  0.8679
   74MOL    H7110437   1.281   5.390   6.537  0.1656 -0.4108  0.8046
   74MOL    C7210438   1.001   5.424   6.611 -0.0663  0.2651  0.6551
   74MOL    C7310439   0.897   5.405   6.717  0.3702 -0.2490  0.2189
   74MOL    O7410440   0.970   5.422   6.835 -0.1411 -0.2933  0.6580
   74MOL    H7510441   1.048   5.522   6.624 -0.1123  0.2608  0.8421
   74MOL    H7610442   0.943   5.435   6.519  1.1526 -0.7420 -0.2569
   74MOL    H7710443   0.845   5.309   6.707  1.1060 -0.6765  0.4685
   74MOL    H7810444   1.002   5.511   6.847 -1.1739  0.2813 -0.6721
   74MOL    C7910445   0.795   5.517   6.723 -0.0024  0.1336  0.0594
   74MOL    C8010446   0.653   5.484   6.679 -0.5181  0.0792 -0.2923
   74MOL    O8110447   0.570   5.596   6.712 -0.0545  0.0810  0.4191
   74MOL    H8210448   0.783   5.556   6.824 -1.3912 -1.4674  0.5361
   74MOL    H8310449   0.836   5.601   6.668 -0.7291 -0.1328 -0.9159
   74MOL    H8410450   0.617   5.400   6.738  1.4690  0.2324  1.2002
   74MOL    H8510451   0.527   5.579   6.794  2.2685  1.1252  1.9122
   74MOL    C8610452   0.640   5.445   6.526  0.5249 -0.9383  0.4455
   74MOL    C8710453   0.501   5.398   6.491 -0.0058 -0.0295  0.1997
   74MOL    O8810454   0.517   5.360   6.354 -0.7703 -0.1075 -0.2985
   74MOL    H8910455   0.656   5.535   6.467 -0.4548 -0.5055  0.8319
   74MOL    H9010456   0.711   5.365   6.504 -2.2829 -3.4885  0.2666
   74MOL    H9110457   0.428   5.478   6.493 -0.2924 -0.2808 -0.1193
   74MOL    H9210458   0.436   5.362   6.305 -1.2753 -2.3097  0.3794
   74MOL    C9310459   0.434   5.269   6.550 -0.4993 -1.0298  0.1457
   74MOL    C9410460   0.521   5.149   6.589 -0.6065  0.1795 -0.4826
   74MOL    O9510461   0.457   5.081   6.690  0.0395  0.2153 -0.0339
   74MOL    H9610462   0.394   5.316   6.640 -0.4168 -0.1416 -0.2771
   74MOL    H9710463   0.348   5.242   6.489 -0.7451  3.0487 -1.4607
   74MOL    H9810464   0.612   5.190   6.633 -0.3096  0.1897 -1.0991
   74MOL    H9910465   0.481   4.990   6.684 -2.0090 -0.4436  1.0763
   74MOL   C10010466   0.557   5.058   6.460 -0.5255  0.0092  0.4312
   74MOL   C10110467   0.672   4.960   6.484  0.6388  0.2928  0.4449
   74MOL   O10210468   0.619   4.876   6.589  0.1616 -0.0151  0.1166
   74MOL   H10310469   0.470   5.010   6.415 -1.4728  1.3692  0.7813
   74MOL   H10410470   0.597   5.118   6.378 -1.7430 -1.2797 -1.1453
   74MOL   H10510471   0.759   5.008   6.529  0.1178 -0.9506  2.8591
   74MOL   H10610472   0.689   4.849   6.647  0.5281 -0.1901 -0.3972
   74MOL   C10710473   0.714   4.862   6.369 -0.2404  0.1125  0.1685
   74MOL   C10810474   0.787   4.924   6.244  0.9636  0.2766  0.3805
   74MOL   O10910475   0.921   4.963   6.276  0.1381  0.1937 -0.1069
   74MOL   H11010476   0.760   4.775   6.417 -3.0821 -0.2466  2.4015
   74MOL   H11110477   0.624   4.812   6.334 -1.1693  0.4463  1.9729
   74MOL   H11210478   0.733   5.009   6.203  2.7214  1.3804  0.2602
   74MOL   H11310479   0.968   5.000   6.203  0.3949 -0.4300 -0.2603
   74MOL   C11410480   0.796   4.830   6.119 -0.0975 -0.4373 -0.0196
   74MOL   C11510481   0.826   4.887   5.982 -0.4114 -0.5451 -0.2002
   74MOL   O11610482   0.971   4.896   5.971  0.3316  0.1866 -0.6138
   74MOL   H11710483   0.868   4.753   6.145 -0.5755 -0.0959  2.4317
   74MOL   H11810484   0.705   4.771   6.110 -0.3092 -0.0837 -0.2491
   74MOL   H11910485   0.776   4.982   5.960  0.2215 -0.2194 -0.2545
   74MOL   H12010486   0.992   4.943   5.892 -0.0228 -0.0798 -0.8685
   74MOL   C12110487   0.777   4.781   5.879  0.2004  0.2108 -0.5606
   74MOL   C12210488   0.626   4.799   5.848  0.0357  0.7493  0.1760
   74MOL   O12310489   0.603   4.909   5.762  0.3497  0.0031 -0.1328
   74MOL   H12410490   0.833   4.778   5.786  2.6661 -2.7068  0.9128
   74MOL   H12510491   0.787   4.681   5.922 -2.8909 -0.2556 -0.8542
   74MOL   H12610492   0.565   4.804   5.938 -1.1821 -2.7694 -0.3884
   74MOL   H12710493   0.605   4.983   5.821 -2.5075  0.1001 -0.0843
   74MOL   C12810494   0.571   4.671   5.780 -0.0826 -0.3675 -0.0453
   74MOL   C12910495   0.426   4.679   5.723  0.3596  0.4115  0.4563
   74MOL   O13010496   0.421   4.761   5.607  0.1806  0.1038  0.1249
   74MOL   H13110497   0.646   4.646   5.705 -1.6787 -0.7716 -1.5266
   74MOL   H13210498   0.576   4.579   5.838 -0.4903 -1.9090 -2.4045
   74MOL   H13310499   0.364   4.717   5.804 -1.7789 -2.9188  0.4895
   74MOL   H13410500   0.491   4.823   5.618  0.5008 -0.4322  1.2842
   74MOL   C13510501   0.356   4.553   5.674 -0.1455  0.4648 -0.2111
   74MOL   C13610502   0.339   4.443   5.780 -0.5781  0.0363 -0.2308
   74MOL   O13710503   0.273   4.330   5.730 -0.0686  0.4616  0.3124
   74MOL   H13810504   0.258   4.578   5.634 -0.6164  2.2664  1.9406
   74MOL   H13910505   0.415   4.504   5.596  2.2047  2.5737  0.1725
   74MOL   H14010506   0.298   4.489   5.870  4.9177  1.8442  1.5513
   74MOL   H14110507   0.185   4.359   5.711  0.9729  3.4862 -0.2146
   74MOL   H14210508   0.436   4.400   5.805 -0.4643 -0.3650 -1.3313
   75MOL     C110509   1.060   1.784   0.153 -0.3091 -0.0860  0.3435
   75MOL     C210510   0.917   1.844   0.129 -0.2593  0.0065  0.8302
   75MOL     O310511   0.890   1.937   0.232  0.0983 -0.1568 -0.6481
   75MOL     H410512   1.065   1.758   0.259 -1.2942  1.1789  0.7046
   75MOL     H510513   1.140   1.855   0.135 -1.5038  0.6497 -2.2545
   75MOL     H610514   0.849   1.761   0.150 -0.3412  0.2089  1.3893
   75MOL     H710515   0.806   1.910   0.265 -1.3759 -1.7557 -5.3163
   75MOL     H810516   1.077   1.693   0.095 -0.0994 -0.6036  1.1948
   75MOL     C910517   0.897   1.900   7.502 -0.5848 -0.5566  0.2299
   75MOL    C1010518   0.918   1.793   7.391 -0.0525 -0.2234  0.2739
   75MOL    O1110519   0.839   1.836   7.280 -0.0304  0.2359 -0.2881
   75MOL    H1210520   0.796   1.938   7.494 -1.2525 -2.3506 -0.1054
   75MOL    H1310521   0.950   1.992   7.478 -0.2082 -0.6494  0.7046
   75MOL    H1410522   0.880   1.700   7.433 -0.7564 -0.2125 -0.3298
   75MOL    H1510523   0.749   1.816   7.302 -0.7428  1.2762 -2.1660
   75MOL    C1610524   1.053   1.767   7.329 -0.6137 -0.3957  0.6718
   75MOL    C1710525   1.118   1.883   7.242  0.2391 -0.1315 -0.5967
   75MOL    O1810526   1.254   1.887   7.266 -0.4532  0.5663  0.1645
   75MOL    H1910527   1.116   1.752   7.416 -0.4466  0.9344  0.7847
   75MOL    H2010528   1.054   1.672   7.275 -3.0258  1.2439 -2.4709
   75MOL    H2110529   1.072   1.976   7.274  1.8471  0.2508  0.6695
   75MOL    H2210530   1.301   1.936   7.199  0.2372  0.2924  0.4401
   75MOL    C2310531   1.112   1.865   7.091  0.2396  0.5506  0.2830
   75MOL    C2410532   1.144   1.999   7.012  0.0255  0.0611 -0.5369
   75MOL    O2510533   1.286   2.021   7.022  0.2887  0.0147  0.2072
   75MOL    H2610534   1.177   1.783   7.058 -1.0100 -0.6541  0.7592
   75MOL    H2710535   1.008   1.835   7.073  0.8316 -2.2878  1.2575
   75MOL    H2810536   1.101   2.085   7.066 -0.9417 -0.2499 -0.7965
   75MOL    H2910537   1.331   1.990   6.945  3.3127 -1.1962  2.3513
   75MOL    C3010538   1.109   1.986   6.869 -0.4310  0.3013 -0.1793
   75MOL    C3110539   0.957   1.997   6.842 -0.4782 -0.5074 -0.1807
   75MOL    O3210540   0.917   2.126   6.875 -0.6076  0.3930 -0.2055
   75MOL    H3310541   1.173   2.052   6.811 -0.7965  0.9722  0.1853
   75MOL    H3410542   1.141   1.885   6.843  2.1932  0.8316  0.7926
   75MOL    H3510543   0.902   1.933   6.911 -0.7368 -0.1670 -0.0740
   75MOL    H3610544   0.885   2.127   6.964 -0.8378  3.1949 -0.2709
   75MOL    C3710545   0.915   1.973   6.697 -0.5504  0.0165  0.4765
   75MOL    C3810546   0.763   1.953   6.682 -0.4513 -0.0551 -0.3360
   75MOL    O3910547   0.736   1.968   6.540  0.3423 -0.4363 -0.1164
   75MOL    H4010548   0.943   2.056   6.631  0.3757 -0.8803 -0.2782
   75MOL    H4110549   0.983   1.895   6.663  1.4057  1.3624  1.1841
   75MOL    H4210550   0.718   2.032   6.742  1.2725  0.7496 -0.0808
   75MOL    H4310551   0.643   1.948   6.544  0.5212 -1.0069  1.2333
   75MOL    C4410552   0.721   1.806   6.711  0.8731 -0.1724 -0.2028
   75MOL    C4510553   0.565   1.781   6.720  0.2657 -0.0668 -0.3017
   75MOL    O4610554   0.507   1.790   6.592  0.1923  0.3427 -0.0815
   75MOL    H4710555   0.763   1.754   6.625  0.9744  0.1202 -0.3317
   75MOL    H4810556   0.777   1.759   6.792  0.1658 -1.3769 -0.4022
   75MOL    H4910557   0.529   1.857   6.789  2.9721  0.9863  0.0244
   75MOL    H5010558   0.421   1.828   6.594  0.3409  0.6678  0.4854
   75MOL    C5110559   0.530   1.649   6.771  0.4867  0.6085 -0.3548
   75MOL    C5210560   0.419   1.632   6.879 -0.3811 -0.6542  0.5176
   75MOL    O5310561   0.433   1.721   6.984  0.3938  0.3683  0.1690
   75MOL    H5410562   0.504   1.582   6.690 -2.2694  0.2259  0.7717
   75MOL    H5510563   0.624   1.618   6.817 -0.9756  0.9432  3.0728
   75MOL    H5610564   0.436   1.533   6.920 -0.6440 -0.8162  0.2321
   75MOL    H5710565   0.515   1.711   7.031 -0.1485 -0.1674  1.0277
   75MOL    C5810566   0.272   1.651   6.819 -0.2907 -0.0207  0.1662
   75MOL    C5910567   0.155   1.622   6.921  0.1629  0.2797 -0.3671
   75MOL    O6010568   0.029   1.634   6.847  0.6999  0.2538  0.1736
   75MOL    H6110569   0.267   1.756   6.789  0.4613  0.4233  1.5507
   75MOL    H6210570   0.258   1.595   6.727 -0.8879 -0.5011  0.5385
   75MOL    H6310571   0.158   1.695   7.002  0.4643 -0.7379  0.5588
   75MOL    H6410572   7.480   1.630   6.913 -0.1799  3.2908 -0.5022
   75MOL    C6510573   0.151   1.475   6.985  0.2987 -0.7738  0.5379
   75MOL    C6610574   0.094   1.469   7.129 -1.0440 -1.0542 -0.4647
   75MOL    O6710575   7.472   1.476   7.119  0.0701  0.1969 -0.3852
   75MOL    H6810576   0.079   1.421   6.924 -1.2594  1.2186  0.5676
   75MOL    H6910577   0.252   1.434   6.980  0.2926 -0.8063  0.6799
   75MOL    H7010578   0.117   1.559   7.185  0.6655  0.0054 -2.7878
   75MOL    H7110579   7.449   1.396   7.073  2.6124 -0.2965 -0.8903
   75MOL    C7210580   0.132   1.344   7.216  0.0725 -0.6544 -0.2507
   75MOL    C7310581   0.287   1.317   7.223  0.5562  0.0386  0.5109
   75MOL    O7410582   0.346   1.336   7.348  0.1528 -0.1096  0.2717
   75MOL    H7510583   0.094   1.369   7.315 -0.9783  1.5470 -1.1726
   75MOL    H7610584   0.073   1.255   7.196 -0.4040 -0.0596 -1.5539
   75MOL    H7710585   0.347   1.387   7.166  2.1401 -0.8189  1.0916
   75MOL    H7810586   0.280   1.323   7.414  0.3653 -1.1063  0.2890
   75MOL    C7910587   0.325   1.176   7.181 -0.6619  0.0904  0.1357
   75MOL    C8010588   0.369   1.150   7.034 -0.0332  0.8183  0.8353
   75MOL    O8110589   0.489   1.211   7.008  0.4263 -0.2692 -0.2548
   75MOL    H8210590   0.408   1.139   7.242  1.2879  0.8720 -1.9444
   75MOL    H8310591   0.248   1.103   7.205  0.2575 -0.3585  1.8376
   75MOL    H8410592   0.299   1.200   6.967 -0.6094  2.2368  2.4354
   75MOL    H8510593   0.514   1.202   6.918  1.0266 -0.1336 -0.0994
   75MOL    C8610594   0.381   0.993   6.995  0.3746 -0.1053  0.1841
   75MOL    C8710595   0.250   0.914   7.006  0.4162 -0.3111  0.5321
   75MOL    O8810596   0.219   0.856   6.877 -0.0706  0.2080 -0.1470
   75MOL    H8910597   0.434   0.970   6.903 -1.8246 -2.3917 -0.5574
   75MOL    H9010598   0.443   0.938   7.065  1.3611 -2.5981 -2.5459
   75MOL    H9110599   0.169   0.984   7.026 -0.2799 -1.4667  1.8773
   75MOL    H9210600   0.282   0.797   6.839  1.4160  1.9204 -0.4308
   75MOL    C9310601   0.241   0.802   7.109  0.0324 -0.5598 -0.4946
   75MOL    C9410602   0.209   0.843   7.263 -0.3389 -0.4843  0.1241
   75MOL    O9510603   0.084   0.892   7.283  0.1209  0.1629 -0.0283
   75MOL    H9610604   0.164   0.731   7.076  0.3626 -0.3447 -1.7811
   75MOL    H9710605   0.328   0.736   7.116 -0.3759 -0.9657  0.7549
   75MOL    H9810606   0.284   0.922   7.278  0.2251 -0.7060 -1.4588
   75MOL    H9910607   0.016   0.835   7.251  0.0194  1.4250 -2.0873
   75MOL   C10010608   0.235   0.739   7.371  0.1368  0.5170 -0.3432
   75MOL   C10110609   0.222   0.786   7.513  0.9033 -0.5305  0.1636
   75MOL   O10210610   0.189   0.678   0.076  0.4753  0.3860 -0.0813
   75MOL   H10310611   0.175   0.649   7.359  0.1288  0.2381  1.6438
   75MOL   H10410612   0.337   0.702   7.364 -0.4445 -1.4996  1.6298
   75MOL   H10510613   0.144   0.862   0.005  0.2304 -1.2239  0.2368
   75MOL   H10610614   0.193   0.699   0.168 -1.8745  0.6751  0.0023
   75MOL   C10710615   0.354   0.852   0.042 -0.2161 -0.0148  0.0771
   75MOL   C10810616   0.336   0.968   0.142  0.3298  0.0840  0.4192
   75MOL   O10910617   0.460   1.002   0.195 -0.5000 -0.0076 -0.5865
   75MOL   H11010618   0.417   0.775   0.086  0.7259  0.8317  0.2609
   75MOL   H11110619   0.405   0.881   7.469  1.3991  0.5967  1.1343
   75MOL   H11210620   0.280   0.939   0.232 -1.3623  0.7245 -0.4003
   75MOL   H11310621   0.519   0.928   0.195  0.5617  0.8259  0.1528
   75MOL   C11410622   0.271   1.094   0.076 -0.5330 -0.3454 -0.1053
   75MOL   C11510623   0.254   1.223   0.164 -0.9518 -0.4522  0.2466
   75MOL   O11610624   0.220   1.336   0.091 -0.4741  0.7763  0.1642
   75MOL   H11710625   0.340   1.127   7.518  1.8254 -1.6866  1.3542
   75MOL   H11810626   0.175   1.073   0.029 -1.0333 -0.8024  1.1003
   75MOL   H11910627   0.349   1.235   0.217 -0.7902 -0.4942 -0.0320
   75MOL   H12010628   0.298   1.390   0.088  0.5220 -0.6832 -1.4329
   75MOL   C12110629   0.153   1.194   0.279 -0.5611 -0.5665  0.2201
   75MOL   C12210630   0.158   1.284   0.401 -0.4472 -0.5450 -0.2694
   75MOL   O12310631   0.035   1.279   0.469  0.0087 -0.0216 -0.4228
   75MOL   H12410632   0.054   1.188   0.233 -1.6037 -0.6333  2.4193
   75MOL   H12510633   0.168   1.091   0.312  0.8096 -0.7039 -0.7449
   75MOL   H12610634   0.169   1.385   0.364  2.9078 -1.5020 -2.0203
   75MOL   H12710635   0.045   1.344   0.536 -3.2521  0.0314  0.0862
   75MOL   C12810636   0.274   1.236   0.495 -0.2085 -0.0831 -0.5233
   75MOL   C12910637   0.319   1.324   0.603  0.1967  0.2041 -0.3448
   75MOL   O13010638   0.212   1.345   0.692 -0.7096 -0.2928  0.4565
   75MOL   H13110639   0.246   1.141   0.541  0.5453 -0.2106 -0.3210
   75MOL   H13210640   0.356   1.213   0.428 -0.0808  4.0107 -1.9192
   75MOL   H13310641   0.370   1.410   0.560  0.8382 -0.3446 -0.7079
   75MOL   H13410642   0.165   1.423   0.663  1.1280  0.2041 -1.2701
   75MOL   C13510643   0.419   1.249   0.690  0.1968  0.7496  0.4640
   75MOL   C13610644   0.553   1.212   0.623  0.2756  0.5431  0.4922
   75MOL   O13710645   0.640   1.148   0.714 -0.4483 -0.5360 -0.5514
   75MOL   H13810646   0.445   1.314   0.774  2.1750 -1.4487  1.6468
   75MOL   H13910647   0.368   1.166   0.738  0.7485  0.9644  1.4473
   75MOL   H14010648   0.603   1.308   0.608  0.4472  0.3721 -0.0176
   75MOL   H14110649   0.641   1.201   0.793  0.0997 -1.9479  0.4108
   75MOL   H14210650   0.544   1.150   0.534 -2.4751  0.2469  0.9212
   76MOL     C110651   4.350   2.894   3.190 -0.0819 -0.0882 -0.3192
   76MOL     C210652   4.235   2.806   3.239 -0.0333  0.3895 -0.2420
   76MOL     O310653   4.215   2.695   3.158  0.3297  0.3464  0.4556
   76MOL     H410654   4.441   2.836   3.208  0.5126  0.3233 -1.8847
   76MOL     H510655   4.373   2.989   3.238  1.5736  0.2241 -1.6650
   76MOL     H610656   4.143   2.865   3.239  0.3572  1.0040  1.3887
   76MOL     H710657   4.125   2.703   3.128  0.2768  2.5520  1.0907
   76MOL     H810658   4.349   2.930   3.087 -1.2896 -0.9520 -0.6300
   76MOL     C910659   4.258   2.767   3.396  0.0095 -0.0112 -0.1543
   76MOL    C1010660   4.134   2.708   3.464 -0.1640  0.0835 -0.1070
   76MOL    O1110661   4.164   2.618   3.574 -0.0856  0.2756  0.1836
   76MOL    H1210662   4.348   2.707   3.404  0.0254 -0.2356 -1.8663
   76MOL    H1310663   4.294   2.859   3.441 -1.2501  0.2659  0.3137
   76MOL    H1410664   4.073   2.650   3.394 -1.5547  1.2099  0.1606
   76MOL    H1510665   4.087   2.576   3.609  1.0142  0.0905  2.4560
   76MOL    C1610666   4.052   2.820   3.540 -0.6880  0.3292  0.4864
   76MOL    C1710667   3.903   2.789   3.549  0.2776 -0.2378 -0.2346
   76MOL    O1810668   3.851   2.854   3.663  1.2666  0.0721 -0.4014
   76MOL    H1910669   4.102   2.830   3.636 -2.2353 -0.6821  1.3982
   76MOL    H2010670   4.061   2.907   3.475  0.2739 -0.4856 -0.4920
   76MOL    H2110671   3.898   2.681   3.559 -0.1964 -0.2419 -0.5244
   76MOL    H2210672   3.894   2.829   3.744  2.1876  3.5505  0.2559
   76MOL    C2310673   3.823   2.844   3.429  0.2368 -0.0012  0.3120
   76MOL    C2410674   3.688   2.768   3.409  0.0965  0.0235 -1.1217
   76MOL    O2510675   3.604   2.772   3.520  0.3024 -0.1173  0.6146
   76MOL    H2610676   3.811   2.951   3.442 -1.5271 -0.4086  2.4914
   76MOL    H2710677   3.882   2.832   3.338  0.3298 -0.3573  0.4165
   76MOL    H2810678   3.715   2.663   3.395 -2.2178 -0.7414 -0.1451
   76MOL    H2910679   3.637   2.835   3.582  1.5500  1.7701 -1.8482
   76MOL    C3010680   3.608   2.812   3.287 -0.2787  0.0559 -0.4250
   76MOL    C3110681   3.470   2.748   3.259  0.6489 -0.3923  0.5611
   76MOL    O3210682   3.425   2.793   3.129 -0.3969  0.5864  0.2314
   76MOL    H3310683   3.590   2.918   3.302  0.9103  0.0193  1.4783
   76MOL    H3410684   3.672   2.798   3.200  2.0477 -0.9167  1.3465
   76MOL    H3510685   3.400   2.779   3.337  2.3248 -2.3357  2.9266
   76MOL    H3610686   3.333   2.808   3.142 -0.0341  0.8054  2.6343
   76MOL    C3710687   3.485   2.588   3.256 -0.0993 -0.2021 -0.2453
   76MOL    C3810688   3.353   2.509   3.245  0.2985  0.3268  0.1095
   76MOL    O3910689   3.410   2.386   3.196  0.0963  0.2750  0.1517
   76MOL    H4010690   3.553   2.561   3.175  0.3271 -0.1697  0.1031
   76MOL    H4110691   3.530   2.549   3.347  0.6936 -1.7333 -1.2769
   76MOL    H4210692   3.286   2.547   3.168 -0.0683  1.0767  0.8081
   76MOL    H4310693   3.470   2.346   3.258 -1.6876 -1.6333  0.7124
   76MOL    C4410694   3.282   2.494   3.380 -0.2511  0.4833 -0.2773
   76MOL    C4510695   3.134   2.451   3.369  0.5270  0.0978  0.0628
   76MOL    O4610696   3.048   2.540   3.319  0.2603  0.0769  0.1771
   76MOL    H4710697   3.333   2.424   3.447 -0.0751  1.4009  0.5420
   76MOL    H4810698   3.275   2.586   3.437 -0.8353 -0.3347  0.9956
   76MOL    H4910699   3.107   2.456   3.474 -0.6943 -0.7433 -0.2025
   76MOL    H5010700   2.987   2.550   3.391  0.8983 -0.1802  0.7600
   76MOL    C5110701   3.103   2.305   3.324  0.5449  0.0598  0.2877
   76MOL    C5210702   2.965   2.241   3.374  0.2992 -0.0721 -0.2235
   76MOL    O5310703   2.976   2.109   3.338  0.1714 -0.0989 -0.0166
   76MOL    H5410704   3.113   2.310   3.215  2.7760 -0.8387  0.4402
   76MOL    H5510705   3.188   2.250   3.364  0.2766 -0.9730 -0.5208
   76MOL    H5610706   2.886   2.293   3.320  0.9280 -0.9512 -2.0138
   76MOL    H5710707   2.954   2.098   3.247  0.5069 -1.1321  0.0161
   76MOL    C5810708   2.941   2.244   3.529 -0.6332  0.2783  0.0317
   76MOL    C5910709   2.812   2.179   3.579  0.0445  0.7119 -0.0671
   76MOL    O6010710   2.840   2.130   3.710 -0.2212 -0.3667  0.2790
   76MOL    H6110711   3.029   2.200   3.575 -0.3114  0.9104  0.0353
   76MOL    H6210712   2.943   2.348   3.563 -0.7068  0.4379 -0.4383
   76MOL    H6310713   2.793   2.098   3.508  0.4707  0.3516  0.2223
   76MOL    H6410714   2.851   2.207   3.764 -2.7155 -0.8978  1.5941
   76MOL    C6510715   2.694   2.279   3.598  0.5350 -0.1185  0.0149
   76MOL    C6610716   2.614   2.297   3.469  0.3631  0.0055  0.1322
   76MOL    O6710717   2.533   2.184   3.466 -0.5313 -0.7584 -0.2705
   76MOL    H6810718   2.626   2.238   3.673  0.0095  0.3458 -0.2060
   76MOL    H6910719   2.717   2.370   3.654 -0.4353 -0.6650  1.3438
   76MOL    H7010720   2.679   2.301   3.382 -0.2150  2.4554 -0.2200
   76MOL    H7110721   2.476   2.192   3.391 -0.3541 -0.0042 -0.3244
   76MOL    C7210722   2.529   2.422   3.468 -0.1983 -0.1593  0.3838
   76MOL    C7310723   2.496   2.485   3.327  0.5268 -0.0801  0.6743
   76MOL    O7410724   2.396   2.584   3.341  0.6189 -0.0125  0.3488
   76MOL    H7510725   2.439   2.405   3.528 -0.5246  1.7655  0.4702
   76MOL    H7610726   2.586   2.505   3.507 -0.2316  0.5571 -1.0529
   76MOL    H7710727   2.452   2.408   3.263  0.5595  1.1027 -0.7843
   76MOL    H7810728   2.372   2.610   3.253 -2.0365 -0.2382  0.9874
   76MOL    C7910729   2.616   2.556   3.255  0.5445  0.2981 -0.4545
   76MOL    C8010730   2.608   2.582   3.103  0.0985  0.0343 -0.2128
   76MOL    O8110731   2.486   2.657   3.083  0.1132 -0.7222 -0.1455
   76MOL    H8210732   2.646   2.643   3.313 -0.1923 -0.8188  1.6707
   76MOL    H8310733   2.706   2.497   3.273  0.5135  0.3161 -0.2330
   76MOL    H8410734   2.588   2.495   3.041 -0.8046  0.8996 -1.1581
   76MOL    H8510735   2.464   2.644   2.993  2.1897  0.1839 -0.8269
   76MOL    C8610736   2.729   2.666   3.048  0.2904 -0.5141  0.2754
   76MOL    C8710737   2.858   2.589   3.045 -0.8757  0.5347 -0.2662
   76MOL    O8810738   2.842   2.492   2.941  0.2251 -0.0190  0.0968
   76MOL    H8910739   2.706   2.717   2.955 -0.7299 -0.0625  0.7748
   76MOL    H9010740   2.733   2.749   3.117 -3.4520  1.7470 -2.0587
   76MOL    H9110741   2.864   2.548   3.146 -0.1240  1.3671  0.0343
   76MOL    H9210742   2.809   2.537   2.865 -1.0958  0.9948  1.2549
   76MOL    C9310743   2.985   2.673   3.023 -0.1082  0.0483 -0.3190
   76MOL    C9410744   3.009   2.782   3.126 -0.0527 -0.3022 -0.1381
   76MOL    O9510745   3.152   2.767   3.174  0.2216 -0.3643 -0.1381
   76MOL    H9610746   3.065   2.599   3.033 -1.8239 -2.0119 -1.4926
   76MOL    H9710747   3.001   2.703   2.920 -0.2723  0.9097 -0.0988
   76MOL    H9810748   2.944   2.776   3.214 -0.1949  0.4144 -0.1906
   76MOL    H9910749   3.140   2.690   3.227 -0.9248  0.3118  0.6169
   76MOL   C10010750   2.991   2.926   3.069  0.2121 -0.0049  0.3630
   76MOL   C10110751   3.042   3.045   3.160  0.1175  0.4461 -0.4476
   76MOL   O10210752   3.026   3.162   3.091 -0.6498  0.3499  0.3077
   76MOL   H10310753   3.050   2.935   2.978 -0.2708 -2.4841 -0.2264
   76MOL   H10410754   2.884   2.933   3.048  0.2145 -1.9340 -0.3131
   76MOL   H10510755   3.148   3.030   3.176 -0.1267 -0.4451  0.3681
   76MOL   H10610756   3.062   3.230   3.147 -0.3538 -1.0709  1.8649
   76MOL   C10710757   2.982   3.061   3.302 -0.3017 -0.0810  0.4026
   76MOL   C10810758   2.834   3.095   3.307 -0.2687 -1.0752  0.1756
   76MOL   O10910759   2.785   3.042   3.429 -0.5648 -0.6522 -0.1731
   76MOL   H11010760   2.996   2.964   3.348 -0.8117  0.2206  1.2075
   76MOL   H11110761   3.044   3.129   3.361 -0.6735  0.3272  0.3257
   76MOL   H11210762   2.783   3.044   3.225  1.0154 -2.4061  0.1881
   76MOL   H11310763   2.759   3.108   3.491  1.0875  0.9044 -1.0902
   76MOL   C11410764   2.802   3.250   3.298  0.4262  0.6712 -0.0766
   76MOL   C11510765   2.654   3.291   3.301  0.1536  0.1170 -0.2866
   76MOL   O11610766   2.645   3.437   3.283 -0.8664 -0.0395 -0.4085
   76MOL   H11710767   2.848   3.295   3.387 -0.2263  1.5806 -0.2042
   76MOL   H11810768   2.835   3.290   3.202  1.8787 -0.5669 -0.1164
   76MOL   H11910769   2.619   3.257   3.398 -0.6083  1.2271 -0.1721
   76MOL   H12010770   2.564   3.460   3.326 -1.6890 -2.0664 -0.8328
   76MOL   C12110771   2.578   3.221   3.179  0.0854  0.1490 -0.4794
   76MOL   C12210772   2.435   3.272   3.147  0.4909 -0.4403 -0.0403
   76MOL   O12310773   2.385   3.213   3.026 -0.3224  0.0979 -0.0831
   76MOL   H12410774   2.639   3.233   3.090 -0.1654 -0.3216 -0.7180
   76MOL   H12510775   2.576   3.113   3.193 -0.4650  0.1579 -0.4654
   76MOL   H12610776   2.430   3.380   3.134  0.5783 -0.6161 -1.6156
   76MOL   H12710777   2.441   3.249   2.958 -0.9188 -0.8129 -1.0706
   76MOL   C12810778   2.343   3.229   3.270 -0.4831  0.4517  0.9386
   76MOL   C12910779   2.191   3.278   3.256 -0.1620  0.5806  0.1634
   76MOL   O13010780   2.123   3.236   3.375 -0.0828  0.1678 -0.4754
   76MOL   H13110781   2.346   3.120   3.263  0.0084  0.5909 -1.1677
   76MOL   H13210782   2.379   3.250   3.371  0.6660 -0.5329  0.7441
   76MOL   H13310783   2.146   3.230   3.170  0.4370  0.1872  0.0711
   76MOL   H13410784   2.093   3.147   3.371  0.4490 -0.0918  0.9512
   76MOL   C13510785   2.176   3.434   3.252  0.1462  0.2844  0.6137
   76MOL   C13610786   2.032   3.481   3.236 -0.2103 -0.3066  0.0302
   76MOL   O13710787   2.024   3.608   3.181 -0.4869  0.2689 -0.1038
   76MOL   H13810788   2.223   3.486   3.336 -0.6401  2.0854 -0.0416
   76MOL   H13910789   2.233   3.463   3.164 -0.8687 -1.0219 -0.5021
   76MOL   H14010790   1.989   3.497   3.335  0.9871  0.4757  0.4316
   76MOL   H14110791   2.082   3.666   3.228  0.2275 -1.9466  1.8209
   76MOL   H14210792   1.975   3.409   3.177  1.2604 -2.0271  0.6652
   77MOL     C110793   3.784   2.044   3.934 -0.6602  0.2918 -0.5015
   77MOL     C210794   3.727   2.054   4.075 -0.3991 -0.9541  1.0047
   77MOL     O310795   3.643   2.169   4.085  0.2549 -0.0471  0.6265
   77MOL     H410796   3.704   2.044   3.860 -0.3045  2.5165 -0.9428
   77MOL     H510797   3.843   1.954   3.945 -1.7397 -0.3818 -0.1897
   77MOL     H610798   3.803   2.051   4.153 -0.5864 -0.7165  1.2022
   77MOL     H710799   3.669   2.210   4.166  0.3770 -1.0728  1.1062
   77MOL     H810800   3.840   2.135   3.911 -0.0540 -0.8665 -3.8932
   77MOL     C910801   3.619   1.945   4.099 -0.2965  0.1920 -0.0633
   77MOL    C1010802   3.602   1.914   4.248  0.4593 -0.3384  0.1724
   77MOL    O1110803   3.486   1.837   4.254 -0.0653  0.0845 -0.5920
   77MOL    H1210804   3.529   1.974   4.045  0.3712  2.7279  0.1165
   77MOL    H1310805   3.658   1.856   4.051 -1.1746 -0.2017 -0.0426
   77MOL    H1410806   3.579   2.003   4.308 -0.2361 -0.7912  0.5825
   77MOL    H1510807   3.408   1.890   4.262 -1.2697 -1.5729 -0.9693
   77MOL    C1610808   3.723   1.843   4.301  0.3538 -0.2738 -0.4949
   77MOL    C1710809   3.762   1.694   4.264  0.5026 -0.7468 -0.2140
   77MOL    O1810810   3.808   1.689   4.133 -0.4699  0.2789 -0.5304
   77MOL    H1910811   3.809   1.911   4.300 -1.3392  1.9588  0.0123
   77MOL    H2010812   3.701   1.839   4.408 -1.1075  0.8012 -0.7469
   77MOL    H2110813   3.671   1.633   4.268  0.5436 -0.9794 -2.1524
   77MOL    H2210814   3.805   1.596   4.119 -0.3588  0.0658  0.7772
   77MOL    C2310815   3.870   1.634   4.358 -0.1917 -0.1923 -0.6037
   77MOL    C2410816   3.822   1.519   4.453  0.2017 -1.4440  0.0958
   77MOL    O2510817   3.934   1.450   4.505 -0.1253 -0.3049  0.5254
   77MOL    H2610818   3.955   1.600   4.298  0.7130  1.4324 -0.2511
   77MOL    H2710819   3.933   1.710   4.404 -1.9738  1.5328 -0.9480
   77MOL    H2810820   3.764   1.448   4.393  0.0280 -0.1674 -1.2828
   77MOL    H2910821   3.981   1.402   4.439  1.0699 -0.8020  1.7218
   77MOL    C3010822   3.740   1.585   4.560 -0.2308 -0.3465  0.3650
   77MOL    C3110823   3.680   1.496   4.664  0.1366 -0.0735  0.6791
   77MOL    O3210824   3.602   1.572   4.752  0.4072 -0.3150 -0.3438
   77MOL    H3310825   3.795   1.669   4.603 -0.3527  0.8673 -1.7652
   77MOL    H3410826   3.655   1.638   4.517 -0.0080 -0.1056  0.2181
   77MOL    H3510827   3.761   1.467   4.730  2.8461 -1.0675 -2.9321
   77MOL    H3610828   3.580   1.512   4.821 -0.6065  0.5180  0.0568
   77MOL    C3710829   3.588   1.381   4.615 -0.1050 -0.2940 -0.1489
   77MOL    C3810830   3.546   1.280   4.726  0.7316  0.5285 -0.0594
   77MOL    O3910831   3.463   1.345   4.825  0.3040  0.2823 -0.2490
   77MOL    H4010832   3.496   1.427   4.578 -0.6544 -1.3705 -0.1476
   77MOL    H4110833   3.649   1.332   4.539  2.0286  0.8203  0.7919
   77MOL    H4210834   3.631   1.237   4.778 -0.4380 -0.3766  1.1230
   77MOL    H4310835   3.468   1.292   4.903  0.2772 -0.5655 -0.8101
   77MOL    C4410836   3.454   1.168   4.671 -0.2547 -0.3123  0.6067
   77MOL    C4510837   3.522   1.054   4.591  0.1125 -0.0855  0.4435
   77MOL    O4610838   3.591   0.983   4.695 -0.1168  0.1447  0.3047
   77MOL    H4710839   3.397   1.122   4.752  1.1177 -1.3779  0.9924
   77MOL    H4810840   3.396   1.219   4.595  1.0422 -1.4647 -1.2154
   77MOL    H4910841   3.583   1.094   4.510  0.0972 -2.6106 -0.8573
   77MOL    H5010842   3.685   0.986   4.684  0.1509 -0.1171  2.3349
   77MOL    C5110843   3.420   0.956   4.521 -1.2065  0.0660 -0.8325
   77MOL    C5210844   3.479   0.868   4.410  0.7280 -0.3082 -0.3932
   77MOL    O5310845   3.384   0.761   4.401 -0.6304 -0.0036  0.1606
   77MOL    H5410846   3.374   0.887   4.592  0.9776 -1.9748 -1.3272
   77MOL    H5510847   3.336   1.021   4.498 -0.8897  0.9725  0.4767
   77MOL    H5610848   3.574   0.829   4.446 -0.0389  0.0229  2.1555
   77MOL    H5710849   3.303   0.788   4.442 -1.8324 -2.2532 -0.6486
   77MOL    C5810850   3.512   0.951   4.282  0.6562 -0.0833 -0.3375
   77MOL    C5910851   3.609   0.875   4.189  0.0094 -0.6101  0.1297
   77MOL    O6010852   3.570   0.884   4.060 -0.2717  0.4600 -0.5527
   77MOL    H6110853   3.417   0.978   4.235 -0.5453 -2.8244  0.3707
   77MOL    H6210854   3.554   1.047   4.310  0.4062 -0.4683  1.4289
   77MOL    H6310855   3.606   0.767   4.207  0.4026 -0.1446  3.3636
   77MOL    H6410856   3.491   0.837   4.039 -1.1172  1.3560  0.5044
   77MOL    C6510857   3.753   0.919   4.214 -0.2021 -0.6000 -0.4766
   77MOL    C6610858   3.868   0.841   4.131 -0.5436  1.0271  1.2663
   77MOL    O6710859   3.874   0.888   3.997  0.0261  0.5731 -0.3096
   77MOL    H6810860   3.770   1.026   4.209  0.1509 -0.7288 -2.6530
   77MOL    H6910861   3.773   0.878   4.313 -1.5532  1.3184  0.6158
   77MOL    H7010862   3.842   0.735   4.131 -0.3698  0.9822  0.6691
   77MOL    H7110863   3.785   0.913   3.975 -0.9964 -0.7678  2.1291
   77MOL    C7210864   4.013   0.869   4.192 -0.1139 -0.3218  0.4275
   77MOL    C7310865   4.137   0.812   4.116  0.0281  0.4198 -0.2395
   77MOL    O7410866   4.255   0.865   4.177 -0.0526  0.0606  0.4755
   77MOL    H7510867   4.022   0.977   4.182  0.8183 -0.3359  1.0474
   77MOL    H7610868   4.017   0.833   4.294 -1.0762  1.1139  0.9803
   77MOL    H7710869   4.117   0.848   4.015  0.9331  0.5302 -0.3834
   77MOL    H7810870   4.299   0.922   4.117 -0.0312  1.5205  1.8382
   77MOL    C7910871   4.148   0.657   4.113  0.0126 -0.3734  0.1495
   77MOL    C8010872   4.259   0.605   4.011 -0.3080 -0.1137 -0.1583
   77MOL    O8110873   4.282   0.477   4.058 -0.2219 -0.0163  0.4920
   77MOL    H8210874   4.162   0.617   4.214  0.2791  0.5965  0.5101
   77MOL    H8310875   4.056   0.635   4.060 -0.2641  1.4797 -0.1723
   77MOL    H8410876   4.353   0.659   4.019  0.3852 -1.1463 -1.0520
   77MOL    H8510877   4.227   0.409   4.023 -0.1354 -0.5849  1.4567
   77MOL    C8610878   4.213   0.592   3.864 -0.5905 -0.0527 -0.4435
   77MOL    C8710879   4.318   0.544   3.772 -0.0805 -0.4210  0.1452
   77MOL    O8810880   4.248   0.484   3.670  0.3688 -0.5795 -0.8353
   77MOL    H8910881   4.129   0.523   3.862 -0.7014  0.0216  1.2717
   77MOL    H9010882   4.175   0.691   3.841  1.6027  0.6602 -1.1955
   77MOL    H9110883   4.388   0.471   3.814 -0.0459 -0.3651  0.1845
   77MOL    H9210884   4.268   0.391   3.672 -1.5615 -0.9966 -0.1317
   77MOL    C9310885   4.399   0.666   3.714 -0.3489 -0.2209  0.2584
   77MOL    C9410886   4.505   0.622   3.611 -0.3021 -0.0985 -0.1967
   77MOL    O9510887   4.525   0.723   3.505 -0.3197  0.4443 -0.1506
   77MOL    H9610888   4.332   0.737   3.665 -0.7183 -0.8928 -0.2032
   77MOL    H9710889   4.438   0.732   3.792  0.3601  0.0005 -0.2796
   77MOL    H9810890   4.473   0.530   3.561  1.2323  0.0592 -1.4794
   77MOL    H9910891   4.525   0.670   3.427 -3.5157  0.1003  0.0236
   77MOL   C10010892   4.646   0.582   3.665  0.1973  0.2919 -0.4893
   77MOL   C10110893   4.721   0.690   3.747  0.2796 -0.6022 -0.6991
   77MOL   O10210894   4.654   0.721   3.870 -0.4436 -0.3553  0.1669
   77MOL   H10310895   4.644   0.490   3.724 -1.0177  0.8462  0.3811
   77MOL   H10410896   4.704   0.547   3.580 -0.9662 -0.4417 -0.9954
   77MOL   H10510897   4.721   0.784   3.693  0.7172 -0.4563 -0.4480
   77MOL   H10610898   4.628   0.644   3.918  0.0033  0.2982  1.4856
   77MOL   C10710899   4.865   0.656   3.777  0.8558 -0.0351 -0.2602
   77MOL   C10810900   4.943   0.789   3.800 -0.4020  0.1232 -0.3406
   77MOL   O10910901   5.070   0.748   3.849  0.0871 -0.0279 -0.3749
   77MOL   H11010902   4.881   0.601   3.870  0.4022 -1.6226 -1.1035
   77MOL   H11110903   4.903   0.586   3.702  0.0594 -2.2603  1.3404
   77MOL   H11210904   4.883   0.848   3.869 -0.2638  0.5093 -0.5510
   77MOL   H11310905   5.129   0.822   3.841 -0.1888  0.0331 -1.8788
   77MOL   C11410906   4.979   0.870   3.669  0.4714 -0.1209 -0.0187
   77MOL   C11510907   5.027   1.010   3.704 -0.5355 -0.6496  0.2564
   77MOL   O11610908   5.133   1.016   3.794  0.2835 -0.1185  0.3234
   77MOL   H11710909   5.047   0.803   3.616 -0.0570 -1.7808  1.3518
   77MOL   H11810910   4.890   0.872   3.606  1.8942  1.9476 -2.0187
   77MOL   H11910911   4.937   1.057   3.746 -0.4898 -1.0003  0.7498
   77MOL   H12010912   5.136   1.095   3.846  5.1608 -0.3396  0.5749
   77MOL   C12110913   5.060   1.091   3.576 -0.0755 -0.0809  0.5757
   77MOL   C12210914   5.095   1.236   3.584 -0.3818  0.0210 -0.0791
   77MOL   O12310915   5.181   1.275   3.481 -0.6001 -0.2650  0.0880
   77MOL   H12410916   5.147   1.044   3.532  0.7540  2.8737 -1.0601
   77MOL   H12510917   4.977   1.087   3.506  1.5747 -0.2087 -1.4004
   77MOL   H12610918   5.139   1.251   3.683  1.2321  0.2827 -0.8133
   77MOL   H12710919   5.258   1.221   3.494  0.2539  0.8883 -0.1101
   77MOL   C12810920   4.960   1.322   3.586 -0.1811  0.3691  0.4605
   77MOL   C12910921   4.966   1.479   3.593 -0.5294 -0.3980 -0.1182
   77MOL   O13010922   4.843   1.546   3.576  0.3757 -0.3041  0.7992
   77MOL   H13110923   4.894   1.302   3.502 -1.0954  2.8737  0.5310
   77MOL   H13210924   4.900   1.288   3.671 -0.7862 -1.0686 -0.5156
   77MOL   H13310925   5.024   1.520   3.511 -0.3334  1.0670  0.7487
   77MOL   H13410926   4.780   1.501   3.630 -0.6025  0.5854  0.4063
   77MOL   C13510927   5.017   1.532   3.725 -0.8371  0.3670  0.6045
   77MOL   C13610928   5.092   1.668   3.727  0.4114  0.7412 -0.5310
   77MOL   O13710929   5.196   1.669   3.817 -0.0361  0.2257  0.1278
   77MOL   H13810930   4.934   1.543   3.796 -1.9112 -2.3265 -0.1862
   77MOL   H13910931   5.083   1.459   3.770  0.6625  1.3502  0.0480
   77MOL   H14010932   5.030   1.756   3.745  0.5982  1.8139 -4.5795
   77MOL   H14110933   5.243   1.749   3.802 -0.8231  0.6444 -0.1476
   77MOL   H14210934   5.137   1.689   3.630 -0.1507  1.1937 -0.6989
   78MOL     C110935   3.297   7.247   3.188  0.0708  0.3517  0.2834
   78MOL     C210936   3.232   7.107   3.213 -0.1243  0.2327  0.6487
   78MOL     O310937   3.298   7.051   3.316  0.1693  0.5764 -0.4142
   78MOL     H410938   3.287   7.303   3.281 -0.6766 -0.4176  0.6686
   78MOL     H510939   3.237   7.308   3.121  0.3817  0.0266 -0.2924
   78MOL     H610940   3.242   7.042   3.126 -1.7210  1.5197 -0.5347
   78MOL     H710941   3.295   7.115   3.386 -0.8543 -0.8107  0.8391
   78MOL     H810942   3.405   7.250   3.173 -0.0182  1.4518 -0.2355
   78MOL     C910943   3.079   7.114   3.234  0.6531 -0.2607  0.9517
   78MOL    C1010944   2.994   6.994   3.195  0.6203  0.4260 -0.3895
   78MOL    O1110945   2.986   6.974   3.052  0.1454  0.6545  0.1282
   78MOL    H1210946   3.060   7.143   3.337  0.7666  0.5241  0.7572
   78MOL    H1310947   3.034   7.197   3.180  0.2928 -0.5939  0.7355
   78MOL    H1410948   2.897   7.017   3.239 -1.4486 -1.1032 -3.9204
   78MOL    H1510949   2.960   6.884   3.041 -0.0958  0.3996  2.4733
   78MOL    C1610950   3.048   6.852   3.240  0.0160  0.3432  0.6188
   78MOL    C1710951   3.065   6.840   3.389  0.1867 -0.1135 -0.9909
   78MOL    O1810952   2.936   6.838   3.459 -0.1501  0.2686  0.1390
   78MOL    H1910953   2.984   6.776   3.194  0.2760  0.2671  0.3785
   78MOL    H2010954   3.149   6.837   3.201 -0.1890  1.8133 -0.4842
   78MOL    H2110955   3.120   6.923   3.432 -0.0347 -0.1666 -0.6017
   78MOL    H2210956   2.889   6.918   3.441 -0.0729 -0.0040 -1.3434
   78MOL    C2310957   3.130   6.713   3.429  0.1013  0.6100  0.6888
   78MOL    C2410958   3.174   6.677   3.574 -0.7885 -0.3541  0.1193
   78MOL    O2510959   3.062   6.635   3.646 -0.2224 -0.2237  0.0440
   78MOL    H2610960   3.075   6.633   3.380 -2.2454  1.7168  1.4020
   78MOL    H2710961   3.225   6.730   3.378 -0.9348  1.0356 -1.1553
   78MOL    H2810962   3.209   6.764   3.631 -2.0193 -0.3560  0.8824
   78MOL    H2910963   2.984   6.682   3.621  0.7950 -0.3707 -3.7311
   78MOL    C3010964   3.286   6.569   3.569  0.0302  0.3126 -0.7311
   78MOL    C3110965   3.358   6.533   3.703 -1.1196 -0.1915  0.4517
   78MOL    O3210966   3.251   6.476   3.782  0.1108  0.2162 -0.5255
   78MOL    H3310967   3.253   6.480   3.515  0.6298 -0.1333 -0.3666
   78MOL    H3410968   3.367   6.619   3.515  1.2946  0.3335  1.1435
   78MOL    H3510969   3.379   6.622   3.762 -0.6780 -1.9015  2.9373
   78MOL    H3610970   3.175   6.528   3.760 -1.0439 -0.8920  0.8007
   78MOL    C3710971   3.488   6.454   3.690 -0.2260  0.5627 -0.2746
   78MOL    C3810972   3.546   6.439   3.838  0.0440 -0.1516  0.0456
   78MOL    O3910973   3.467   6.359   3.921  0.1054 -0.1013  0.2809
   78MOL    H4010974   3.467   6.361   3.638  0.1818  0.6270 -0.5648
   78MOL    H4110975   3.560   6.502   3.623  2.1081 -0.4647  1.4366
   78MOL    H4210976   3.553   6.537   3.885 -0.6585 -0.3001  0.4542
   78MOL    H4310977   3.379   6.386   3.900  0.5387  0.3166 -1.0777
   78MOL    C4410978   3.692   6.400   3.840 -0.3536  0.1201  0.2331
   78MOL    C4510979   3.756   6.361   3.974 -0.3623  0.7748 -0.8198
   78MOL    O4610980   3.883   6.298   3.952 -0.0810 -0.7838 -0.7766
   78MOL    H4710981   3.700   6.322   3.764  2.8862 -0.7104  1.3267
   78MOL    H4810982   3.756   6.481   3.806  0.0751 -0.4013 -0.2070
   78MOL    H4910983   3.694   6.282   4.017 -0.2451  0.4657 -1.2111
   78MOL    H5010984   3.877   6.214   3.994 -0.0467  0.4674  1.8920
   78MOL    C5110985   3.767   6.484   4.074 -0.1358  0.2791  0.1762
   78MOL    C5210986   3.750   6.442   4.226  0.7597  0.1759  0.5607
   78MOL    O5310987   3.794   6.546   4.315  0.3494  0.0371 -0.0714
   78MOL    H5410988   3.869   6.521   4.061  1.1661 -2.0422  3.1742
   78MOL    H5510989   3.702   6.568   4.050 -0.6862 -0.7809 -2.1903
   78MOL    H5610990   3.817   6.356   4.233  3.0267  1.8139 -0.2350
   78MOL    H5710991   3.821   6.510   4.398 -1.2075  0.6615  0.7292
   78MOL    C5810992   3.600   6.398   4.261  1.4382  0.3419 -0.0367
   78MOL    C5910993   3.578   6.303   4.376  0.0885 -0.0107  0.5782
   78MOL    O6010994   3.433   6.320   4.409 -0.4832 -0.0231  0.3894
   78MOL    H6110995   3.547   6.491   4.281 -1.5234 -0.9445 -1.5343
   78MOL    H6210996   3.550   6.366   4.170  1.4080  1.3578 -0.3835
   78MOL    H6310997   3.637   6.327   4.464  1.9197 -1.4136 -0.2230
   78MOL    H6410998   3.381   6.291   4.336 -1.9361  3.6554 -0.1455
   78MOL    C6510999   3.586   6.152   4.321  0.0139  0.0714 -0.0639
   78MOL    C6611000   3.598   6.054   4.436  0.0006 -0.1147 -0.2862
   78MOL    O6711001   3.482   6.077   4.517 -0.0460  0.4241 -0.5705
   78MOL    H6811002   3.496   6.134   4.262 -0.2746  2.3759 -0.3627
   78MOL    H6911003   3.668   6.143   4.250 -0.1022  0.7953 -0.2899
   78MOL    H7011004   3.684   6.091   4.492 -1.4757 -0.3020  2.2294
   78MOL    H7111005   3.456   6.165   4.494  2.5113  0.9962 -1.4851
   78MOL    C7211006   3.623   5.909   4.384 -0.0299 -0.0756 -0.2681
   78MOL    C7311007   3.654   5.807   4.494 -0.7757 -0.0313 -0.0248
   78MOL    O7411008   3.539   5.807   4.574 -0.4194  0.1526  0.4007
   78MOL    H7511009   3.534   5.871   4.332  0.1976 -2.6397  1.1021
   78MOL    H7611010   3.697   5.913   4.305 -0.7238  2.7092 -0.8066
   78MOL    H7711011   3.746   5.842   4.542 -0.1562 -0.6823 -0.7366
   78MOL    H7811012   3.505   5.895   4.574 -1.5205 -0.2473 -0.8606
   78MOL    C7911013   3.666   5.664   4.428 -0.3397  0.0582  0.3973
   78MOL    C8011014   3.731   5.559   4.520 -0.0001  0.6780 -0.5858
   78MOL    O8111015   3.752   5.447   4.436  0.0205 -0.3345 -0.3822
   78MOL    H8211016   3.568   5.627   4.398 -0.6548  0.5387  0.8336
   78MOL    H8311017   3.719   5.661   4.333  1.0612 -0.7478  1.1790
   78MOL    H8411018   3.662   5.521   4.596 -0.2276  0.6043 -0.8302
   78MOL    H8511019   3.749   5.367   4.487 -1.8442  1.4237  2.3458
   78MOL    C8611020   3.869   5.595   4.566 -0.1463 -0.1552  0.0591
   78MOL    C8711021   3.868   5.654   4.711  0.6101  0.1576  0.1411
   78MOL    O8811022   3.808   5.574   4.810 -0.1994 -0.1688  0.1726
   78MOL    H8911023   3.926   5.502   4.567 -2.1749 -1.4170  0.2478
   78MOL    H9011024   3.904   5.664   4.489  2.0777 -1.6032 -0.2681
   78MOL    H9111025   3.821   5.753   4.704  0.0199 -0.2242 -1.4082
   78MOL    H9211026   3.790   5.632   4.883  3.7239 -1.0092  1.9692
   78MOL    C9311027   4.016   5.681   4.753  0.0153  0.0335 -0.1874
   78MOL    C9411028   4.092   5.774   4.664 -0.3530 -0.0535 -0.0775
   78MOL    O9511029   4.172   5.859   4.752 -0.0627  0.1327  0.5561
   78MOL    H9611030   4.005   5.726   4.851  2.3765  0.0445  0.0895
   78MOL    H9711031   4.072   5.589   4.772  0.2392  0.9344  3.8322
   78MOL    H9811032   4.020   5.845   4.624 -1.2999 -0.7083  0.4529
   78MOL    H9911033   4.226   5.802   4.805  1.0063  0.3715 -0.2534
   78MOL   C10011034   4.178   5.693   4.569 -0.0871  0.3647 -0.5497
   78MOL   C10111035   4.224   5.755   4.437  0.0857 -0.1926 -0.4362
   78MOL   O10211036   4.112   5.796   4.365  0.3665  0.3961 -0.8942
   78MOL   H10311037   4.268   5.659   4.620 -0.0308  0.5732 -0.5080
   78MOL   H10411038   4.127   5.602   4.538  2.8169 -1.0244 -1.3711
   78MOL   H10511039   4.267   5.667   4.388 -1.2359 -0.6276 -0.8359
   78MOL   H10611040   4.118   5.755   4.281  1.2423  0.2424 -0.7566
   78MOL   C10711041   4.341   5.866   4.445  0.5028 -0.2964 -0.4114
   78MOL   C10811042   4.409   5.904   4.315 -0.8113  0.4438  0.0661
   78MOL   O10911043   4.501   6.007   4.341 -0.9532 -0.0280  0.1242
   78MOL   H11011044   4.295   5.960   4.474  0.7124 -0.4895  0.5930
   78MOL   H11111045   4.415   5.845   4.523 -0.2539  0.1303  0.4342
   78MOL   H11211046   4.333   5.935   4.243 -1.6441 -1.3488  0.1492
   78MOL   H11311047   4.572   5.969   4.390 -1.1348 -1.6606 -0.8084
   78MOL   C11411048   4.483   5.782   4.249 -0.0963 -0.3151 -0.1846
   78MOL   C11511049   4.539   5.815   4.113 -0.6817  0.6967  0.5609
   78MOL   O11611050   4.656   5.899   4.134  0.4206 -0.1420 -0.0533
   78MOL   H11711051   4.568   5.759   4.313  0.1699  0.8667 -0.0913
   78MOL   H11811052   4.408   5.705   4.236  1.8516 -2.4798  1.1306
   78MOL   H11911053   4.476   5.878   4.050 -0.5508 -0.6043 -0.9071
   78MOL   H12011054   4.629   5.966   4.194 -0.1008 -0.1033 -0.3314
   78MOL   C12111055   4.579   5.685   4.027  0.1981 -0.1984 -0.6233
   78MOL   C12211056   4.460   5.617   3.961  0.0840 -0.0984 -0.5263
   78MOL   O12311057   4.390   5.712   3.874  0.0336  0.2567  0.4345
   78MOL   H12411058   4.648   5.708   3.947  0.7578  0.7597  0.1204
   78MOL   H12511059   4.624   5.608   4.090 -1.3149 -1.9731 -1.6662
   78MOL   H12611060   4.388   5.574   4.031  0.1972 -0.6920 -0.7720
   78MOL   H12711061   4.438   5.791   3.853 -1.5031  1.3637  0.9306
   78MOL   C12811062   4.500   5.491   3.887 -0.5411  0.0982 -0.1392
   78MOL   C12911063   4.452   5.358   3.951  0.1294 -0.5597  0.1008
   78MOL   O13011064   4.475   5.244   3.871 -0.1414 -0.0040 -0.1650
   78MOL   H13111065   4.493   5.489   3.779  0.1337 -1.4605 -0.1592
   78MOL   H13211066   4.608   5.483   3.901 -0.6233  2.1627  2.0359
   78MOL   H13311067   4.343   5.363   3.955  0.2202  1.5199  0.5330
   78MOL   H13411068   4.425   5.252   3.791 -0.8057  1.9542  0.4217
   78MOL   C13511069   4.506   5.338   4.097  0.2129 -0.3512 -0.3499
   78MOL   C13611070   4.433   5.236   4.182  0.5794 -0.3652 -0.0542
   78MOL   O13711071   4.488   5.225   4.309 -0.2425  0.1332  0.1457
   78MOL   H13811072   4.614   5.323   4.103  0.5408  1.6172 -1.0612
   78MOL   H13911073   4.482   5.430   4.150 -0.7556 -1.1519  0.6402
   78MOL   H14011074   4.424   5.140   4.132  0.4139  0.0219 -0.7750
   78MOL   H14111075   4.477   5.138   4.344 -0.0049  0.0114 -0.0794
   78MOL   H14211076   4.328   5.263   4.194  0.9118  1.5868 -1.1957
   79MOL     C111077   1.025   7.454   2.941  0.3489  0.3768  0.2166
   79MOL     C211078   1.090   7.439   2.805 -0.3328  0.4595  0.0343
   79MOL     O311079   1.114   0.055   2.765  0.5343 -0.9221  0.2136
   79MOL     H411080   0.937   7.518   2.942  1.5156  2.0783 -1.3022
   79MOL     H511081   1.103   7.488   3.009 -0.1117  0.2823  0.7936
   79MOL     H611082   1.018   7.401   2.732 -1.7329 -1.2298  2.2522
   79MOL     H711083   1.169   0.055   2.688  1.0286  0.1638  0.5458
   79MOL     H811084   0.981   7.364   2.984  1.9324 -1.6066 -2.1336
   79MOL     C911085   1.220   7.352   2.809  0.0981  0.7602  0.2984
   79MOL    C1011086   1.293   7.320   2.667  0.5041  0.1028  0.3230
   79MOL    O1111087   1.425   7.280   2.687  0.3780  0.1800  0.1621
   79MOL    H1211088   1.292   7.414   2.862  0.3769  2.3224 -1.8092
   79MOL    H1311089   1.202   7.269   2.877 -1.5173  0.5178 -0.3926
   79MOL    H1411090   1.288   7.414   2.612 -1.9332 -0.5938 -0.7176
   79MOL    H1511091   1.460   7.336   2.756  0.5426  2.1072 -1.4354
   79MOL    C1611092   1.206   7.214   2.588 -0.2043 -0.0092  0.3074
   79MOL    C1711093   1.140   7.243   2.454 -0.1068  0.0974 -0.1598
   79MOL    O1811094   1.239   7.296   2.361  0.1122  0.0730  0.4334
   79MOL    H1911095   1.270   7.128   2.570  1.1266  0.9792  0.2571
   79MOL    H2011096   1.121   7.182   2.648 -1.0316  0.6033 -0.5296
   79MOL    H2111097   1.057   7.311   2.471  0.6209  1.2102 -1.0211
   79MOL    H2211098   1.196   7.343   2.292  0.4731  2.2205  1.6202
   79MOL    C2311099   1.094   7.113   2.389  0.8518  0.0064 -0.2913
   79MOL    C2411100   1.002   7.024   2.477 -1.6381  0.2264  0.3958
   79MOL    O2511101   0.900   7.105   2.530 -0.2266  0.3657 -0.1649
   79MOL    H2611102   1.034   7.140   2.301 -0.3519 -0.0534  0.5021
   79MOL    H2711103   1.177   7.050   2.356  3.2218  3.4777 -1.2732
   79MOL    H2811104   1.055   6.989   2.565  0.6402 -0.7199 -1.2900
   79MOL    H2911105   0.855   7.053   2.595  1.5507 -0.9886  0.0160
   79MOL    C3011106   0.956   6.898   2.392  1.0861  1.1259 -0.1674
   79MOL    C3111107   1.066   6.805   2.340  0.0474  0.1156 -0.3899
   79MOL    O3211108   1.023   6.671   2.371 -0.2123 -0.6559  0.2353
   79MOL    H3311109   0.889   6.839   2.455  4.0984 -2.3041  0.0424
   79MOL    H3411110   0.890   6.935   2.313 -3.3472 -2.2003  1.7093
   79MOL    H3511111   1.160   6.817   2.394  0.1309  0.2577 -0.5680
   79MOL    H3611112   1.048   6.670   2.462  0.8272  1.4386 -0.0113
   79MOL    C3711113   1.074   6.820   2.183 -0.4844 -0.4740 -0.0276
   79MOL    C3811114   1.182   6.731   2.116  0.2332  0.3027 -0.4988
   79MOL    O3911115   1.167   6.748   1.984 -0.3135 -0.5848  0.2425
   79MOL    H4011116   0.976   6.805   2.137 -0.0484  0.8507 -1.4229
   79MOL    H4111117   1.086   6.926   2.161 -0.5491 -1.2502 -4.1983
   79MOL    H4211118   1.159   6.625   2.121  0.8069  0.2130  0.4980
   79MOL    H4311119   1.188   6.838   1.964 -2.6384  0.2588  1.3857
   79MOL    C4411120   1.327   6.752   2.173  0.6071  0.3004  0.3459
   79MOL    C4511121   1.395   6.612   2.197  0.0225  0.5727  0.1842
   79MOL    O4611122   1.532   6.640   2.227  0.1417 -0.4178 -0.2644
   79MOL    H4711123   1.385   6.809   2.100 -0.2312  2.2052  1.1431
   79MOL    H4811124   1.319   6.804   2.268 -1.3867  1.8210 -0.6117
   79MOL    H4911125   1.386   6.542   2.114  1.0873 -0.3211  0.8063
   79MOL    H5011126   1.585   6.572   2.187 -0.3673 -0.8714 -0.1721
   79MOL    C5111127   1.347   6.540   2.327  0.1821  0.1382 -0.6307
   79MOL    C5211128   1.410   6.405   2.366 -0.8540  0.3435  0.1745
   79MOL    O5311129   1.331   6.355   2.473  0.0886 -0.4474  0.1846
   79MOL    H5411130   1.356   6.614   2.408 -0.1626 -1.9610  1.3669
   79MOL    H5511131   1.242   6.511   2.323  0.2652 -0.2917  0.1641
   79MOL    H5611132   1.508   6.408   2.412 -0.1921  2.2759 -1.3249
   79MOL    H5711133   1.358   6.389   2.557  1.7602  0.4121 -0.6608
   79MOL    C5811134   1.414   6.305   2.250 -0.4812 -0.0538  0.6207
   79MOL    C5911135   1.464   6.166   2.299 -0.0577 -0.0916  0.2067
   79MOL    O6011136   1.359   6.111   2.379  0.3293 -0.9610 -0.8855
   79MOL    H6111137   1.316   6.294   2.204  0.4361 -0.3045 -1.3641
   79MOL    H6211138   1.483   6.342   2.173 -0.6077  0.0924  0.5766
   79MOL    H6311139   1.542   6.184   2.373 -2.3515  1.6394  2.2785
   79MOL    H6411140   1.317   6.187   2.417  1.2293 -0.1816 -1.4386
   79MOL    C6511141   1.501   6.054   2.191  0.2485  0.6519 -0.3139
   79MOL    C6611142   1.605   6.098   2.084  0.1824  0.8559 -0.2873
   79MOL    O6711143   1.724   6.147   2.136 -0.2414 -0.2070  0.0393
   79MOL    H6811144   1.544   5.971   2.246 -2.1587  0.0295  0.7166
   79MOL    H6911145   1.411   6.021   2.139  0.0111 -0.8702  1.0390
   79MOL    H7011146   1.564   6.179   2.023 -1.2802  1.6044  1.6284
   79MOL    H7111147   1.778   6.182   2.066  0.1548 -1.0399 -0.0847
   79MOL    C7211148   1.646   5.979   1.997  0.3085  0.2745 -0.1943
   79MOL    C7311149   1.712   5.852   2.056  0.3841 -0.3261  0.1363
   79MOL    O7411150   1.706   5.758   1.946  0.5256  0.1080  0.7540
   79MOL    H7511151   1.570   5.963   1.921 -0.6103  0.7768  0.6104
   79MOL    H7611152   1.733   6.021   1.946  0.2114 -1.6840 -2.0314
   79MOL    H7711153   1.648   5.816   2.136  0.3674  2.6379  1.5195
   79MOL    H7811154   1.738   5.675   1.978 -0.9371 -0.1306  1.6491
   79MOL    C7911155   1.858   5.860   2.101 -0.0996  0.1973  0.4226
   79MOL    C8011156   1.878   5.887   2.248 -0.3322  0.2811 -0.1023
   79MOL    O8111157   1.831   5.782   2.329  0.2805  0.2122 -0.4018
   79MOL    H8211158   1.905   5.762   2.091  3.1984  1.5770  1.6877
   79MOL    H8311159   1.915   5.943   2.058  0.6012  0.8124  2.4633
   79MOL    H8411160   1.819   5.977   2.268 -1.2811  0.1475 -2.1561
   79MOL    H8511161   1.794   5.818   2.409 -1.8213  1.4054 -1.8690
   79MOL    C8611162   2.022   5.929   2.289 -0.4640  0.9145  0.5060
   79MOL    C8711163   2.131   5.826   2.254 -0.3094 -0.6135 -0.3919
   79MOL    O8811164   2.257   5.880   2.292  0.2268 -0.4759  0.3109
   79MOL    H8911165   2.053   6.018   2.234  0.0875  1.1619  1.2132
   79MOL    H9011166   2.035   5.952   2.395  0.9968  1.5967  0.1989
   79MOL    H9111167   2.127   5.829   2.145 -1.5134  1.5830 -0.3160
   79MOL    H9211168   2.253   5.974   2.287 -1.2145 -0.4302  2.0045
   79MOL    C9311169   2.108   5.679   2.306  0.3357 -0.0882 -0.1913
   79MOL    C9411170   2.208   5.569   2.255  0.1191  0.2732 -0.2229
   79MOL    O9511171   2.339   5.600   2.291  0.2563  0.3116 -0.1308
   79MOL    H9611172   2.097   5.686   2.415  2.9215 -1.0719  0.1724
   79MOL    H9711173   2.010   5.658   2.264 -0.5505  0.8753  1.3269
   79MOL    H9811174   2.190   5.558   2.148  0.1270 -0.9021 -0.1105
   79MOL    H9911175   2.342   5.694   2.293  0.3957  0.2940  1.2826
   79MOL   C10011176   2.171   5.427   2.308  0.1568  0.0543  0.7391
   79MOL   C10111177   2.028   5.384   2.274 -0.0808 -0.0057  0.0529
   79MOL   O10211178   2.027   5.244   2.226 -0.0527  0.1886 -0.4730
   79MOL   H10311179   2.238   5.353   2.264 -2.0325 -0.9164 -1.0506
   79MOL   H10411180   2.188   5.426   2.416  1.0597  1.0612  0.6174
   79MOL   H10511181   1.992   5.427   2.180  0.8557 -1.4284 -0.9790
   79MOL   H10611182   2.093   5.201   2.278  0.3115  0.8395 -0.3947
   79MOL   C10711183   1.926   5.392   2.385  0.4961 -0.5783 -0.1500
   79MOL   C10811184   1.779   5.376   2.332 -0.5556 -0.0942  0.1598
   79MOL   O10911185   1.710   5.354   2.456 -0.2583  0.1493 -0.4349
   79MOL   H11011186   1.950   5.313   2.456 -0.4659 -1.3996 -0.7204
   79MOL   H11111187   1.932   5.490   2.430  1.4354 -0.2622 -0.9657
   79MOL   H11211188   1.763   5.288   2.268 -2.3939  0.2512  0.1185
   79MOL   H11311189   1.643   5.290   2.437 -1.1922  1.1274 -0.4869
   79MOL   C11411190   1.715   5.504   2.269  0.0474  0.4055  0.2441
   79MOL   C11511191   1.586   5.478   2.177  0.7247  0.0328 -1.0776
   79MOL   O11611192   1.631   5.459   2.042 -0.1245 -0.2844  0.0035
   79MOL   H11711193   1.701   5.587   2.339  3.6262  2.4621 -1.3469
   79MOL   H11811194   1.797   5.548   2.213 -1.6265  1.8614 -1.1124
   79MOL   H11911195   1.528   5.570   2.185 -1.2508 -1.2148 -0.7575
   79MOL   H12011196   1.635   5.367   2.020  2.8218 -0.6383  1.7950
   79MOL   C12111197   1.502   5.351   2.211 -0.1831  0.4397  0.2043
   79MOL   C12211198   1.360   5.356   2.158  0.3524 -0.0910  0.2581
   79MOL   O12311199   1.306   5.225   2.177 -0.3763 -0.2854 -0.0491
   79MOL   H12411200   1.548   5.255   2.188  2.4682  1.2223  1.9107
   79MOL   H12511201   1.504   5.347   2.320  0.5644 -1.7750  0.1233
   79MOL   H12611202   1.361   5.372   2.050 -1.2553 -2.1167 -0.0766
   79MOL   H12711203   1.222   5.224   2.135 -1.6281  0.4247  2.3318
   79MOL   C12811204   1.256   5.451   2.221  0.3233  0.0516  0.3784
   79MOL   C12911205   1.147   5.491   2.117  0.0256  0.4084 -1.1466
   79MOL   O13011206   1.040   5.548   2.193  0.2768 -0.7342 -0.2155
   79MOL   H13111207   1.218   5.411   2.315  1.0105 -0.6175  0.3779
   79MOL   H13211208   1.319   5.535   2.250  1.8440 -1.3436  1.2486
   79MOL   H13311209   1.119   5.408   2.052 -0.4878 -1.9635  1.9318
   79MOL   H13411210   1.084   5.601   2.258  1.3657  0.1451 -1.6358
   79MOL   C13511211   1.205   5.609   2.044 -0.5271 -0.6820  0.1165
   79MOL   C13611212   1.132   5.646   1.915  0.3691 -0.0395 -0.3143
   79MOL   O13711213   1.166   5.778   1.876 -0.3732  0.5767 -0.3378
   79MOL   H13811214   1.218   5.695   2.111  0.6089 -0.3731 -0.4910
   79MOL   H13911215   1.309   5.591   2.017 -0.1813 -0.6394  1.3597
   79MOL   H14011216   1.023   5.645   1.921  0.1967  1.0222 -2.9426
   79MOL   H14111217   1.254   5.773   1.843  0.7001 -3.3558  2.6817
   79MOL   H14211218   1.161   5.574   1.840 -1.6550 -0.0549 -1.1184
   80MOL     C111219   1.838   6.625   4.600  0.1129  0.6168  0.2617
   80MOL     C211220   1.784   6.752   4.519 -0.0890 -0.3772  0.4016
   80MOL     O311221   1.742   6.821   4.625  0.0552  0.2202 -0.0546
   80MOL     H411222   1.758   6.562   4.638  0.3201 -0.1079 -0.4982
   80MOL     H511223   1.911   6.645   4.678  0.2797 -0.6612  0.4400
   80MOL     H611224   1.697   6.728   4.459  0.3678 -0.8348 -0.0908
   80MOL     H711225   1.817   6.846   4.677  1.5871 -1.3260 -1.4602
   80MOL     H811226   1.901   6.561   4.539  0.2606  0.4472  0.5961
   80MOL     C911227   1.903   6.824   4.450  0.7432  0.1399  0.3434
   80MOL    C1011228   1.983   6.752   4.339 -0.1726 -0.1576  0.0854
   80MOL    O1111229   1.905   6.722   4.227 -0.5212 -0.0820  0.2327
   80MOL    H1211230   1.867   6.920   4.412  0.3346  0.0129  0.4021
   80MOL    H1311231   1.970   6.853   4.531  2.7604  0.1111 -1.2994
   80MOL    H1411232   2.012   6.653   4.375  2.7352  0.1409 -1.3437
   80MOL    H1511233   1.856   6.799   4.203  1.1333  0.1060 -2.7203
   80MOL    C1611234   2.105   6.837   4.295 -0.6756  0.3632 -0.1813
   80MOL    C1711235   2.211   6.761   4.209  0.1804  0.1585 -0.7743
   80MOL    O1811236   2.164   6.721   4.086  0.1857  0.2245 -0.5865
   80MOL    H1911237   2.075   6.927   4.241  0.5199 -0.0287 -1.5137
   80MOL    H2011238   2.146   6.863   4.393 -0.6632 -2.2081  0.5220
   80MOL    H2111239   2.229   6.668   4.263  0.9599 -0.0425 -1.3685
   80MOL    H2211240   2.072   6.700   4.091  0.9380 -2.9519  1.3215
   80MOL    C2311241   2.355   6.820   4.190 -0.0569 -0.3389 -0.9528
   80MOL    C2411242   2.432   6.854   4.320  0.2455 -0.4753 -0.4283
   80MOL    O2511243   2.446   6.731   4.397 -0.2842  0.2497 -0.5560
   80MOL    H2611244   2.414   6.746   4.136 -0.1504 -0.0502 -1.4541
   80MOL    H2711245   2.362   6.902   4.119  1.1749 -0.0053 -0.4736
   80MOL    H2811246   2.373   6.922   4.382  1.9217  0.8282 -0.2232
   80MOL    H2911247   2.498   6.755   4.472  1.9193 -1.8309 -1.3679
   80MOL    C3011248   2.568   6.903   4.303  0.0524  0.4347  0.3623
   80MOL    C3111249   2.584   7.036   4.238 -0.4842 -0.1909 -0.1731
   80MOL    O3211250   2.541   7.139   4.319  0.6765 -0.3541 -0.0425
   80MOL    H3311251   2.607   6.915   4.404  0.7035  0.6749  0.0828
   80MOL    H3411252   2.627   6.821   4.263 -0.7408  0.5520 -1.0758
   80MOL    H3511253   2.540   7.051   4.139  2.0306 -1.3066 -1.5043
   80MOL    H3611254   2.535   7.222   4.274 -2.1659 -0.6133 -0.2904
   80MOL    C3711255   2.729   7.073   4.205 -1.0656 -0.3365 -0.0922
   80MOL    C3811256   2.803   7.006   4.090  0.0858 -0.3332  0.2017
   80MOL    O3911257   2.770   7.078   3.970 -0.4150  0.3086 -0.2065
   80MOL    H4011258   2.716   7.180   4.189  0.4424  0.1613  1.7622
   80MOL    H4111259   2.781   7.053   4.299 -1.5584 -0.4905  0.1502
   80MOL    H4211260   2.767   6.903   4.084 -1.3672  0.2504 -1.8454
   80MOL    H4311261   2.686   7.036   3.956 -0.2243 -0.1348 -0.0291
   80MOL    C4411262   2.958   7.012   4.107  0.4007  0.1069 -0.3604
   80MOL    C4511263   3.039   6.929   4.008  0.3846 -0.2094  0.4813
   80MOL    O4611264   3.040   6.990   3.887  0.0984 -0.2014  0.1805
   80MOL    H4711265   2.987   7.115   4.092  2.8899 -0.7067 -1.3283
   80MOL    H4811266   2.991   6.982   4.206  1.1214 -1.7629 -1.1395
   80MOL    H4911267   2.995   6.830   3.997 -1.5150  0.3773  2.5484
   80MOL    H5011268   2.949   6.998   3.863  0.4172 -0.4167 -1.1348
   80MOL    C5111269   3.190   6.906   4.039  0.1608  0.0464  0.0671
   80MOL    C5211270   3.228   6.851   4.181 -0.2644  0.6267 -0.3172
   80MOL    O5311271   3.175   6.720   4.201  0.1297  0.2660  0.6951
   80MOL    H5411272   3.245   6.866   3.953  0.1701 -0.7938  0.4672
   80MOL    H5511273   3.228   7.009   4.041 -0.3190  0.2860 -1.8581
   80MOL    H5611274   3.197   6.911   4.267 -0.8659  0.0844 -0.1445
   80MOL    H5711275   3.240   6.670   4.247 -1.0634 -2.1326 -0.1377
   80MOL    C5811276   3.383   6.823   4.199 -1.0353  0.2264 -0.5650
   80MOL    C5911277   3.424   6.780   4.348 -1.0042 -0.0417 -0.9781
   80MOL    O6011278   3.376   6.651   4.365  0.3576  0.1728 -0.3626
   80MOL    H6111279   3.418   6.758   4.119 -1.0202 -0.2137 -0.2044
   80MOL    H6211280   3.447   6.911   4.188 -1.4292  0.8372  1.7227
   80MOL    H6311281   3.374   6.843   4.422  1.6376 -1.0432  1.7322
   80MOL    H6411282   3.409   6.624   4.449 -2.1493 -0.5161  0.4408
   80MOL    C6511283   3.575   6.778   4.365 -0.0027 -0.1842  0.1275
   80MOL    C6611284   3.639   6.907   4.428 -0.1959  0.2867  0.7287
   80MOL    O6711285   3.615   6.901   4.569 -0.0576  0.4064 -0.2199
   80MOL    H6811286   3.583   6.696   4.436 -1.4063 -0.6292 -0.2111
   80MOL    H6911287   3.624   6.762   4.269  2.5641  0.4461  1.2776
   80MOL    H7011288   3.590   6.992   4.379 -0.6183 -1.4076 -1.8607
   80MOL    H7111289   3.536   6.949   4.587  0.8137  1.3056  1.3290
   80MOL    C7211290   3.798   6.913   4.422  0.3559  0.4531  0.9909
   80MOL    C7311291   3.854   6.922   4.277 -0.3307 -0.7371  0.1130
   80MOL    O7411292   3.810   7.043   4.217 -0.2321  0.4209  0.4842
   80MOL    H7511293   3.825   7.005   4.474  0.3783  1.6778 -1.1161
   80MOL    H7611294   3.847   6.833   4.476 -0.6647  0.5308  2.0569
   80MOL    H7711295   3.811   6.843   4.215 -1.4684 -1.0850  1.3313
   80MOL    H7811296   3.871   7.114   4.212 -0.1083  0.2133 -0.9810
   80MOL    C7911297   4.009   6.915   4.280 -0.4491  0.4053  0.0534
   80MOL    C8011298   4.072   6.774   4.294 -0.1508 -0.2171 -0.4916
   80MOL    O8111299   4.048   6.685   4.182  0.2799  0.7161  0.2407
   80MOL    H8211300   4.039   6.971   4.191 -2.1827  1.8559  0.3624
   80MOL    H8311301   4.047   6.974   4.363 -0.7245  0.2225  0.3069
   80MOL    H8411302   4.028   6.718   4.378  1.0421 -2.0574 -1.0679
   80MOL    H8511303   3.980   6.624   4.208 -0.1299  0.8322 -0.5729
   80MOL    C8611304   4.227   6.765   4.321 -0.1627 -0.5400 -0.7917
   80MOL    C8711305   4.288   6.846   4.450  0.1446  0.4588 -0.2118
   80MOL    O8811306   4.191   6.863   4.560 -0.1820  0.0504 -0.1101
   80MOL    H8911307   4.244   6.663   4.354  0.1341 -0.2195  0.0541
   80MOL    H9011308   4.296   6.782   4.238  0.6595  1.0898  0.1924
   80MOL    H9111309   4.320   6.945   4.420 -0.8682  0.2008 -2.2434
   80MOL    H9211310   4.152   6.778   4.574 -0.5515 -0.1352 -2.0845
   80MOL    C9311311   4.413   6.779   4.511  0.1515 -0.0906 -0.0814
   80MOL    C9411312   4.474   6.851   4.635  0.5242 -0.2227  0.1878
   80MOL    O9511313   4.590   6.789   4.680 -0.1005  0.2566  0.3837
   80MOL    H9611314   4.385   6.676   4.535 -0.0021  0.1315  0.7024
   80MOL    H9711315   4.500   6.773   4.445  1.3459  2.0203  1.2455
   80MOL    H9811316   4.392   6.843   4.707 -2.0000  1.0732 -2.4178
   80MOL    H9911317   4.652   6.802   4.610  0.5456  0.2527  0.9563
   80MOL   C10011318   4.504   7.000   4.619  0.4765  0.0113 -0.3330
   80MOL   C10111319   4.522   7.079   4.751 -0.2706 -0.5563  0.9781
   80MOL   O10211320   4.592   7.203   4.726 -0.0873  0.0376  0.5089
   80MOL   H10311321   4.595   6.999   4.560 -0.5711  1.0289 -2.0223
   80MOL   H10411322   4.425   7.061   4.576  0.1550 -0.4628 -0.4135
   80MOL   H10511323   4.578   7.022   4.825  0.5550 -0.4259  0.4632
   80MOL   H10611324   4.587   7.214   4.632  0.4257 -0.9111  0.3669
   80MOL   C10711325   4.391   7.097   4.826 -0.2692  0.0539  0.6496
   80MOL   C10811326   4.404   7.128   4.976 -0.0043  0.4322 -0.7414
   80MOL   O10911327   4.477   7.247   4.999  0.1740  0.0653 -0.1377
   80MOL   H11011328   4.332   7.174   4.775  1.4674  0.4229 -0.8716
   80MOL   H11111329   4.337   7.003   4.829  0.1342 -0.1549  1.7985
   80MOL   H11211330   4.453   7.043   5.022  0.1074  1.9917  2.1034
   80MOL   H11311331   4.524   7.256   4.917  0.4008 -0.4510 -0.0663
   80MOL   C11411332   4.273   7.148   5.053  0.1007 -0.8871 -0.0542
   80MOL   C11511333   4.274   7.103   5.205 -0.5527  0.0557  0.6895
   80MOL   O11611334   4.211   7.203   5.280  0.5750  0.6045  0.1330
   80MOL   H11711335   4.244   7.252   5.040  0.2111 -0.7438  0.8372
   80MOL   H11811336   4.192   7.095   5.004 -0.8243  0.2217  0.2552
   80MOL   H11911337   4.379   7.108   5.236 -0.0537  1.7501 -1.1588
   80MOL   H12011338   4.224   7.179   5.370  1.3606  0.9845  0.1248
   80MOL   C12111339   4.193   6.975   5.243 -0.4528 -0.1224  0.2580
   80MOL   C12211340   4.260   6.850   5.183 -0.1909  0.2803  0.4782
   80MOL   O12311341   4.232   6.740   5.265 -0.5290 -0.5148  0.4918
   80MOL   H12411342   4.205   6.963   5.351 -0.4584 -0.1716  0.2530
   80MOL   H12511343   4.091   6.977   5.207  0.0049 -3.8144 -1.5039
   80MOL   H12611344   4.368   6.863   5.182  0.0770 -1.6893 -0.7893
   80MOL   H12711345   4.294   6.752   5.336  2.6151 -0.1863 -2.2052
   80MOL   C12811346   4.210   6.808   5.040 -0.0700  0.0080  0.0341
   80MOL   C12911347   4.293   6.695   4.977  0.4160 -0.3552  0.3386
   80MOL   O13011348   4.249   6.680   4.841 -0.2124 -0.3543  0.3676
   80MOL   H13111349   4.104   6.784   5.042 -0.3519  1.1520 -0.8021
   80MOL   H13211350   4.207   6.885   4.963 -2.8973 -0.0795 -0.0017
   80MOL   H13311351   4.265   6.608   5.036  0.3594 -1.9206 -1.9184
   80MOL   H13411352   4.159   6.706   4.826  0.5706  0.9009 -2.7085
   80MOL   C13511353   4.444   6.711   4.988 -0.9437 -0.4032 -0.1529
   80MOL   C13611354   4.525   6.596   4.934 -0.2869 -0.4525  0.4190
   80MOL   O13711355   4.653   6.650   4.924  0.6138  0.4923 -0.6397
   80MOL   H13811356   4.475   6.807   4.946 -2.1539 -0.0877 -0.3351
   80MOL   H13911357   4.471   6.710   5.094 -0.4314 -0.3514 -0.2841
   80MOL   H14011358   4.493   6.573   4.833  0.5300 -1.1762  0.3227
   80MOL   H14111359   4.653   6.692   4.839  0.6015  1.1976 -0.2969
   80MOL   H14211360   4.514   6.508   4.997 -0.6426 -1.1108 -0.5549
   81MOL     C111361   4.789   2.251   2.009  0.5758  0.3032  0.2861
   81MOL     C211362   4.908   2.310   2.087  0.5434  0.1221  0.2187
   81MOL     O311363   5.002   2.211   2.103 -0.1652  0.0138  0.2514
   81MOL     H411364   4.737   2.171   2.062 -1.6293  2.6586  1.7924
   81MOL     H511365   4.819   2.204   1.915 -1.2460 -0.2732 -0.0441
   81MOL     H611366   4.877   2.337   2.188 -0.8919  1.1332 -0.4813
   81MOL     H711367   5.076   2.251   2.147 -0.8685  0.2035  1.2724
   81MOL     H811368   4.720   2.333   1.994 -0.6871 -0.5726  1.1708
   81MOL     C911369   4.970   2.430   2.018 -0.7200 -0.0973  0.2444
   81MOL    C1011370   5.063   2.515   2.104  0.3760  0.1497 -0.3551
   81MOL    O1111371   5.181   2.444   2.130  0.2223  0.0767  0.2791
   81MOL    H1211372   5.018   2.408   1.922 -0.2297 -1.2786  0.7554
   81MOL    H1311373   4.889   2.492   1.980 -0.8085 -0.7211 -0.6183
   81MOL    H1411374   5.018   2.530   2.202 -0.7101  1.7458 -1.0813
   81MOL    H1511375   5.211   2.486   2.209 -1.4516  5.0259 -1.5193
   81MOL    C1611376   5.102   2.650   2.046 -0.0515  0.2291  0.0556
   81MOL    C1711377   4.985   2.760   2.044 -0.9092 -1.0899 -0.6323
   81MOL    O1811378   4.973   2.802   2.176  0.4051 -0.6058 -0.1323
   81MOL    H1911379   5.185   2.692   2.103  0.5779 -0.2378 -0.5152
   81MOL    H2011380   5.142   2.630   1.947  0.6305  1.0576  0.1648
   81MOL    H2111381   4.889   2.727   2.003 -2.1035  0.8520  0.5673
   81MOL    H2211382   4.969   2.896   2.173 -1.0654 -0.5877  1.4430
   81MOL    C2311383   5.020   2.889   1.967 -0.6099 -0.5563 -0.7863
   81MOL    C2411384   4.894   2.988   1.963  0.5808  0.4566 -0.2835
   81MOL    O2511385   4.887   3.062   2.085 -0.4646  0.6040  0.3333
   81MOL    H2611386   5.104   2.934   2.019  0.6304 -1.3844 -2.0481
   81MOL    H2711387   5.053   2.857   1.868  0.1429  1.4952 -1.2216
   81MOL    H2811388   4.801   2.935   1.942  0.4827 -0.6140  2.5475
   81MOL    H2911389   4.802   3.051   2.126 -0.5302 -1.9037 -0.3994
   81MOL    C3011390   4.927   3.097   1.863 -0.0390  0.1482  0.5433
   81MOL    C3111391   4.923   3.053   1.716  0.1818 -0.2596 -0.2445
   81MOL    O3211392   4.788   3.064   1.671 -0.4278  0.0675  0.2294
   81MOL    H3311393   4.843   3.161   1.889 -0.2314 -0.9994  2.8186
   81MOL    H3411394   5.022   3.145   1.886  0.8235 -1.4173  0.2998
   81MOL    H3511395   4.955   2.950   1.704  1.4917  0.1857 -0.6932
   81MOL    H3611396   4.758   3.153   1.685  1.0566  0.7884 -1.0282
   81MOL    C3711397   5.009   3.139   1.620 -0.1930 -0.2042  0.5047
   81MOL    C3811398   5.158   3.153   1.657 -0.0466 -0.2506  0.1168
   81MOL    O3911399   5.233   3.083   1.565 -1.1502  0.5278  0.5171
   81MOL    H4011400   4.993   3.098   1.520  0.0437 -1.4053  0.9541
   81MOL    H4111401   4.967   3.239   1.616 -1.1767 -0.5711  1.3603
   81MOL    H4211402   5.184   3.109   1.753  0.9753  0.8503  0.3575
   81MOL    H4311403   5.197   2.996   1.560  0.4793 -0.0260 -3.0592
   81MOL    C4411404   5.202   3.294   1.646  0.4415  0.0608  0.1905
   81MOL    C4511405   5.324   3.344   1.726  0.8784 -0.1105 -0.5438
   81MOL    O4611406   5.298   3.305   1.860  0.3537 -0.0762 -0.2117
   81MOL    H4711407   5.216   3.327   1.543  0.1271 -1.3684 -0.3211
   81MOL    H4811408   5.120   3.357   1.679 -0.2634 -0.9973  0.4648
   81MOL    H4911409   5.332   3.452   1.724  3.1405 -0.2481 -0.0232
   81MOL    H5011410   5.239   3.367   1.901  1.5602  2.2095 -1.8095
   81MOL    C5111411   5.450   3.278   1.686 -0.3558 -0.0493  0.2824
   81MOL    C5211412   5.585   3.352   1.717 -0.3961  0.3919 -0.5111
   81MOL    O5311413   5.688   3.261   1.711 -0.4547  0.4392 -0.0374
   81MOL    H5411414   5.446   3.181   1.735  0.7101 -0.0462  0.3970
   81MOL    H5511415   5.438   3.251   1.581  1.4453 -1.6161  0.4359
   81MOL    H5611416   5.587   3.393   1.818  2.4836  1.9336 -1.1424
   81MOL    H5711417   5.675   3.201   1.783 -1.4201  0.7011  0.0148
   81MOL    C5811418   5.604   3.476   1.632  0.1141 -0.4366 -0.1273
   81MOL    C5911419   5.738   3.556   1.646 -0.6580 -1.0063  0.9062
   81MOL    O6011420   5.836   3.518   1.545  0.2445  0.5110 -0.3879
   81MOL    H6111421   5.581   3.458   1.527 -1.6265  0.6626  0.0465
   81MOL    H6211422   5.533   3.547   1.676  2.8345  1.9702  0.5716
   81MOL    H6311423   5.765   3.554   1.751 -0.0653 -2.2798  0.7451
   81MOL    H6411424   5.850   3.425   1.556 -1.6217  0.2941  0.2709
   81MOL    C6511425   5.710   3.708   1.616 -0.4408  0.4073 -0.2791
   81MOL    C6611426   5.830   3.811   1.619 -0.0068 -0.6237 -0.8985
   81MOL    O6711427   5.785   3.933   1.564 -0.0838  0.0838 -1.0815
   81MOL    H6811428   5.663   3.722   1.518 -3.6342  0.7730  1.2251
   81MOL    H6911429   5.633   3.747   1.683 -0.6306 -0.3465 -0.0523
   81MOL    H7011430   5.916   3.769   1.567 -1.4112 -0.7377 -3.1846
   81MOL    H7111431   5.742   3.925   1.481 -0.6350  1.7195 -0.9682
   81MOL    C7211432   5.868   3.840   1.769 -0.0266  0.5889  0.4275
   81MOL    C7311433   6.014   3.895   1.777  0.0445 -0.6286  0.0492
   81MOL    O7411434   6.011   3.955   1.903 -0.2810  0.3146 -0.0236
   81MOL    H7511435   5.790   3.906   1.808  3.1697  3.7309  1.8957
   81MOL    H7611436   5.869   3.748   1.828  0.5853  0.3526  0.0461
   81MOL    H7711437   6.048   3.957   1.694  0.3970 -0.4423  0.3287
   81MOL    H7811438   5.966   4.038   1.901 -1.2507 -0.1642  1.4338
   81MOL    C7911439   6.115   3.777   1.795 -0.0694 -0.3623 -0.2296
   81MOL    C8011440   6.260   3.837   1.788  0.1276 -0.9223 -0.7581
   81MOL    O8111441   6.352   3.767   1.875 -0.2617  0.5419  0.0698
   81MOL    H8211442   6.097   3.738   1.896 -0.0176 -1.4029 -0.6150
   81MOL    H8311443   6.095   3.702   1.719 -2.9788  1.5395 -1.4191
   81MOL    H8411444   6.263   3.934   1.837 -0.6428 -0.2310 -2.0594
   81MOL    H8511445   6.311   3.736   1.954  0.3480 -2.6261 -0.7668
   81MOL    C8611446   6.311   3.837   1.645 -0.1797  0.4267 -0.6920
   81MOL    C8711447   6.406   3.957   1.615 -0.2250  0.0086  0.0257
   81MOL    O8811448   6.500   3.932   1.507 -0.4303  0.0522 -0.6571
   81MOL    H8911449   6.359   3.740   1.639 -1.4030 -0.3339  1.3980
   81MOL    H9011450   6.228   3.835   1.574 -1.3142 -1.0143  0.6528
   81MOL    H9111451   6.460   3.977   1.707  1.4011  0.5837 -1.0346
   81MOL    H9211452   6.459   3.944   1.423  2.7942  2.3462 -2.0254
   81MOL    C9311453   6.324   4.084   1.585 -0.6766 -0.3696 -0.1599
   81MOL    C9411454   6.410   4.215   1.551 -0.5468 -0.0924 -0.3835
   81MOL    O9511455   6.325   4.312   1.492  0.5487 -0.0466 -0.4824
   81MOL    H9611456   6.253   4.057   1.507 -0.6126 -1.8029  0.2572
   81MOL    H9711457   6.258   4.104   1.670 -0.7118  0.1409 -0.3046
   81MOL    H9811458   6.477   4.188   1.469 -1.1994  1.0866 -1.3097
   81MOL    H9911459   6.303   4.279   1.406 -0.4521 -2.4014  0.6336
   81MOL   C10011460   6.501   4.274   1.661 -0.4730  0.5210  0.4120
   81MOL   C10111461   6.439   4.283   1.797  0.0457 -0.2161 -0.1034
   81MOL   O10211462   6.536   4.276   1.894 -0.5310  0.1057  0.0487
   81MOL   H10311463   6.592   4.215   1.673 -0.2372  0.9785  0.8896
   81MOL   H10411464   6.533   4.371   1.624  1.5851  0.3776  1.7604
   81MOL   H10511465   6.364   4.203   1.798 -0.7652  0.5371 -0.2656
   81MOL   H10611466   6.514   4.343   1.957 -2.2682 -0.6557  0.2789
   81MOL   C10711467   6.351   4.413   1.820 -0.3006  0.1372 -0.0885
   81MOL   C10811468   6.235   4.400   1.917  0.6614 -0.0043  0.9576
   81MOL   O10911469   6.181   4.535   1.917 -0.2445  0.5269 -0.2712
   81MOL   H11011470   6.410   4.500   1.849  0.6191  0.2650 -2.2758
   81MOL   H11111471   6.320   4.441   1.720 -0.4706  1.3960  0.3083
   81MOL   H11211472   6.252   4.377   2.022 -0.0624 -1.5768  0.7388
   81MOL   H11311473   6.178   4.570   1.830 -0.4061 -0.4415 -0.6688
   81MOL   C11411474   6.126   4.304   1.884  0.2869 -0.3161  0.3872
   81MOL   C11511475   5.979   4.318   1.957 -0.5323 -0.7684  0.1425
   81MOL   O11611476   5.895   4.218   1.906  0.3910  0.2567 -0.0770
   81MOL   H11711477   6.109   4.321   1.778 -1.3212 -0.8985  0.5291
   81MOL   H11811478   6.162   4.203   1.904 -0.4629 -0.7998 -0.6495
   81MOL   H11911479   5.934   4.415   1.935  1.5403  1.1307  3.7156
   81MOL   H12011480   5.878   4.238   1.815 -0.8465  1.5527  0.4101
   81MOL   C12111481   5.985   4.304   2.108 -0.3586  0.8116 -0.8868
   81MOL   C12211482   5.858   4.353   2.176 -0.6740  0.0497 -0.2834
   81MOL   O12311483   5.851   4.323   2.313  0.6863  0.3000  0.2257
   81MOL   H12411484   6.006   4.199   2.125  0.0913  0.6061 -2.5713
   81MOL   H12511485   6.068   4.364   2.146  0.8091  0.5580 -2.9731
   81MOL   H12611486   5.775   4.302   2.128  1.0472 -0.7175 -2.5331
   81MOL   H12711487   5.881   4.234   2.323 -1.9135 -0.7351 -0.8729
   81MOL   C12811488   5.845   4.501   2.175  0.5889  1.0207  0.4782
   81MOL   C12911489   5.699   4.543   2.157 -0.5035 -0.3951  0.4310
   81MOL   O13011490   5.678   4.663   2.222  1.0963  0.2561 -0.0797
   81MOL   H13111491   5.890   4.549   2.261  2.8344 -0.0489 -0.0551
   81MOL   H13211492   5.902   4.547   2.094 -0.3941  0.6908 -0.4071
   81MOL   H13311493   5.635   4.480   2.219 -0.2818 -0.9391  0.1067
   81MOL   H13411494   5.743   4.722   2.188 -0.1329  0.4049 -2.2524
   81MOL   C13511495   5.641   4.530   2.010 -0.0093 -0.7037  0.0934
   81MOL   C13611496   5.509   4.607   1.968 -0.2404  0.7534 -0.7330
   81MOL   O13711497   5.481   4.572   1.833 -0.0100  0.2874  1.0618
   81MOL   H13811498   5.722   4.561   1.944 -0.0534  1.1684  0.8861
   81MOL   H13911499   5.624   4.424   1.991  0.6748 -0.8518  0.2943
   81MOL   H14011500   5.509   4.714   1.989 -1.6829  0.1757  2.4359
   81MOL   H14111501   5.528   4.636   1.782 -1.4254  0.9431  0.5656
   81MOL   H14211502   5.428   4.576   2.034 -1.5990  2.1627 -1.7096
   82MOL     C111503   6.374   5.258   5.937  1.0149  0.6048  0.3942
   82MOL     C211504   6.318   5.331   6.059 -0.2244 -0.3986  0.6156
   82MOL     O311505   6.414   5.330   6.158  0.1368 -0.2355 -0.7329
   82MOL     H411506   6.304   5.243   5.855  0.7226  1.8995  0.3944
   82MOL     H511507   6.424   5.166   5.967  0.6406 -0.2532 -1.5302
   82MOL     H611508   6.228   5.277   6.089 -1.8488  2.8144  1.7403
   82MOL     H711509   6.479   5.262   6.148  1.1824  1.1152 -3.6799
   82MOL     H811510   6.443   5.317   5.876  0.6533 -0.0483 -0.6619
   82MOL     C911511   6.296   5.481   6.025  0.0777  0.0375  0.3958
   82MOL    C1011512   6.182   5.516   5.923  0.4206  0.2454  0.1301
   82MOL    O1111513   6.059   5.508   5.991  0.3013 -0.3466  0.1737
   82MOL    H1211514   6.278   5.543   6.113  2.7056  0.7126  0.4931
   82MOL    H1311515   6.389   5.524   5.986  0.4315 -2.6645 -1.9268
   82MOL    H1411516   6.182   5.444   5.842 -0.5275 -0.7376  0.9818
   82MOL    H1511517   5.991   5.494   5.927 -0.9175  0.7726  1.1756
   82MOL    C1611518   6.197   5.661   5.873  0.3270  0.4420 -0.3893
   82MOL    C1711519   6.113   5.703   5.747  0.0412 -0.0168 -0.4781
   82MOL    O1811520   6.167   5.828   5.704  0.4887  0.6307 -0.0768
   82MOL    H1911521   6.192   5.742   5.946  1.8605  0.1064  0.0897
   82MOL    H2011522   6.299   5.674   5.838 -0.0878 -1.7667 -2.5186
   82MOL    H2111523   6.013   5.729   5.780 -0.3452 -1.0173 -0.8226
   82MOL    H2211524   6.109   5.887   5.748  0.0725 -1.0441  1.6864
   82MOL    C2311525   6.091   5.621   5.622  0.4645  0.2768  0.3902
   82MOL    C2411526   6.020   5.482   5.636  0.0908 -0.1911 -0.9331
   82MOL    O2511527   5.930   5.500   5.744  0.7698  0.1503  0.1092
   82MOL    H2611528   6.026   5.675   5.553 -0.3063 -1.1292 -0.0006
   82MOL    H2711529   6.185   5.610   5.568  0.1791  0.6867 -0.1910
   82MOL    H2811530   6.093   5.403   5.653  1.1093  0.3962 -2.4709
   82MOL    H2911531   5.847   5.471   5.711 -0.0407  0.2505  1.9673
   82MOL    C3011532   5.959   5.436   5.500 -0.1185 -0.5671 -0.2566
   82MOL    C3111533   5.884   5.306   5.504  0.4240  0.3361 -0.5945
   82MOL    O3211534   5.756   5.322   5.564 -0.4106  0.0551  0.1046
   82MOL    H3311535   5.891   5.510   5.457  0.4495 -0.6695 -1.3655
   82MOL    H3411536   6.037   5.432   5.424 -1.5387 -1.6506 -1.6747
   82MOL    H3511537   5.937   5.228   5.559  0.4855  1.9954  1.7502
   82MOL    H3611538   5.707   5.242   5.562  0.5117 -0.5293  0.5009
   82MOL    C3711539   5.871   5.256   5.354  0.3883 -0.4972  0.8595
   82MOL    C3811540   5.774   5.139   5.324 -0.2927  0.2270  0.4067
   82MOL    O3911541   5.771   5.110   5.191  0.2558 -0.2125 -0.2456
   82MOL    H4011542   5.852   5.341   5.290 -0.2992 -1.7131 -0.5700
   82MOL    H4111543   5.967   5.223   5.314  0.4617  1.0435 -0.2453
   82MOL    H4211544   5.674   5.163   5.361  0.0702  1.1905  0.7629
   82MOL    H4311545   5.697   5.052   5.183  1.3130 -1.7515  0.8823
   82MOL    C4411546   5.815   5.009   5.394 -0.7365 -0.0854  0.1773
   82MOL    C4511547   5.702   4.905   5.397 -0.7430  0.1691 -0.2518
   82MOL    O4611548   5.684   4.850   5.268  0.1306  0.3269  0.4846
   82MOL    H4711549   5.911   4.970   5.360  0.2132  2.5970 -0.3975
   82MOL    H4811550   5.821   5.039   5.498 -2.5269  1.3843 -0.0950
   82MOL    H4911551   5.610   4.951   5.434 -0.9501  0.3863 -1.0125
   82MOL    H5011552   5.598   4.811   5.256 -0.7159  1.3850  2.9508
   82MOL    C5111553   5.732   4.786   5.491  0.4432  0.5746 -0.5799
   82MOL    C5211554   5.614   4.731   5.576 -0.1624  0.2550 -0.2085
   82MOL    O5311555   5.518   4.665   5.493 -0.4445 -0.6817  0.0281
   82MOL    H5411556   5.778   4.702   5.439 -1.9371 -1.8446  1.0411
   82MOL    H5511557   5.808   4.815   5.563  0.1761 -2.6258  1.1301
   82MOL    H5611558   5.554   4.806   5.628  0.1065 -0.3140  0.9349
   82MOL    H5711559   5.556   4.651   5.408 -1.5297  0.2221 -0.6134
   82MOL    C5811560   5.658   4.618   5.671 -0.3001  0.3859  0.2300
   82MOL    C5911561   5.564   4.567   5.778  0.0540  0.0273  0.9729
   82MOL    O6011562   5.611   4.450   5.818  0.4562  0.3481  0.6610
   82MOL    H6111563   5.681   4.533   5.607  0.6162  1.6900 -1.2255
   82MOL    H6211564   5.756   4.645   5.711 -0.6721  1.1322  0.6691
   82MOL    H6311565   5.473   4.553   5.720  2.0488  0.1989 -2.3175
   82MOL    H6411566   5.568   4.438   5.901 -2.1239 -0.8112 -0.7753
   82MOL    C6511567   5.545   4.669   5.896 -0.1976 -0.3720  0.1268
   82MOL    C6611568   5.414   4.637   5.977 -0.5402  0.4261  0.0804
   82MOL    O6711569   5.421   4.509   6.028  0.1002 -0.0653 -0.1081
   82MOL    H6811570   5.631   4.660   5.962 -1.1658 -0.5278  1.3958
   82MOL    H6911571   5.539   4.774   5.865 -2.6757 -1.0469 -1.9529
   82MOL    H7011572   5.321   4.644   5.922  0.7185 -0.5845 -2.2817
   82MOL    H7111573   5.347   4.491   6.083  0.2403  0.4823  0.2671
   82MOL    C7211574   5.404   4.719   6.106 -0.3944  0.1509  0.0727
   82MOL    C7311575   5.364   4.861   6.091 -0.1883  0.1308 -0.5800
   82MOL    O7411576   5.234   4.851   6.050  0.8223  0.1632 -0.2797
   82MOL    H7511577   5.353   4.670   6.188 -0.8597  0.5329  0.0112
   82MOL    H7611578   5.498   4.705   6.160  0.5358 -0.5943 -1.7044
   82MOL    H7711579   5.435   4.907   6.021  0.2317  1.7481  0.8749
   82MOL    H7811580   5.180   4.831   6.125 -0.8308  0.8465 -1.2478
   82MOL    C7911581   5.380   4.951   6.215 -0.2759  0.1209 -0.0597
   82MOL    C8011582   5.353   5.099   6.181 -0.1717 -0.1809  0.5596
   82MOL    O8111583   5.279   5.164   6.285 -0.1754  0.1258 -0.0168
   82MOL    H8211584   5.304   4.926   6.289  0.1897 -1.6364 -0.1542
   82MOL    H8311585   5.480   4.948   6.258 -0.3574 -0.1477  0.1131
   82MOL    H8411586   5.277   5.097   6.102 -0.5488 -0.1479  0.9180
   82MOL    H8511587   5.189   5.155   6.256 -1.0118  1.7365  1.9939
   82MOL    C8611588   5.484   5.177   6.147 -0.7813 -0.3973 -0.1069
   82MOL    C8711589   5.503   5.209   5.992  0.2533 -0.0794  0.0454
   82MOL    O8811590   5.436   5.326   5.957  0.2612 -0.0686  0.6844
   82MOL    H8911591   5.490   5.269   6.204  2.7172  0.2113 -1.3214
   82MOL    H9011592   5.570   5.115   6.175  0.1291 -0.1779 -2.2984
   82MOL    H9111593   5.454   5.126   5.940 -1.8031  0.5049  1.0076
   82MOL    H9211594   5.346   5.311   5.936  0.8120 -0.9773 -1.1035
   82MOL    C9311595   5.645   5.227   5.941  0.4327  0.3959  0.1775
   82MOL    C9411596   5.727   5.093   5.939  0.7898  0.0002 -0.6514
   82MOL    O9511597   5.661   5.018   5.841  0.4538  0.4155 -0.4598
   82MOL    H9611598   5.647   5.266   5.839 -0.2000 -1.2107 -0.4656
   82MOL    H9711599   5.699   5.305   5.995  0.5436  1.7802 -1.8689
   82MOL    H9811600   5.720   5.048   6.038  1.0982 -1.0951 -1.1236
   82MOL    H9911601   5.704   4.933   5.846  2.1804  1.3998  3.5170
   82MOL   C10011602   5.877   5.101   5.901 -0.3893  0.7338  0.2505
   82MOL   C10111603   5.953   4.969   5.917  0.1297 -0.2519  0.4661
   82MOL   O10211604   5.895   4.864   5.836  0.0678 -0.4074  0.3494
   82MOL   H10311605   5.893   5.159   5.810 -0.2820 -1.5797 -1.2425
   82MOL   H10411606   5.932   5.161   5.973  0.2780 -0.2145  0.5348
   82MOL   H10511607   5.931   4.932   6.017  1.8089 -0.5986  0.7168
   82MOL   H10611608   5.884   4.783   5.884 -2.3118  0.6541  1.6737
   82MOL   C10711609   6.113   4.981   5.913  0.8710 -0.0419 -0.8615
   82MOL   C10811610   6.197   4.870   5.973  0.4545 -0.1488  0.2430
   82MOL   O10911611   6.328   4.904   5.929 -0.3046 -0.1357  0.0974
   82MOL   H11011612   6.139   4.987   5.807 -2.1301 -2.6136 -1.8317
   82MOL   H11111613   6.139   5.077   5.957  1.2308  0.0324 -1.2309
   82MOL   H11211614   6.152   4.777   5.939 -0.4721  0.8532 -1.3677
   82MOL   H11311615   6.321   4.906   5.835 -0.4062 -2.1575  0.0478
   82MOL   C11411616   6.183   4.864   6.129 -0.6513  0.1845 -0.5075
   82MOL   C11511617   6.294   4.780   6.195 -0.6616 -0.8751  0.3418
   82MOL   O11611618   6.294   4.795   6.336  0.5675  0.4322 -0.1498
   82MOL   H11711619   6.197   4.968   6.160  1.3015  0.0362 -0.8512
   82MOL   H11811620   6.086   4.839   6.172 -0.9462  1.0872 -0.6489
   82MOL   H11911621   6.394   4.811   6.164  0.2686 -1.6542  2.4395
   82MOL   H12011622   6.363   4.859   6.346  0.6391  0.3750 -0.2829
   82MOL   C12111623   6.280   4.639   6.167 -0.9485  0.4022 -0.3645
   82MOL   C12211624   6.390   4.536   6.214  0.0146  0.1145 -0.2062
   82MOL   O12311625   6.408   4.538   6.359  0.4349 -0.1593 -0.3799
   82MOL   H12411626   6.186   4.612   6.215  0.0692  1.1111  2.1517
   82MOL   H12511627   6.268   4.622   6.060 -1.1062  0.9580 -0.4358
   82MOL   H12611628   6.483   4.562   6.164 -0.8866  2.5601 -0.6625
   82MOL   H12711629   6.367   4.621   6.379  0.6343 -0.1536 -0.0035
   82MOL   C12811630   6.368   4.386   6.196 -0.3768  0.0142  0.5802
   82MOL   C12911631   6.486   4.299   6.228  0.2194 -0.1054 -0.1513
   82MOL   O13011632   6.483   4.286   6.368 -0.1675  0.3615 -0.7329
   82MOL   H13111633   6.281   4.353   6.253 -0.0507 -2.3256 -0.2245
   82MOL   H13211634   6.324   4.374   6.096 -2.6564 -3.4091  1.9255
   82MOL   H13311635   6.574   4.349   6.186  0.5213  0.4791  1.1400
   82MOL   H13411636   6.485   4.371   6.408 -0.0303 -0.0689  0.1823
   82MOL   C13511637   6.477   4.161   6.167 -0.7189 -0.7217  1.0316
   82MOL   C13611638   6.513   4.156   6.018  0.3496 -0.1688  0.7283
   82MOL   O13711639   6.468   4.030   5.962  0.2373  0.0241 -0.5303
   82MOL   H13811640   6.542   4.092   6.221 -0.2116  1.0834  2.7491
   82MOL   H13911641   6.375   4.129   6.185 -1.0369 -0.0950  0.3458
   82MOL   H14011642   6.620   4.160   5.995  0.7754  1.9976  2.8137
   82MOL   H14111643   6.520   4.020   5.884  1.5719  1.9126  0.1054
   82MOL   H14211644   6.456   4.232   5.965  0.8096  0.7250  1.4978
   83MOL     C111645   3.588   4.842   7.105  0.7216 -0.0353 -0.2261
   83MOL     C211646   3.514   4.972   7.129  0.1125  0.6178  0.1921
   83MOL     O311647   3.407   4.954   7.226 -0.1394 -0.3405 -0.3745
   83MOL     H411648   3.618   4.807   7.204  1.6373  1.3863  0.0124
   83MOL     H511649   3.667   4.862   7.032  0.8247 -1.3603 -0.4914
   83MOL     H611650   3.475   5.004   7.032 -3.4632 -3.4801  0.1263
   83MOL     H711651   3.428   4.874   7.272  0.4829 -0.4200 -0.7913
   83MOL     H811652   3.519   4.770   7.063 -1.1641 -1.4576  4.9046
   83MOL     C911653   3.607   5.074   7.194 -0.3530 -0.7501  0.9855
   83MOL    C1011654   3.740   5.108   7.129  0.3001  1.2563 -0.4965
   83MOL    O1111655   3.719   5.169   6.992 -0.8635 -0.0568 -0.3494
   83MOL    H1211656   3.544   5.161   7.210 -1.1432 -0.6546 -2.4199
   83MOL    H1311657   3.615   5.035   7.296 -1.6924 -0.3574  1.2560
   83MOL    H1411658   3.803   5.019   7.121  0.5752  1.4234 -0.2416
   83MOL    H1511659   3.652   5.233   7.007  1.2823  2.1481  0.0938
   83MOL    C1611660   3.822   5.208   7.211  0.4157 -0.9635  0.5672
   83MOL    C1711661   3.967   5.227   7.158 -0.1294  0.5971  0.4106
   83MOL    O1811662   3.963   5.308   7.038  0.1675  0.1683  0.4272
   83MOL    H1911663   3.774   5.305   7.220 -0.5004 -1.1322 -2.1171
   83MOL    H2011664   3.826   5.163   7.311  0.2046  0.6082  1.2924
   83MOL    H2111665   4.013   5.132   7.129  0.9589  0.0014  3.8135
   83MOL    H2211666   3.889   5.270   6.994  1.6300 -2.7459  0.3502
   83MOL    C2311667   4.063   5.299   7.261  0.3981  0.1234  0.6320
   83MOL    C2411668   4.117   5.213   7.382 -0.6058  0.5628 -0.1716
   83MOL    O2511669   4.200   5.105   7.325 -0.3169  0.4804 -0.0001
   83MOL    H2611670   4.143   5.340   7.200 -0.3968  0.8304  0.0581
   83MOL    H2711671   4.004   5.380   7.303 -1.1542 -2.1919  3.1232
   83MOL    H2811672   4.030   5.169   7.430 -0.4579 -1.6176 -1.8122
   83MOL    H2911673   4.213   5.035   7.388 -1.3464 -0.0567 -0.3855
   83MOL    C3011674   4.197   5.303   7.480  1.0775  0.6491  0.1893
   83MOL    C3111675   4.214   5.232   0.103  0.5129 -0.0132 -0.0969
   83MOL    O3211676   4.308   5.124   0.114  0.0248 -0.8201  0.0928
   83MOL    H3311677   4.296   5.336   7.449  1.9287 -1.3431  0.6857
   83MOL    H3411678   4.135   5.391   7.498 -2.7469 -2.0994  0.9361
   83MOL    H3511679   4.117   5.193   0.135  1.1830 -2.2767 -0.7225
   83MOL    H3611680   4.271   5.038   0.097 -2.8006  0.1370  1.1844
   83MOL    C3711681   4.263   5.333   0.208  0.0522  0.0653  0.2282
   83MOL    C3811682   4.166   5.453   0.247  0.4648  0.4251 -0.0157
   83MOL    O3911683   4.049   5.395   0.298 -0.1238  0.1600  0.6243
   83MOL    H4011684   4.297   5.280   0.297  0.4729  1.1246  0.7035
   83MOL    H4111685   4.357   5.380   0.179  0.8781 -2.1870 -0.8828
   83MOL    H4211686   4.142   5.517   0.163 -2.5455  1.7245  1.7584
   83MOL    H4311687   4.080   5.346   0.373  1.5626  0.4702  0.1688
   83MOL    C4411688   4.223   5.549   0.360 -0.4526  0.1362  0.4025
   83MOL    C4511689   4.345   5.641   0.310 -0.0643 -0.4835 -0.1037
   83MOL    O4611690   4.345   5.775   0.355  0.3184 -0.1934  0.1752
   83MOL    H4711691   4.144   5.616   0.393 -1.6965  0.2996 -2.7751
   83MOL    H4811692   4.259   5.477   0.434  1.9972 -0.1398 -1.0133
   83MOL    H4911693   4.345   5.645   0.201 -0.7361 -2.7097 -0.2195
   83MOL    H5011694   4.346   5.791   0.448 -1.3096 -0.6246  0.2809
   83MOL    C5111695   4.489   5.605   0.355  0.8333  0.0730  0.1281
   83MOL    C5211696   4.588   5.569   0.240 -0.2183 -0.0688  0.9879
   83MOL    O5311697   4.615   5.690   0.175 -0.0205  0.0035 -0.0369
   83MOL    H5411698   4.537   5.666   0.431 -1.8036 -0.8930  2.6333
   83MOL    H5511699   4.474   5.507   0.401  0.5723  0.6964  1.3904
   83MOL    H5611700   4.534   5.501   0.174  0.0777 -1.8222  2.5045
   83MOL    H5711701   4.594   5.679   0.083 -2.4650 -1.5876  0.6630
   83MOL    C5811702   4.728   5.522   0.277 -0.0098  0.1067  0.8407
   83MOL    C5911703   4.745   5.387   0.345  0.3410 -0.1895 -0.4694
   83MOL    O6011704   4.699   5.395   0.481  0.2600 -0.0508  0.9175
   83MOL    H6111705   4.786   5.524   0.184 -1.1106  2.0185  0.1469
   83MOL    H6211706   4.777   5.599   0.336  1.3537  0.4301 -0.6733
   83MOL    H6311707   4.853   5.382   0.357  0.1610  0.2700  1.4012
   83MOL    H6411708   4.605   5.393   0.479  0.3136 -0.5657 -1.9198
   83MOL    C6511709   4.687   5.266   0.255 -0.0669 -0.8653 -0.0913
   83MOL    C6611710   4.763   5.139   0.302  0.4012 -1.0397 -0.1802
   83MOL    O6711711   4.665   5.045   0.335  0.1480 -0.3472  0.0945
   83MOL    H6811712   4.579   5.256   0.262  0.0062 -1.2185  0.4953
   83MOL    H6911713   4.703   5.282   0.148 -1.7125  0.1573 -0.2008
   83MOL    H7011714   4.829   5.141   0.388  0.0084 -0.3486  0.1080
   83MOL    H7111715   4.699   4.961   0.309  0.9105  0.1880 -0.6296
   83MOL    C7211716   4.835   5.074   0.186  0.1073 -0.3902 -0.0958
   83MOL    C7311717   4.905   4.940   0.208 -0.2989  0.5457  0.5242
   83MOL    O7411718   4.821   4.838   0.246 -0.3075  0.0358  0.6611
   83MOL    H7511719   4.762   5.057   0.107 -0.2491 -0.2493  0.2025
   83MOL    H7611720   4.917   5.137   0.151  0.0711 -0.2987 -0.0162
   83MOL    H7711721   4.972   4.956   0.292  0.8577 -1.4550 -0.0015
   83MOL    H7811722   4.868   4.781   0.306  1.1407 -0.6936 -1.1050
   83MOL    C7911723   4.991   4.900   0.084 -0.0115  0.1138  0.2502
   83MOL    C8011724   5.132   4.852   0.125 -0.3342  0.2312  0.3330
   83MOL    O8111725   5.122   4.716   0.164  0.7116  1.2590  0.2634
   83MOL    H8211726   4.949   4.819   0.024  1.6630 -1.6951  1.4540
   83MOL    H8311727   5.009   4.988   0.021  1.1086  0.6889  1.3545
   83MOL    H8411728   5.172   4.908   0.210  0.2485 -0.6621  0.6545
   83MOL    H8511729   5.095   4.664   0.090  0.7625 -1.2881  1.9773
   83MOL    C8611730   5.243   4.858   0.025 -0.2449  0.2527 -0.2668
   83MOL    C8711731   5.287   4.999   7.500  0.2823 -0.0337  0.2220
   83MOL    O8811732   5.328   5.066   0.097  0.0131  0.2073 -0.2704
   83MOL    H8911733   5.318   4.795   0.072  0.3086  0.7311 -0.5064
   83MOL    H9011734   5.212   4.806   7.453 -1.6129 -1.5966  1.2171
   83MOL    H9111735   5.205   5.053   7.452 -0.1431  0.1811  1.1866
   83MOL    H9211736   5.406   5.019   0.123 -0.3516  0.1798  0.8155
   83MOL    C9311737   5.398   4.994   7.393 -0.8677 -0.7526  0.7105
   83MOL    C9411738   5.484   5.120   7.371  0.0263  0.3640 -0.1730
   83MOL    O9511739   5.615   5.075   7.328  0.4516 -0.1339  0.4599
   83MOL    H9611740   5.470   4.919   7.425  1.0243  1.2732  1.3746
   83MOL    H9711741   5.362   4.954   7.299 -1.8093  0.2326  0.6396
   83MOL    H9811742   5.509   5.165   7.467 -1.1442 -0.3005  0.4369
   83MOL    H9911743   5.605   5.044   7.240 -2.1350  1.3806  0.1767
   83MOL   C10011744   5.443   5.230   7.260 -0.0571 -0.0356  0.7956
   83MOL   C10111745   5.309   5.296   7.288  0.3401 -0.7431  0.2298
   83MOL   O10211746   5.334   5.400   7.386 -0.2132  0.1337  0.0188
   83MOL   H10311747   5.515   5.311   7.250 -1.5920  1.1137 -1.2466
   83MOL   H10411748   5.425   5.179   7.166  1.0704  1.1759 -0.0957
   83MOL   H10511749   5.235   5.227   7.328  0.7803 -0.7445  1.0589
   83MOL   H10611750   5.382   5.364   7.459 -0.1102 -0.7616 -0.4769
   83MOL   C10711751   5.238   5.360   7.165  0.4773 -0.1503  1.1089
   83MOL   C10811752   5.181   5.258   7.064  0.0507 -0.6906  0.5249
   83MOL   O10911753   5.111   5.149   7.129 -0.0623 -0.0344  0.2920
   83MOL   H11011754   5.158   5.429   7.193  0.8736  0.6272  0.3663
   83MOL   H11111755   5.304   5.428   7.112  1.2949 -0.0897  2.2054
   83MOL   H11211756   5.265   5.214   7.011 -1.1817 -0.9653 -1.2551
   83MOL   H11311757   5.048   5.190   7.186 -0.1843  0.5599 -0.2710
   83MOL   C11411758   5.091   5.327   6.956  0.2563  0.0309 -0.4001
   83MOL   C11511759   4.942   5.347   6.985 -0.5507  0.4422 -0.5811
   83MOL   O11611760   4.911   5.442   7.089  0.7943 -0.5905  0.2201
   83MOL   H11711761   5.155   5.412   6.935  1.9911 -0.6764  1.8389
   83MOL   H11811762   5.108   5.279   6.860  1.1768  0.5805 -0.5091
   83MOL   H11911763   4.903   5.257   7.031  0.6695  0.2823  0.1607
   83MOL   H12011764   4.840   5.404   7.139 -0.3061 -1.3671 -1.8789
   83MOL   C12111765   4.876   5.385   6.854  0.2855 -0.2648  0.0275
   83MOL   C12211766   4.828   5.258   6.776 -0.0429  0.3504 -0.7206
   83MOL   O12311767   4.734   5.180   6.844 -0.1042 -0.1306 -0.1710
   83MOL   H12411768   4.782   5.429   6.887 -0.0267 -1.5237  0.8756
   83MOL   H12511769   4.927   5.460   6.794 -0.1282 -0.6465 -0.8169
   83MOL   H12611770   4.917   5.198   6.756  1.6026  3.1129 -1.8398
   83MOL   H12711771   4.656   5.233   6.844 -1.6420 -2.3061 -1.8617
   83MOL   C12811772   4.760   5.290   6.634  1.0510  0.6025  0.1698
   83MOL   C12911773   4.853   5.338   6.522 -0.8960  0.3861  0.4878
   83MOL   O13011774   4.949   5.234   6.504 -0.3034  0.3511  0.2406
   83MOL   H13111775   4.707   5.201   6.601  0.3309  1.3084 -0.6356
   83MOL   H13211776   4.680   5.364   6.640 -0.3250 -0.7762 -0.9077
   83MOL   H13311777   4.899   5.431   6.556  1.5690  0.0378 -1.7783
   83MOL   H13411778   5.029   5.257   6.547  0.6239  2.6685 -2.5345
   83MOL   C13511779   4.775   5.375   6.392 -0.1113 -0.2485  0.1627
   83MOL   C13611780   4.861   5.432   6.279  0.0054 -0.0312 -0.2044
   83MOL   O13711781   4.899   5.561   6.307  0.1753 -0.2393  0.1049
   83MOL   H13811782   4.725   5.284   6.359  0.5926 -0.6782  0.2765
   83MOL   H13911783   4.693   5.443   6.418 -0.2653 -0.5578  0.5072
   83MOL   H14011784   4.802   5.439   6.188 -0.6105  1.5092  0.3023
   83MOL   H14111785   4.962   5.556   6.378 -0.5928  1.1617  0.8994
   83MOL   H14211786   4.927   5.349   6.254  0.1345  0.4922 -1.6330
   84MOL     C111787   1.850   6.222   2.454 -0.0636  0.1793  0.2896
   84MOL     C211788   1.842   6.377   2.446 -0.1740  0.2393 -0.0885
   84MOL     O311789   1.785   6.428   2.560  0.0069 -0.2041 -0.3530
   84MOL     H411790   1.892   6.190   2.358 -1.7601 -2.1179  0.2579
   84MOL     H511791   1.759   6.165   2.470  0.2059 -0.0343  1.0561
   84MOL     H611792   1.770   6.382   2.364 -1.4141  0.0849  0.9904
   84MOL     H711793   1.846   6.422   2.632 -0.1266  0.8104 -0.1538
   84MOL     H811794   1.917   6.191   2.534  0.6837 -1.1508 -0.8179
   84MOL     C911795   1.969   6.455   2.412 -0.2132 -0.0747  0.2447
   84MOL    C1011796   2.044   6.406   2.284 -0.1907  0.9070  0.0393
   84MOL    O1111797   2.124   6.509   2.248 -0.2647 -0.1193  0.1442
   84MOL    H1211798   1.936   6.557   2.392  0.4650 -0.0790 -0.8941
   84MOL    H1311799   2.037   6.472   2.496  0.8613  0.7287 -0.7748
   84MOL    H1411800   1.968   6.387   2.209 -0.8337 -2.7817  1.5313
   84MOL    H1511801   2.066   6.573   2.209 -0.3308 -1.4082 -2.0007
   84MOL    C1611802   2.150   6.294   2.308  0.8279  0.4096  0.6127
   84MOL    C1711803   2.243   6.258   2.193  0.0066 -0.5267  0.4478
   84MOL    O1811804   2.307   6.138   2.222  0.2546  0.1312  0.6256
   84MOL    H1911805   2.217   6.321   2.389  0.8293  0.4548  0.5958
   84MOL    H2011806   2.108   6.205   2.355  2.2703  0.5635  2.2417
   84MOL    H2111807   2.319   6.336   2.199 -0.1893 -0.4310  1.7558
   84MOL    H2211808   2.396   6.160   2.245  0.2143  2.8260 -1.5511
   84MOL    C2311809   2.183   6.255   2.047 -0.2113 -0.5127 -0.3952
   84MOL    C2411810   2.286   6.241   1.928  0.3944 -0.3211  0.5396
   84MOL    O2511811   2.205   6.245   1.814  0.4546  0.6504  0.1031
   84MOL    H2611812   2.113   6.172   2.043  0.8368 -1.6918  3.4221
   84MOL    H2711813   2.121   6.345   2.040  0.3026 -0.1479 -0.3047
   84MOL    H2811814   2.342   6.151   1.951 -0.6569 -1.2153 -0.3624
   84MOL    H2911815   2.254   6.291   1.748 -1.4032  0.0239 -1.7774
   84MOL    C3011816   2.384   6.363   1.922  0.3549  0.0425 -0.2917
   84MOL    C3111817   2.493   6.360   1.819 -0.2406  0.3944 -0.5790
   84MOL    O3211818   2.432   6.360   1.697 -1.2886 -0.3050  1.1935
   84MOL    H3311819   2.322   6.447   1.891  0.3758  0.1788  0.0373
   84MOL    H3411820   2.427   6.378   2.021 -3.2102  0.6261  1.2863
   84MOL    H3511821   2.550   6.268   1.821 -1.6204 -0.4960 -1.2382
   84MOL    H3611822   2.504   6.347   1.637  0.8129  1.1053  3.3048
   84MOL    C3711823   2.598   6.475   1.825  0.3651  1.0619  0.4543
   84MOL    C3811824   2.716   6.467   1.931  0.0920  0.2603  1.0671
   84MOL    O3911825   2.792   6.358   1.885  0.1957 -0.3425  0.3476
   84MOL    H4011826   2.644   6.490   1.727 -1.6945  1.1166 -0.5282
   84MOL    H4111827   2.539   6.562   1.856 -0.3261  0.5560  0.5609
   84MOL    H4211828   2.677   6.430   2.026 -2.0706 -2.5497 -0.8505
   84MOL    H4311829   2.834   6.380   1.803  0.7552  1.2485  1.0495
   84MOL    C4411830   2.801   6.594   1.951  0.9499  0.9169 -0.2403
   84MOL    C4511831   2.726   6.724   1.995  0.4707  0.3500 -0.1340
   84MOL    O4611832   2.622   6.686   2.077  0.4187 -0.2957  0.6103
   84MOL    H4711833   2.888   6.570   2.013  0.1785  0.5243  0.7068
   84MOL    H4811834   2.829   6.600   1.846 -2.9250  0.5007 -1.3808
   84MOL    H4911835   2.685   6.782   1.912 -1.2283  0.4789  0.7566
   84MOL    H5011836   2.652   6.651   2.160  0.7326 -0.0497  0.5977
   84MOL    C5111837   2.801   6.832   2.083 -0.6168  0.3240  0.2238
   84MOL    C5211838   2.925   6.895   2.021  0.2350 -0.1383  0.0966
   84MOL    O5311839   2.878   6.975   1.912 -0.4214 -0.2052 -0.4799
   84MOL    H5411840   2.731   6.908   2.117  0.5969  2.6579 -2.3440
   84MOL    H5511841   2.836   6.780   2.172 -3.3732 -1.9751  0.0440
   84MOL    H5611842   2.985   6.811   1.987 -1.7429 -1.9260  0.9380
   84MOL    H5711843   2.947   7.037   1.893  0.3449 -0.6085  0.8697
   84MOL    C5811844   3.028   6.954   2.123  0.3046  0.0745 -0.1753
   84MOL    C5911845   2.983   7.070   2.212 -0.1670 -0.7555 -0.0648
   84MOL    O6011846   2.863   7.035   2.284  0.1090 -0.2048 -0.4811
   84MOL    H6111847   3.050   6.871   2.190 -0.2654 -1.8593 -2.3231
   84MOL    H6211848   3.123   6.982   2.078  1.2670 -0.4821  1.4466
   84MOL    H6311849   2.968   7.155   2.146 -0.7432 -0.6263  0.2265
   84MOL    H6411850   2.808   7.110   2.299  0.5566  0.3313 -1.4690
   84MOL    C6511851   3.090   7.133   2.304  1.0055 -0.5641  0.7741
   84MOL    C6611852   3.219   7.199   2.228 -0.3988  0.2967 -0.4784
   84MOL    O6711853   3.185   7.301   2.139 -0.2350 -0.4822 -0.1346
   84MOL    H6811854   3.034   7.203   2.365  1.3591 -0.7310  1.2907
   84MOL    H6911855   3.132   7.066   2.379 -0.9984 -2.2601  0.4408
   84MOL    H7011856   3.274   7.119   2.179  2.1686  0.8190  1.4479
   84MOL    H7111857   3.248   7.312   2.069  0.6557  1.6621  0.9673
   84MOL    C7211858   3.314   7.266   2.321 -0.1640  0.6430 -0.0176
   84MOL    C7311859   3.404   7.178   2.414 -0.4614  0.5710  0.5487
   84MOL    O7411860   3.535   7.159   2.359 -0.2145 -0.1099  0.3536
   84MOL    H7511861   3.382   7.329   2.264 -1.3537  0.4429 -1.6959
   84MOL    H7611862   3.253   7.341   2.372 -0.0069 -0.5863  2.0676
   84MOL    H7711863   3.365   7.077   2.422  0.4421 -0.0155 -1.9710
   84MOL    H7811864   3.544   7.065   2.358 -1.3500 -0.2327 -1.6981
   84MOL    C7911865   3.415   7.232   2.553 -0.5575 -0.3239  0.3011
   84MOL    C8011866   3.288   7.243   2.635  0.3202  0.4339  0.7508
   84MOL    O8111867   3.212   7.128   2.623  0.0659  0.4107 -0.0567
   84MOL    H8211868   3.499   7.194   2.611 -0.7635 -0.7134  0.3470
   84MOL    H8311869   3.453   7.333   2.537 -0.8632 -0.3822 -0.8795
   84MOL    H8411870   3.229   7.321   2.587 -0.6932 -0.3731  0.6574
   84MOL    H8511871   3.131   7.133   2.670  1.2361  4.3004  1.7445
   84MOL    C8611872   3.306   7.284   2.786 -0.9635 -0.3168 -0.6825
   84MOL    C8711873   3.368   7.427   2.797 -0.1862  0.0101  0.4548
   84MOL    O8811874   3.273   0.001   2.753 -0.0559 -0.2067  0.3042
   84MOL    H8911875   3.216   7.270   2.846 -2.0284  1.8842 -1.6997
   84MOL    H9011876   3.374   7.217   2.837  0.3705  1.5110 -0.0146
   84MOL    H9111877   3.455   7.438   2.733  0.3733  0.2369  1.2390
   84MOL    H9211878   3.190   7.513   2.797 -0.1991 -0.2005  0.0350
   84MOL    C9311879   3.412   7.463   2.940 -0.0903 -0.7086 -0.3250
   84MOL    C9411880   3.514   0.058   2.935  0.1453  0.7168  0.3048
   84MOL    O9511881   3.444   0.175   2.891 -0.0615  0.1408 -0.7610
   84MOL    H9611882   3.327   7.492   3.003  0.3982  1.4780 -0.6545
   84MOL    H9711883   3.454   7.379   2.995 -0.7994 -1.1233 -0.4073
   84MOL    H9811884   3.592   0.029   2.865  1.2224  1.4364  1.1932
   84MOL    H9911885   3.388   0.151   2.818 -3.5836  2.6353  0.9526
   84MOL   C10011886   3.576   0.091   3.075 -0.0441  0.4205 -0.0490
   84MOL   C10111887   3.707   0.174   3.065 -0.3137 -0.1779  0.7090
   84MOL   O10211888   3.735   0.246   3.187 -0.4027  0.3096  0.8419
   84MOL   H10311889   3.502   0.148   3.131 -0.7923  1.5769 -2.1237
   84MOL   H10411890   3.599   0.005   3.137 -0.4594  0.0336 -0.4225
   84MOL   H10511891   3.682   0.251   2.991 -0.0765 -0.1194  0.6874
   84MOL   H10611892   3.802   0.306   3.158 -1.5456  0.9779 -0.5117
   84MOL   C10711893   3.832   0.094   3.016 -0.4771  0.0448  0.1261
   84MOL   C10811894   3.929   0.176   2.927 -0.2143 -0.2858  0.8110
   84MOL   O10911895   4.002   0.277   2.999  0.4961  0.1665  0.3564
   84MOL   H11011896   3.863   0.041   3.106 -1.5767  0.3342  0.6902
   84MOL   H11111897   3.792   0.010   2.959 -1.0208 -1.7793  3.1043
   84MOL   H11211898   3.873   0.221   2.845  3.3422 -1.8886 -2.6707
   84MOL   H11311899   3.986   0.361   2.958  2.1383  0.8643  1.1167
   84MOL   C11411900   4.022   0.080   2.848  0.1877  0.1221 -0.3710
   84MOL   C11511901   4.059   0.120   2.706  0.4040 -0.2308  0.1892
   84MOL   O11611902   3.943   0.119   2.617  0.3673 -0.6121  0.8723
   84MOL   H11711903   4.097   0.046   2.919  0.7664  1.8614 -0.1239
   84MOL   H11811904   3.977   7.502   2.831 -2.0897  0.9175  0.8726
   84MOL   H11911905   4.130   0.040   2.684 -0.8770 -1.1906 -0.5498
   84MOL   H12011906   3.908   0.032   2.620 -1.4700  0.0648  0.1205
   84MOL   C12111907   4.136   0.260   2.701  0.5261 -0.9021  0.3583
   84MOL   C12211908   4.196   0.291   2.566 -0.3742 -0.3656 -0.2740
   84MOL   O12311909   4.228   0.435   2.574 -0.2670 -0.0053 -0.0127
   84MOL   H12411910   4.063   0.339   2.722  1.7438  0.8413 -1.7740
   84MOL   H12511911   4.217   0.269   2.773  1.2471 -0.3368 -0.5141
   84MOL   H12611912   4.130   0.276   2.481 -0.6143 -0.3844 -0.0865
   84MOL   H12711913   4.275   0.433   2.656  0.6582 -0.6590 -0.5474
   84MOL   C12811914   4.327   0.216   2.528 -0.4511 -0.3719 -0.5197
   84MOL   C12911915   4.384   0.250   2.389  0.6989  0.7890 -0.1253
   84MOL   O13011916   4.502   0.172   2.388 -0.0448  0.2895  0.3117
   84MOL   H13111917   4.402   0.232   2.605  0.8299  1.9550 -2.2257
   84MOL   H13211918   4.302   0.109   2.529  0.2302 -0.5400 -1.2583
   84MOL   H13311919   4.407   0.357   2.384 -0.7768  1.0713 -1.6189
   84MOL   H13411920   4.485   0.101   2.327 -1.7388 -2.6071  3.9916
   84MOL   C13511921   4.294   0.204   2.266 -0.4102  0.3700  0.2318
   84MOL   C13611922   4.348   0.232   2.125  0.3281 -0.2331 -0.2146
   84MOL   O13711923   4.273   0.215   2.004 -0.4506 -0.6716  0.0806
   84MOL   H13811924   4.279   0.096   2.267  0.0962  0.2756 -1.8529
   84MOL   H13911925   4.195   0.247   2.282 -1.4418 -2.0694  0.5396
   84MOL   H14011926   4.443   0.180   2.112  0.8908  1.0931 -1.6109
   84MOL   H14111927   4.334   0.241   1.937  0.8882 -1.6506  0.9123
   84MOL   H14211928   4.368   0.339   2.125 -0.5313 -0.0675  0.3205
   85MOL     C111929   0.288   1.753   5.420 -0.0275  0.1057  0.3106
   85MOL     C211930   0.387   1.856   5.475 -0.0208 -0.4754  0.5760
   85MOL     O311931   0.520   1.829   5.432  0.5939 -0.2980 -0.0277
   85MOL     H411932   0.195   1.753   5.478  1.1476 -2.1744  2.2568
   85MOL     H511933   0.329   1.652   5.421  0.6021  0.3403 -0.9256
   85MOL     H611934   0.392   1.847   5.584  2.6066  1.8637  0.7167
   85MOL     H711935   0.570   1.836   5.511 -0.5393 -1.1316  0.7702
   85MOL     H811936   0.275   1.767   5.313  0.8587 -1.1395  0.0291
   85MOL     C911937   0.360   1.993   5.419  0.0185 -0.2469 -0.6715
   85MOL    C1011938   0.243   2.068   5.483 -0.6182 -0.7111 -0.1947
   85MOL    O1111939   0.290   2.126   5.606  0.3620  0.2985 -0.0914
   85MOL    H1211940   0.452   2.051   5.429 -0.3209 -0.1864  2.6839
   85MOL    H1311941   0.342   1.973   5.313 -0.4057  2.2152 -1.1132
   85MOL    H1411942   0.158   2.006   5.512 -0.7984 -0.4413 -0.1442
   85MOL    H1511943   0.299   2.061   5.674 -1.3384 -0.7058 -0.7750
   85MOL    C1611944   0.202   2.189   5.387 -0.0886  0.0125  0.1207
   85MOL    C1711945   0.129   2.144   5.260  0.3503 -0.9070 -0.1283
   85MOL    O1811946   0.001   2.116   5.310 -0.0655  0.2228 -0.0998
   85MOL    H1911947   0.146   2.259   5.448  0.6390 -0.9464  1.9324
   85MOL    H2011948   0.287   2.254   5.368 -0.0083 -0.2678 -0.4908
   85MOL    H2111949   0.177   2.064   5.204  0.8710  0.7851 -2.1369
   85MOL    H2211950   7.477   2.072   5.238 -0.9848  2.2479 -0.8145
   85MOL    C2311951   0.101   2.257   5.154  0.3316 -0.3872 -0.1171
   85MOL    C2411952   0.232   2.280   5.068  0.4857 -0.1488 -0.2415
   85MOL    O2511953   0.224   2.219   4.938 -0.1432  0.3340 -0.7785
   85MOL    H2611954   0.028   2.229   5.078 -0.4624 -1.4064  0.9959
   85MOL    H2711955   0.056   2.346   5.196  1.2092  0.3027 -0.6177
   85MOL    H2811956   0.317   2.254   5.132  0.6023 -0.2185 -0.4265
   85MOL    H2911957   0.162   2.259   4.879 -0.8809 -1.9711 -1.5987
   85MOL    C3011958   0.248   2.435   5.044 -0.6421 -0.1374  0.0096
   85MOL    C3111959   0.303   2.517   5.159  0.0499 -0.0483  0.4976
   85MOL    O3211960   0.442   2.499   5.166  0.0404 -0.3156  0.7023
   85MOL    H3311961   0.306   2.447   4.952 -2.1670  0.7364 -0.8727
   85MOL    H3411962   0.156   2.480   5.004 -0.0087  0.5077 -0.7411
   85MOL    H3511963   0.263   2.482   5.254 -1.1533  1.3772  0.5424
   85MOL    H3611964   0.479   2.554   5.099  0.7971 -0.4463  1.0060
   85MOL    C3711965   0.290   2.669   5.141  0.2088  0.2084 -0.7626
   85MOL    C3811966   0.156   2.732   5.187  0.5318  0.4285  0.5914
   85MOL    O3911967   0.135   2.710   5.328 -0.2213  0.1150 -0.3789
   85MOL    H4011968   0.367   2.714   5.203  0.4704  0.2435 -1.1143
   85MOL    H4111969   0.325   2.700   5.043 -0.2636  2.0703 -0.3536
   85MOL    H4211970   0.073   2.694   5.129  0.3142 -0.5502  1.5288
   85MOL    H4311971   0.062   2.766   5.353 -0.3836  0.8473 -2.4268
   85MOL    C4411972   0.149   2.885   5.180 -0.1426 -0.2912  0.3564
   85MOL    C4511973   0.128   2.933   5.033 -0.2093 -0.2089 -0.3158
   85MOL    O4611974   0.004   2.874   4.991  0.6805 -0.3654  0.3894
   85MOL    H4711975   0.060   2.917   5.235  0.2543 -0.9256  1.3659
   85MOL    H4811976   0.236   2.934   5.224  1.1083 -0.1679 -2.1557
   85MOL    H4911977   0.211   2.911   4.966 -1.2484  0.6674 -1.9356
   85MOL    H5011978   7.469   2.943   4.954  1.4379 -0.2809 -0.5837
   85MOL    C5111979   0.100   3.081   5.027 -0.2257 -0.4834 -0.5015
   85MOL    C5211980   0.110   3.163   4.889 -0.5044  0.4856  0.3038
   85MOL    O5311981   0.076   3.298   4.921 -0.1257 -0.0868 -0.6147
   85MOL    H5411982   0.006   3.109   5.073  1.8221  0.2968  3.5209
   85MOL    H5511983   0.171   3.134   5.091 -2.7993  0.8959  1.2999
   85MOL    H5611984   0.033   3.121   4.825 -0.2656 -2.2434  1.7641
   85MOL    H5711985   0.022   3.322   4.847 -0.1375  0.3074 -0.4757
   85MOL    C5811986   0.243   3.151   4.817 -0.7192 -0.4931 -0.0416
   85MOL    C5911987   0.258   3.232   4.685 -0.3049 -0.1817  0.6326
   85MOL    O6011988   0.397   3.219   4.651  0.3477 -0.0171 -0.1743
   85MOL    H6111989   0.302   3.185   4.902 -1.7501  0.8915  0.1452
   85MOL    H6211990   0.262   3.046   4.795  2.6835  0.2737 -1.0533
   85MOL    H6311991   0.230   3.335   4.706  0.7900  0.2283  0.0860
   85MOL    H6411992   0.454   3.274   4.703 -0.1537  1.3095 -0.9993
   85MOL    C6511993   0.168   3.173   4.572  0.3269  0.1464  0.5871
   85MOL    C6611994   0.061   3.272   4.523 -0.1171  0.3396 -0.4056
   85MOL    O6711995   7.494   3.310   4.631 -0.0682  0.1505 -0.3235
   85MOL    H6811996   0.218   3.128   4.487 -0.1482 -0.9716  0.8828
   85MOL    H6911997   0.117   3.089   4.621  0.3939  0.8600  1.9041
   85MOL    H7011998   7.511   3.216   4.461 -1.5677  1.3384  0.3019
   85MOL    H7111999   7.433   3.371   4.592 -1.5613 -0.8033  0.4720
   85MOL    C7212000   0.120   3.400   4.454  0.0325  0.1876 -0.4650
   85MOL    C7312001   0.168   3.369   4.310 -0.8377  0.2647 -0.3458
   85MOL    O7412002   0.063   3.316   4.235 -0.4700 -0.2461  0.3204
   85MOL    H7512003   0.033   3.464   4.438 -1.0132 -1.1703 -0.2996
   85MOL    H7612004   0.194   3.462   4.505  0.7899 -0.2780 -0.9840
   85MOL    H7712005   0.244   3.291   4.314 -0.8396  0.3696  2.4180
   85MOL    H7812006   0.093   3.246   4.179 -2.3981 -2.9410  2.5425
   85MOL    C7912007   0.228   3.494   4.244 -0.2577 -0.3766  0.1719
   85MOL    C8012008   0.356   3.476   4.169  0.4980  0.1101 -0.5305
   85MOL    O8112009   0.373   3.585   4.082 -0.1196 -0.1242 -0.0455
   85MOL    H8212010   0.161   3.537   4.170  1.0161 -0.8856 -1.3038
   85MOL    H8312011   0.242   3.579   4.312  1.5407 -0.4914 -0.0436
   85MOL    H8412012   0.347   3.388   4.105  2.0852 -0.6696  0.2901
   85MOL    H8512013   0.298   3.581   4.024 -1.3787 -2.6524  1.6575
   85MOL    C8612014   0.479   3.460   4.271  0.0570  0.3142  0.1957
   85MOL    C8712015   0.619   3.465   4.212 -0.3698 -0.3533 -0.3486
   85MOL    O8812016   0.672   3.597   4.218  0.1961  0.4710 -0.1589
   85MOL    H8912017   0.467   3.532   4.352  1.5804  1.6845 -0.7599
   85MOL    H9012018   0.471   3.365   4.323  2.3544  0.1671  0.2970
   85MOL    H9112019   0.611   3.446   4.105  1.2641  0.8346 -0.7028
   85MOL    H9212020   0.742   3.607   4.156 -1.4315  0.6931 -1.9906
   85MOL    C9312021   0.718   3.369   4.278  0.2365 -0.6842 -0.0740
   85MOL    C9412022   0.838   3.336   4.189  0.0440 -0.0232 -0.0332
   85MOL    O9512023   0.922   3.240   4.261 -0.3268 -0.4841 -0.1128
   85MOL    H9612024   0.748   3.398   4.379 -0.8909 -2.6634  0.8567
   85MOL    H9712025   0.675   3.273   4.305 -1.0147  0.1259  0.8663
   85MOL    H9812026   0.905   3.418   4.167  0.4882 -0.5456 -0.6576
   85MOL    H9912027   1.002   3.220   4.214  0.3097  1.1296  0.2155
   85MOL   C10012028   0.800   3.284   4.046 -0.2887  0.5644 -0.1867
   85MOL   C10112029   0.897   3.194   3.971 -0.0243 -0.4078 -0.0017
   85MOL   O10212030   0.839   3.147   3.847  0.1602 -0.0740 -0.4502
   85MOL   H10312031   0.701   3.238   4.055 -0.1578  0.6926  2.2298
   85MOL   H10412032   0.773   3.364   3.977  2.2529 -0.0525 -1.9422
   85MOL   H10512033   0.925   3.114   4.039  0.4807  0.6627  1.0772
   85MOL   H10612034   0.777   3.214   3.824  1.8008  1.8740  0.6140
   85MOL   C10712035   1.030   3.264   3.928 -0.7443  0.3823  0.7046
   85MOL   C10812036   1.159   3.212   3.997  0.3493 -0.0574  0.2664
   85MOL   O10912037   1.158   3.196   4.136 -0.0588  0.0480 -0.1449
   85MOL   H11012038   1.059   3.258   3.824 -0.0345  0.0222  0.9212
   85MOL   H11112039   1.020   3.373   3.930 -1.8706  0.2950 -0.2123
   85MOL   H11212040   1.243   3.279   3.976  0.1506 -0.1064 -0.6894
   85MOL   H11312041   1.232   3.242   4.172 -0.1448 -1.5915  2.2229
   85MOL   C11412042   1.211   3.084   3.929 -0.5850  0.5347  0.2277
   85MOL   C11512043   1.330   3.007   3.996  0.0858  0.3446  0.0116
   85MOL   O11612044   1.336   2.888   3.941 -0.5365  0.2154  0.6770
   85MOL   H11712045   1.134   3.008   3.912  0.3116 -0.4225  0.4150
   85MOL   H11812046   1.214   3.098   3.821  0.0031  0.4818  0.2394
   85MOL   H11912047   1.296   2.986   4.098 -2.1527 -2.3240 -1.2156
   85MOL   H12012048   1.278   2.821   3.973 -0.0851  0.1179  1.2825
   85MOL   C12112049   1.478   3.061   3.992  0.7397  0.7462  0.5613
   85MOL   C12212050   1.595   2.961   3.999  0.2014  0.2884 -0.0317
   85MOL   O12312051   1.717   3.021   3.963 -0.4212 -0.0499 -0.9547
   85MOL   H12412052   1.485   3.114   3.897 -0.4215  2.1376  1.2302
   85MOL   H12512053   1.489   3.139   4.066  0.4482  0.5058  0.8589
   85MOL   H12612054   1.583   2.884   3.923 -2.2322  1.1558 -0.5395
   85MOL   H12712055   1.755   2.965   3.897 -2.9979 -0.4516 -2.1542
   85MOL   C12812056   1.609   2.886   4.140  1.0883 -0.8736 -0.0946
   85MOL   C12912057   1.719   2.781   4.146 -0.8979  0.2899 -0.8108
   85MOL   O13012058   1.721   2.718   4.270 -0.0003  0.8682 -0.0983
   85MOL   H13112059   1.627   2.954   4.223  0.5879  0.3741 -0.9887
   85MOL   H13212060   1.513   2.838   4.159 -0.1588  1.4575 -0.2786
   85MOL   H13312061   1.815   2.832   4.140 -0.7467 -0.1598 -2.5121
   85MOL   H13412062   1.799   2.665   4.280 -0.0637  1.1151  1.8406
   85MOL   C13512063   1.716   2.680   4.028 -0.1284 -0.7817 -0.1431
   85MOL   C13612064   1.588   2.608   3.997  0.1450 -0.3146  0.2393
   85MOL   O13712065   1.591   2.550   3.865  0.4383 -0.2138 -0.4438
   85MOL   H13812066   1.741   2.730   3.934 -2.5172  1.5933  0.4269
   85MOL   H13912067   1.805   2.616   4.025 -1.4804 -2.7087 -0.1985
   85MOL   H14012068   1.501   2.670   4.019  1.5391  2.5231 -1.9253
   85MOL   H14112069   1.607   2.457   3.867 -1.0228 -0.4768  0.6311
   85MOL   H14212070   1.585   2.530   4.074  0.0997 -0.4371  0.1129
   86MOL     C112071   4.708   5.030   5.455 -0.3607  0.1557 -0.4730
   86MOL     C212072   4.629   4.954   5.565 -0.1918  0.7132  0.2760
   86MOL     O312073   4.490   4.978   5.541  0.0418 -0.1067  0.4542
   86MOL     H412074   4.690   4.976   5.362  2.9925  0.2093 -1.1944
   86MOL     H512075   4.814   5.020   5.478 -0.5093 -1.3409 -0.3737
   86MOL     H612076   4.652   4.998   5.662  1.0907 -0.4747  0.5214
   86MOL     H712077   4.449   4.950   5.621  1.1775  1.6453  1.6954
   86MOL     H812078   4.677   5.134   5.450  1.7329  0.7288 -2.0755
   86MOL     C912079   4.669   4.809   5.568  0.2565 -0.2005  0.6045
   86MOL    C1012080   4.637   4.726   5.690 -0.0932  0.3885  0.0411
   86MOL    O1112081   4.523   4.646   5.658  0.0706 -0.0071  0.0378
   86MOL    H1212082   4.631   4.770   5.474 -1.4783 -0.6914  1.5046
   86MOL    H1312083   4.776   4.797   5.547 -0.1539 -2.1539 -0.4724
   86MOL    H1412084   4.615   4.796   5.770 -1.4466 -0.2671  0.2505
   86MOL    H1512085   4.453   4.709   5.652  0.2912  0.1114 -1.3933
   86MOL    C1612086   4.748   4.631   5.732 -0.2318 -0.7352 -0.0739
   86MOL    C1712087   4.873   4.698   5.797  0.2633  0.4593 -0.0542
   86MOL    O1812088   4.848   4.710   5.937  0.3459  0.2918  0.1643
   86MOL    H1912089   4.715   4.550   5.796  0.0677 -1.6203 -1.0253
   86MOL    H2012090   4.787   4.587   5.640 -1.8009 -2.1034 -0.0931
   86MOL    H2112091   4.892   4.797   5.757  0.4448  0.4481  0.0010
   86MOL    H2212092   4.891   4.647   5.992  0.1629 -0.8772 -1.0172
   86MOL    C2312093   4.999   4.622   5.792  0.1335  0.2116  0.6610
   86MOL    C2412094   5.058   4.585   5.654  0.2107 -0.2358 -0.3699
   86MOL    O2512095   5.060   4.711   5.589 -0.4080 -0.3459  0.1997
   86MOL    H2612096   5.076   4.680   5.844  1.6935  0.4817 -1.9046
   86MOL    H2712097   4.985   4.532   5.853  3.2823 -1.3144 -0.7643
   86MOL    H2812098   4.979   4.528   5.605 -0.6277  0.9080 -0.3581
   86MOL    H2912099   5.113   4.767   5.645  0.2927 -0.2258 -0.5751
   86MOL    C3012100   5.192   4.516   5.651 -0.1139  0.8464 -0.4457
   86MOL    C3112101   5.214   4.435   5.524 -0.2492  0.7380  0.5465
   86MOL    O3212102   5.350   4.407   5.519 -0.4194 -0.2578  0.1877
   86MOL    H3312103   5.270   4.591   5.669  0.0276  1.0341 -1.8244
   86MOL    H3412104   5.196   4.454   5.741  0.1007  0.3826 -0.7755
   86MOL    H3512105   5.194   4.504   5.442  0.0325  2.1771  1.6649
   86MOL    H3612106   5.391   4.492   5.511 -0.8833  0.1611  1.9511
   86MOL    C3712107   5.121   4.307   5.523  0.0254 -0.0876 -0.3266
   86MOL    C3812108   5.153   4.224   5.394 -0.4999  0.0303  0.5484
   86MOL    O3912109   5.089   4.097   5.408 -0.7612  0.3399  0.0644
   86MOL    H4012110   5.129   4.246   5.613 -0.7411  1.0105  0.4943
   86MOL    H4112111   5.017   4.342   5.523  0.1514  0.3006  0.4184
   86MOL    H4212112   5.259   4.201   5.389 -1.1375 -3.2352  0.9963
   86MOL    H4312113   5.136   4.057   5.479  2.3577  0.9928 -1.4879
   86MOL    C4412114   5.118   4.292   5.262  0.2681 -0.5991  0.2048
   86MOL    C4512115   5.168   4.213   5.140  1.1354  0.2260  0.1098
   86MOL    O4612116   5.076   4.231   5.040 -0.2166 -0.1697  0.0266
   86MOL    H4712117   5.009   4.288   5.263  0.2144  0.8165  1.6823
   86MOL    H4812118   5.151   4.395   5.255 -0.1579 -0.5134 -0.5942
   86MOL    H4912119   5.153   4.107   5.159 -0.0794  0.6719  1.6772
   86MOL    H5012120   5.018   4.157   5.046 -2.1106  1.0926 -1.8097
   86MOL    C5112121   5.315   4.224   5.090  0.0181  0.5372  0.0200
   86MOL    C5212122   5.360   4.099   5.008 -0.4409 -0.7983 -0.1118
   86MOL    O5312123   5.483   4.141   4.948 -0.0581 -0.0106 -0.3008
   86MOL    H5412124   5.330   4.311   5.026 -2.1242  0.9538  0.0766
   86MOL    H5512125   5.385   4.223   5.173 -1.7179 -2.5353  1.5160
   86MOL    H5612126   5.288   4.083   4.928  1.5560  1.4979 -2.4447
   86MOL    H5712127   5.505   4.096   4.868 -0.3492  2.5665 -1.8843
   86MOL    C5812128   5.384   3.978   5.097 -0.7583 -0.2582  0.0981
   86MOL    C5912129   5.389   3.833   5.032 -0.7342 -0.2397 -0.0258
   86MOL    O6012130   5.459   3.753   5.125 -0.2973  0.2058  0.4623
   86MOL    H6112131   5.471   4.001   5.158 -0.1276 -1.1301 -0.4601
   86MOL    H6212132   5.315   3.952   5.177  0.4195 -0.7015  0.9773
   86MOL    H6312133   5.457   3.826   4.947 -1.3610  0.1143 -0.5568
   86MOL    H6412134   5.461   3.665   5.090 -1.3078  0.9220 -1.4486
   86MOL    C6512135   5.246   3.778   5.006  0.2580 -0.7588 -1.2478
   86MOL    C6612136   5.237   3.669   4.895 -0.4965 -0.0579 -0.6420
   86MOL    O6712137   5.107   3.605   4.890  0.1569  0.6215 -0.4517
   86MOL    H6812138   5.216   3.734   5.101  2.5790  0.2343  0.0134
   86MOL    H6912139   5.173   3.855   4.982 -0.7928 -1.3479  0.0324
   86MOL    H7012140   5.309   3.589   4.911  1.6609  1.4965 -2.2950
   86MOL    H7112141   5.088   3.567   4.974 -0.0591  2.3762  0.3311
   86MOL    C7212142   5.271   3.730   4.752  0.1110  0.5231 -0.9201
   86MOL    C7312143   5.256   3.629   4.640 -0.1407  0.3259 -0.1303
   86MOL    O7412144   5.292   3.689   4.520 -0.4155 -0.0056  0.4991
   86MOL    H7512145   5.196   3.808   4.739  0.3283  0.8015 -0.5161
   86MOL    H7612146   5.369   3.777   4.747  0.6491 -0.3649  1.0305
   86MOL    H7712147   5.151   3.599   4.632 -0.5094  1.3630  0.7373
   86MOL    H7812148   5.241   3.768   4.517  1.1970  1.0125 -1.1636
   86MOL    C7912149   5.339   3.497   4.649 -0.8882 -0.2657 -1.1463
   86MOL    C8012150   5.324   3.393   4.527  0.2225  0.3847  0.3734
   86MOL    O8112151   5.402   3.290   4.564 -0.1381 -1.0370 -0.0284
   86MOL    H8212152   5.443   3.521   4.670 -0.8326 -1.5645  0.2103
   86MOL    H8312153   5.310   3.441   4.739  0.3636  0.5181 -0.2385
   86MOL    H8412154   5.359   3.436   4.433 -2.3371  0.0968 -0.7612
   86MOL    H8512155   5.379   3.210   4.519 -3.4670 -0.4288  0.4949
   86MOL    C8612156   5.178   3.344   4.510 -0.2878 -0.2211 -0.5876
   86MOL    C8712157   5.143   3.285   4.365  0.0527  0.8854 -0.5191
   86MOL    O8812158   5.015   3.226   4.375 -0.1277  0.6543 -0.3688
   86MOL    H8912159   5.154   3.268   4.583  1.8196  0.7905  1.1937
   86MOL    H9012160   5.101   3.418   4.532  1.3244  1.2660  0.2038
   86MOL    H9112161   5.215   3.215   4.324  0.5991  0.5863  0.9251
   86MOL    H9212162   4.970   3.234   4.292 -4.7142 -2.9816  1.5522
   86MOL    C9312163   5.122   3.403   4.268 -0.0121  0.4559 -0.4614
   86MOL    C9412164   5.113   3.381   4.117 -0.0951  0.0243  0.2913
   86MOL    O9512165   4.980   3.334   4.101 -0.0552 -0.0442 -0.1217
   86MOL    H9612166   5.052   3.480   4.297 -0.1261  0.2142 -0.0958
   86MOL    H9712167   5.208   3.468   4.286  0.0709  0.1692  0.2161
   86MOL    H9812168   5.190   3.308   4.092 -0.3084 -0.8956  2.1944
   86MOL    H9912169   4.971   3.301   4.013  1.6201 -3.6799  0.9949
   86MOL   C10012170   5.153   3.504   4.040 -0.0281 -0.1765 -0.4995
   86MOL   C10112171   5.302   3.514   4.009 -0.6792 -0.3136 -0.1655
   86MOL   O10212172   5.315   3.455   3.884 -0.1536  0.1294  0.5816
   86MOL   H10312173   5.096   3.502   3.947 -1.2005 -1.3447  0.2335
   86MOL   H10412174   5.110   3.587   4.096 -0.9352 -0.0631 -1.3557
   86MOL   H10512175   5.367   3.453   4.072 -0.1374 -1.8008 -2.1346
   86MOL   H10612176   5.255   3.382   3.880 -0.6088  0.5223  0.1745
   86MOL   C10712177   5.347   3.657   4.017 -0.0412  0.0155 -0.6430
   86MOL   C10812178   5.340   3.711   4.161  0.2277  0.4447 -0.2859
   86MOL   O10912179   5.406   3.628   4.263 -0.5140 -0.3011 -0.1834
   86MOL   H11012180   5.449   3.659   3.979 -0.2218  1.4685 -1.0902
   86MOL   H11112181   5.299   3.725   3.946 -0.1918  0.3197 -0.2504
   86MOL   H11212182   5.241   3.737   4.198  0.7946 -0.6300  2.0172
   86MOL   H11312183   5.390   3.670   4.346  0.9910  0.3886 -0.2264
   86MOL   C11412184   5.405   3.856   4.159 -0.0060 -0.0778  0.7769
   86MOL   C11512185   5.335   3.967   4.069 -0.7477  0.1115 -0.7643
   86MOL   O11612186   5.207   3.987   4.128 -0.1473 -0.5789 -0.4551
   86MOL   H11712187   5.400   3.885   4.263  3.9471  2.5392  0.3319
   86MOL   H11812188   5.512   3.858   4.139 -0.3820  2.6628 -1.2554
   86MOL   H11912189   5.339   3.938   3.964  0.5832  2.0570 -1.2880
   86MOL   H12012190   5.175   4.072   4.103  1.1079 -0.0906 -0.4317
   86MOL   C12112191   5.409   4.101   4.081 -0.1445 -0.1031 -0.4469
   86MOL   C12212192   5.348   4.224   4.004 -0.0589 -0.5308 -0.1664
   86MOL   O12312193   5.225   4.254   4.056  0.0656  0.1708  0.2893
   86MOL   H12412194   5.430   4.129   4.184 -0.3148  0.0165 -0.4436
   86MOL   H12512195   5.511   4.093   4.043  0.0274  1.7359 -0.4264
   86MOL   H12612196   5.338   4.192   3.900  0.0366 -0.4570 -0.1981
   86MOL   H12712197   5.162   4.241   3.988  1.5194  0.1699 -1.0893
   86MOL   C12812198   5.443   4.347   4.022  0.2302  0.0177  0.4852
   86MOL   C12912199   5.568   4.345   3.932 -0.5003  0.3419 -1.0349
   86MOL   O13012200   5.528   4.381   3.805 -0.6626 -0.6748 -0.2916
   86MOL   H13112201   5.389   4.439   3.999 -1.3812 -0.9402  0.3654
   86MOL   H13212202   5.466   4.357   4.128 -0.4162  0.8625  0.5456
   86MOL   H13312203   5.616   4.247   3.932  0.2788  0.7146 -2.0138
   86MOL   H13412204   5.588   4.442   3.766  0.4871 -1.3560  0.3919
   86MOL   C13512205   5.674   4.446   3.987  0.6021 -0.0088  0.2271
   86MOL   C13612206   5.746   4.393   4.112 -0.0772 -0.3623 -0.1729
   86MOL   O13712207   5.855   4.478   4.138  0.4028 -0.4285  0.0718
   86MOL   H13812208   5.754   4.470   3.917  0.7715 -0.1387  0.3753
   86MOL   H13912209   5.616   4.534   4.013  0.7560 -0.5237  2.3970
   86MOL   H14012210   5.787   4.294   4.095 -0.4280 -0.3156 -1.2983
   86MOL   H14112211   5.885   4.471   4.228  1.4458  0.4492 -0.1884
   86MOL   H14212212   5.675   4.383   4.194 -0.7297 -1.8457 -0.9113
   87MOL     C112213   3.412   0.744   2.580 -0.0604 -0.4660 -0.1577
   87MOL     C212214   3.549   0.748   2.633  0.9638 -0.6210 -0.2733
   87MOL     O312215   3.616   0.852   2.560  0.4164  0.4012  0.4412
   87MOL     H412216   3.369   0.647   2.605 -1.2936  0.4370  1.3303
   87MOL     H512217   3.394   0.768   2.475  0.5124  1.3590  0.1479
   87MOL     H612218   3.594   0.651   2.613  0.0089 -1.6522  2.2930
   87MOL     H712219   3.643   0.802   2.484 -1.7596 -0.9528  0.5237
   87MOL     H812220   3.354   0.820   2.632  3.1011  3.8575 -2.6787
   87MOL     C912221   3.562   0.777   2.778 -0.0918 -0.3860  0.1494
   87MOL    C1012222   3.704   0.789   2.838  0.2086 -0.8313  0.2923
   87MOL    O1112223   3.700   0.824   2.975 -0.1395  0.7718 -0.6265
   87MOL    H1212224   3.508   0.871   2.789 -1.5440 -1.2142  0.0890
   87MOL    H1312225   3.504   0.705   2.835 -2.0283  0.1216 -1.1241
   87MOL    H1412226   3.755   0.868   2.783  0.4181 -1.5813 -0.6114
   87MOL    H1512227   3.674   0.914   2.989  0.0302  0.6110  0.8270
   87MOL    C1612228   3.789   0.663   2.832  0.8510 -0.3909  0.5756
   87MOL    C1712229   3.932   0.663   2.885 -0.1009 -0.2234  0.1998
   87MOL    O1812230   3.947   0.534   2.946 -0.2966  0.1087 -0.2268
   87MOL    H1912231   3.731   0.584   2.880  0.6972 -2.1238 -2.3372
   87MOL    H2012232   3.786   0.622   2.731 -1.0339  1.8193 -0.3126
   87MOL    H2112233   3.942   0.741   2.959 -0.6475  1.5600 -1.5613
   87MOL    H2212234   3.954   0.545   3.039 -1.2202 -2.3796  0.1776
   87MOL    C2312235   4.042   0.686   2.770 -0.7655  0.1011 -0.1563
   87MOL    C2412236   4.058   0.837   2.722 -0.3943 -0.4684 -0.2812
   87MOL    O2512237   4.120   0.899   2.833  0.2922 -0.5016  0.4014
   87MOL    H2612238   4.141   0.649   2.797 -0.3156 -0.3821 -2.3779
   87MOL    H2712239   4.014   0.623   2.686  2.2067 -0.9405 -0.4209
   87MOL    H2812240   3.961   0.882   2.701 -0.4782 -0.5495 -0.0745
   87MOL    H2912241   4.108   0.991   2.815  0.8550 -0.9326 -2.5456
   87MOL    C3012242   4.153   0.853   2.599 -0.7854 -0.0445  0.3602
   87MOL    C3112243   4.088   0.820   2.465  0.7550 -0.3704 -0.3608
   87MOL    O3212244   3.987   0.919   2.444  0.3881  0.4955 -0.6655
   87MOL    H3312245   4.179   0.959   2.604 -0.6405 -0.1841  2.8109
   87MOL    H3412246   4.248   0.802   2.610 -1.2405 -1.2576 -1.1319
   87MOL    H3512247   4.032   0.729   2.488 -0.0177  0.0318 -0.6102
   87MOL    H3612248   3.906   0.879   2.414  1.6099 -2.7462  0.1647
   87MOL    C3712249   4.195   0.806   2.349  0.3814  0.0125  0.1183
   87MOL    C3812250   4.267   0.665   2.336 -0.4806  0.2968 -0.7688
   87MOL    O3912251   4.167   0.564   2.340 -0.0494  0.3878 -0.2235
   87MOL    H4012252   4.138   0.819   2.257 -0.4095 -0.2034  0.5759
   87MOL    H4112253   4.270   0.884   2.362  1.0452 -0.3887 -1.1887
   87MOL    H4212254   4.330   0.648   2.423  0.0886 -0.6682 -1.3555
   87MOL    H4312255   4.179   0.521   2.423 -0.8772  0.7848  0.1166
   87MOL    C4412256   4.338   0.659   2.205  0.7195 -0.4961  0.1459
   87MOL    C4512257   4.479   0.714   2.197  0.0913 -0.1008  0.0902
   87MOL    O4612258   4.567   0.619   2.249  0.1849 -0.2652 -0.6034
   87MOL    H4712259   4.334   0.558   2.164  1.8900 -0.1791 -0.7959
   87MOL    H4812260   4.279   0.708   2.129 -0.1044 -0.7376  0.6173
   87MOL    H4912261   4.484   0.801   2.262 -1.1403  0.7760 -0.9755
   87MOL    H5012262   4.630   0.596   2.182  2.2506  1.7362  0.6089
   87MOL    C5112263   4.521   0.759   2.060 -0.6388  0.3026  0.4091
   87MOL    C5212264   4.436   0.871   1.989  0.0957  0.0833  0.0574
   87MOL    O5312265   4.389   0.968   2.081  0.1302 -0.1409  0.5817
   87MOL    H5412266   4.623   0.795   2.074 -0.6404 -0.0045  1.2356
   87MOL    H5512267   4.541   0.675   1.995  1.0173  0.6485  0.4530
   87MOL    H5612268   4.350   0.821   1.943  0.6002 -0.5365 -0.2228
   87MOL    H5712269   4.394   1.047   2.030 -0.0558  1.1465  2.4797
   87MOL    C5812270   4.512   0.919   1.867 -0.2915 -1.1717 -0.5842
   87MOL    C5912271   4.452   1.049   1.805 -0.5565  0.7202 -0.3609
   87MOL    O6012272   4.462   1.154   1.900 -0.1808  0.0420 -0.6938
   87MOL    H6112273   4.615   0.935   1.902 -0.6052 -0.0505 -0.1425
   87MOL    H6212274   4.526   0.836   1.798 -2.9466 -1.2704 -1.0343
   87MOL    H6312275   4.348   1.037   1.773 -0.5127  0.7393 -0.5133
   87MOL    H6412276   4.551   1.159   1.929 -0.3711  0.0670 -0.1185
   87MOL    C6512277   4.525   1.100   1.679 -0.3339  0.2195  0.1222
   87MOL    C6612278   4.458   1.228   1.618 -0.0863  1.0938  1.1734
   87MOL    O6712279   4.569   1.302   1.561 -0.4314  0.4715 -0.3751
   87MOL    H6812280   4.629   1.114   1.706 -0.5337  1.9022  0.0866
   87MOL    H6912281   4.525   1.022   1.603  2.2284 -1.6468  1.9606
   87MOL    H7012282   4.412   1.290   1.696 -2.0630  1.3612 -0.1765
   87MOL    H7112283   4.617   1.248   1.499  0.5248  0.6895  0.1597
   87MOL    C7212284   4.355   1.200   1.507  0.1476 -0.3260  0.1641
   87MOL    C7312285   4.223   1.139   1.562 -0.8040  0.8485 -0.1973
   87MOL    O7412286   4.162   1.218   1.664  0.2923  0.8068  0.6761
   87MOL    H7512287   4.342   1.300   1.466  0.5198  0.8184  2.7283
   87MOL    H7612288   4.400   1.138   1.429  1.5891  2.4928 -1.3281
   87MOL    H7712289   4.244   1.040   1.602 -0.0674  0.8507 -0.5685
   87MOL    H7812290   4.080   1.173   1.683  0.6336 -0.0312  0.2089
   87MOL    C7912291   4.125   1.104   1.452  0.1147  0.0292 -0.0526
   87MOL    C8012292   4.173   1.041   1.319  0.0508  0.0248 -0.0491
   87MOL    O8112293   4.235   0.916   1.355  0.2907  0.3186  0.2443
   87MOL    H8212294   4.047   1.038   1.490 -0.0124  0.7708  1.0090
   87MOL    H8312295   4.082   1.203   1.430  0.9426  0.2118 -0.8752
   87MOL    H8412296   4.246   1.109   1.274  1.6349 -0.2666  1.9970
   87MOL    H8512297   4.316   0.911   1.307 -0.2221  4.6103 -1.2955
   87MOL    C8612298   4.059   1.010   1.213 -0.0721  0.0998 -0.0529
   87MOL    C8712299   3.999   1.127   1.139  0.0910 -0.2116 -0.6627
   87MOL    O8812300   4.098   1.213   1.078 -0.1030 -0.4668  0.1427
   87MOL    H8912301   4.100   0.943   1.137 -0.9455  0.5930 -0.9675
   87MOL    H9012302   3.975   0.954   1.254 -2.5455  3.0263 -0.9471
   87MOL    H9112303   3.957   1.197   1.212  1.0984 -1.1003  0.7706
   87MOL    H9212304   4.066   1.300   1.099 -4.4473 -1.2097 -2.8583
   87MOL    C9312305   3.890   1.093   1.034  0.3809  0.0272  0.0665
   87MOL    C9412306   3.746   1.077   1.087 -0.1386 -0.4278  0.2858
   87MOL    O9512307   3.692   1.207   1.110 -0.4773 -0.6110  0.1728
   87MOL    H9612308   3.902   1.168   0.956  1.9714  0.1492  0.3924
   87MOL    H9712309   3.923   1.000   0.986  1.8806  0.8379 -0.5159
   87MOL    H9812310   3.748   1.028   1.184  2.0613  1.2567  1.1302
   87MOL    H9912311   3.714   1.242   1.195 -1.7828  1.3323 -0.2538
   87MOL   C10012312   3.643   1.005   0.996  0.5238  0.0963  0.9187
   87MOL   C10112313   3.651   0.850   1.004  0.4768  0.2610 -0.4301
   87MOL   O10212314   3.639   0.805   1.138  0.5289 -0.2232  0.2106
   87MOL   H10312315   3.541   1.027   1.028 -0.1885 -2.6562  0.5858
   87MOL   H10412316   3.653   1.045   0.895 -1.5318  0.0513  0.6792
   87MOL   H10512317   3.756   0.826   0.986  0.5444  0.4307 -0.2714
   87MOL   H10612318   3.552   0.824   1.169 -0.1394 -0.3031 -1.5508
   87MOL   C10712319   3.548   0.786   0.919  0.0980 -0.0754  0.4204
   87MOL   C10812320   3.568   0.639   0.882  0.0575 -0.0063 -0.5471
   87MOL   O10912321   3.471   0.595   0.787 -0.4248  0.1981 -0.0159
   87MOL   H11012322   3.453   0.798   0.973  0.1427  2.9193 -0.0568
   87MOL   H11112323   3.526   0.836   0.825 -0.2204 -0.4658  0.2854
   87MOL   H11212324   3.559   0.585   0.977 -1.7897  1.5010  0.1706
   87MOL   H11312325   3.384   0.615   0.821  0.0926  3.9748 -0.6408
   87MOL   C11412326   3.706   0.624   0.821 -0.4931  0.1305  0.2824
   87MOL   C11512327   3.826   0.553   0.900  0.3698  1.3272 -0.6532
   87MOL   O11612328   3.805   0.407   0.902 -0.1822  0.2985 -0.1181
   87MOL   H11712329   3.705   0.572   0.726  3.6600 -0.8078  0.6454
   87MOL   H11812330   3.735   0.722   0.783 -0.5393  0.6525  1.5384
   87MOL   H11912331   3.819   0.576   1.006 -0.4265  0.7366 -0.5743
   87MOL   H12012332   3.856   0.376   0.975 -0.5699  1.6739  0.7619
   87MOL   C12112333   3.963   0.582   0.843 -0.0015 -0.7186 -0.1679
   87MOL   C12212334   4.009   0.724   0.859 -0.7243 -0.1729  0.7135
   87MOL   O12312335   4.053   0.745   0.992 -0.1040 -0.0710  0.0690
   87MOL   H12412336   4.033   0.521   0.901 -0.4551  0.8474  2.1131
   87MOL   H12512337   3.962   0.554   0.738 -1.3755  1.5887 -0.8025
   87MOL   H12612338   3.935   0.800   0.833 -2.5170 -2.4859 -1.1554
   87MOL   H12712339   3.975   0.762   1.043 -0.2433 -1.6601  0.4122
   87MOL   C12812340   4.138   0.755   0.772 -0.0170  0.8142  0.3860
   87MOL   C12912341   4.176   0.908   0.767  1.4123 -0.5214  0.8453
   87MOL   O13012342   4.300   0.905   0.705  0.1911 -0.5706 -0.2604
   87MOL   H13112343   4.228   0.710   0.813 -0.5485 -0.7566 -0.1317
   87MOL   H13212344   4.115   0.721   0.671  0.6363  1.0166  0.1658
   87MOL   H13312345   4.174   0.948   0.868  1.4132  2.8326 -0.4415
   87MOL   H13412346   4.351   0.983   0.718  1.9940 -1.6094 -1.0164
   87MOL   C13512347   4.084   0.993   0.679 -0.1424 -0.4564 -0.8123
   87MOL   C13612348   4.127   1.143   0.667 -0.7765  0.4102 -0.0484
   87MOL   O13712349   4.033   1.217   0.589 -0.2385  0.4747 -0.0346
   87MOL   H13812350   4.103   0.949   0.581 -0.9377 -0.5782 -0.9096
   87MOL   H13912351   3.979   0.986   0.705 -0.8268 -0.3988 -3.4416
   87MOL   H14012352   4.230   1.153   0.633 -0.7036 -2.0030 -0.6327
   87MOL   H14112353   3.947   1.220   0.630  0.2594 -1.0395  1.1916
   87MOL   H14212354   4.134   1.187   0.766  1.9503 -2.8660  1.3123
   88MOL     C112355   6.455   2.597   0.564  0.5136  0.3000  0.0009
   88MOL     C212356   6.583   2.618   0.637 -0.0228  1.3953  0.6928
   88MOL     O312357   6.690   2.551   0.566 -0.0216 -0.5603 -0.5718
   88MOL     H412358   6.438   2.664   0.480 -2.0207  0.6210  0.7238
   88MOL     H512359   6.383   2.639   0.635 -2.7137 -1.3180 -2.1940
   88MOL     H612360   6.562   2.567   0.731 -1.3008  0.8560  0.1337
   88MOL     H712361   6.772   2.574   0.608  1.2869 -1.5345 -2.5423
   88MOL     H812362   6.433   2.495   0.534  1.2890  0.3300 -0.6842
   88MOL     C912363   6.636   2.762   0.654  0.1222 -0.7284  0.5722
   88MOL    C1012364   6.769   2.775   0.737  0.3123 -0.3483 -0.3261
   88MOL    O1112365   6.801   2.919   0.759  0.6061  0.0561 -0.1395
   88MOL    H1212366   6.649   2.808   0.556 -3.5621  0.4752  0.5732
   88MOL    H1312367   6.561   2.829   0.695  0.6239  0.6808 -0.7901
   88MOL    H1412368   6.854   2.732   0.683 -0.5588 -0.0786 -1.9443
   88MOL    H1512369   6.895   2.919   0.751  0.6154 -0.9788 -0.1190
   88MOL    C1612370   6.774   2.700   0.874 -0.6520  0.3218  0.3699
   88MOL    C1712371   6.682   2.741   0.981  0.0310  0.2025 -0.6876
   88MOL    O1812372   6.551   2.709   0.956  0.1795 -0.0456 -0.0586
   88MOL    H1912373   6.761   2.592   0.868  0.8509  0.1719 -0.5072
   88MOL    H2012374   6.876   2.724   0.902 -0.1963  1.7167 -2.2624
   88MOL    H2112375   6.688   2.845   1.012 -0.2508  0.0511 -0.1130
   88MOL    H2212376   6.521   2.704   1.045  1.2776 -0.3711  0.2975
   88MOL    C2312377   6.719   2.663   1.108  0.4002 -0.5038  0.8806
   88MOL    C2412378   6.649   2.713   1.243  0.5960 -0.8751  0.0583
   88MOL    O2512379   6.509   2.694   1.228 -0.2043 -0.1263  0.3065
   88MOL    H2612380   6.704   2.556   1.095  0.3235 -0.4689  0.6677
   88MOL    H2712381   6.827   2.671   1.120  0.6551 -1.1482 -0.8171
   88MOL    H2812382   6.667   2.819   1.256  0.0365 -0.8774  0.8643
   88MOL    H2912383   6.458   2.730   1.300 -1.6075 -0.5191 -0.4853
   88MOL    C3012384   6.709   2.635   1.362  0.2747  0.1072 -0.1914
   88MOL    C3112385   6.667   2.679   1.502  0.2863 -0.9104  0.7655
   88MOL    O3212386   6.770   2.635   1.592  0.9861  0.3873  0.5219
   88MOL    H3312387   6.684   2.530   1.352 -0.9764  0.2451  1.2639
   88MOL    H3412388   6.816   2.641   1.347  0.0784  3.2067 -0.7612
   88MOL    H3512389   6.579   2.618   1.524 -0.5818 -0.8102 -2.2048
   88MOL    H3612390   6.739   2.550   1.619 -1.4190  1.1213  0.1973
   88MOL    C3712391   6.655   2.834   1.522  0.0182 -0.0167 -0.0181
   88MOL    C3812392   6.632   2.884   1.662  0.0872 -0.3803  0.9022
   88MOL    O3912393   6.702   2.999   1.699 -0.0776 -0.2203  0.7357
   88MOL    H4012394   6.739   2.888   1.477  0.1382 -0.6156 -0.5152
   88MOL    H4112395   6.563   2.862   1.470  0.8613  2.1220 -0.4235
   88MOL    H4212396   6.660   2.812   1.739  0.0152 -0.4289  0.8823
   88MOL    H4312397   6.681   3.072   1.644  1.7578  0.3889  0.7915
   88MOL    C4412398   6.480   2.915   1.680  0.9196 -0.3929 -0.1780
   88MOL    C4512399   6.375   2.800   1.669  0.3979  0.6536  0.4807
   88MOL    O4612400   6.357   2.738   1.791 -0.2418  0.4600  0.2799
   88MOL    H4712401   6.454   2.965   1.774 -0.8828 -1.4219 -0.1242
   88MOL    H4812402   6.463   2.990   1.603 -1.0593 -1.2088 -0.5597
   88MOL    H4912403   6.409   2.710   1.616  2.9596  2.8791 -1.8156
   88MOL    H5012404   6.364   2.645   1.775  1.0698  0.8955 -1.9139
   88MOL    C5112405   6.242   2.843   1.603  0.2037 -0.2911 -0.7033
   88MOL    C5212406   6.251   2.867   1.453 -0.1249 -0.1904 -0.8669
   88MOL    O5312407   6.309   2.751   1.397  0.1527 -0.0961 -0.2693
   88MOL    H5412408   6.157   2.777   1.621  0.3385 -0.4667 -0.7157
   88MOL    H5512409   6.224   2.939   1.653 -0.1727  0.2284 -1.8154
   88MOL    H5612410   6.320   2.948   1.430 -0.3966  0.9667  2.1070
   88MOL    H5712411   6.250   2.685   1.431 -0.5590  0.2315 -0.8674
   88MOL    C5812412   6.117   2.894   1.391  0.3662  0.2571 -0.2259
   88MOL    C5912413   6.084   3.049   1.389  0.9585  0.0269 -0.2804
   88MOL    O6012414   6.173   3.121   1.299 -0.0053 -0.2749 -0.1414
   88MOL    H6112415   6.117   2.872   1.284 -0.9720  2.0615 -0.6402
   88MOL    H6212416   6.038   2.834   1.436  0.9207 -0.0723  0.3019
   88MOL    H6312417   6.112   3.096   1.483 -1.0335 -1.2902  1.0272
   88MOL    H6412418   6.258   3.116   1.340  0.3189 -1.3847 -0.9484
   88MOL    C6512419   5.947   3.101   1.351  0.1508 -0.1278 -0.8655
   88MOL    C6612420   5.848   3.103   1.466 -0.4540  0.3227 -0.4569
   88MOL    O6712421   5.891   3.200   1.558  0.4132 -0.2739 -0.6308
   88MOL    H6812422   5.949   3.201   1.309 -0.9739 -0.4551 -1.7282
   88MOL    H6912423   5.904   3.049   1.265 -0.6140 -1.5769  0.3788
   88MOL    H7012424   5.848   3.008   1.520 -2.7792  0.8257  0.5041
   88MOL    H7112425   5.822   3.209   1.621  1.3727  0.0833  0.3815
   88MOL    C7212426   5.698   3.129   1.432 -0.0556  0.3345 -0.3650
   88MOL    C7312427   5.634   3.035   1.323  0.0647 -0.1670 -0.7329
   88MOL    O7412428   5.637   2.905   1.371 -0.2290  0.1934 -0.1029
   88MOL    H7512429   5.645   3.113   1.526  1.6382 -0.3184  0.4925
   88MOL    H7612430   5.677   3.229   1.394  2.3730  0.8158 -0.4817
   88MOL    H7712431   5.690   3.032   1.230  0.6049 -1.0386 -0.3817
   88MOL    H7812432   5.599   2.848   1.306  1.8963 -1.6512  0.2392
   88MOL    C7912433   5.488   3.085   1.306 -0.7089 -0.3908  0.2954
   88MOL    C8012434   5.398   3.036   1.189 -0.9863 -0.2353 -1.0247
   88MOL    O8112435   5.345   2.914   1.227  0.3501 -0.2293 -0.4140
   88MOL    H8212436   5.429   3.068   1.396  0.2605 -2.0230  0.6383
   88MOL    H8312437   5.499   3.192   1.288  2.3382 -0.8155 -0.7583
   88MOL    H8412438   5.467   3.016   1.107 -0.0574  0.0027 -0.3095
   88MOL    H8512439   5.411   2.847   1.219  1.2207  0.5362  0.2272
   88MOL    C8612440   5.288   3.144   1.153 -0.1611 -0.2716 -0.0000
   88MOL    C8712441   5.229   3.118   1.017 -0.0190 -0.1964 -0.3441
   88MOL    O8812442   5.139   3.018   1.050  0.2855  0.5944  0.5644
   88MOL    H8912443   5.214   3.170   1.229  1.0158  0.5304  0.8790
   88MOL    H9012444   5.346   3.234   1.136  0.0360 -0.1925  1.0506
   88MOL    H9112445   5.298   3.082   0.941  1.9690  2.7853 -0.0146
   88MOL    H9212446   5.187   2.964   1.112 -0.3139  0.7444  1.1681
   88MOL    C9312447   5.166   3.247   0.946  0.4632  0.3843  0.0936
   88MOL    C9412448   5.104   3.218   0.810  0.5888 -0.1925 -0.1908
   88MOL    O9512449   5.031   3.333   0.791 -0.9510 -0.6661 -0.9930
   88MOL    H9612450   5.094   3.281   1.020  0.9108 -2.1510  1.7592
   88MOL    H9712451   5.249   3.315   0.929  2.2536 -1.7508  0.0257
   88MOL    H9812452   5.032   3.136   0.815  0.0673  0.2850  0.2199
   88MOL    H9912453   5.039   3.364   0.702 -0.0385 -0.4660 -0.8495
   88MOL   C10012454   5.219   3.198   0.699  0.0252  0.2339  0.2676
   88MOL   C10112455   5.156   3.163   0.562 -0.4914 -0.0742 -0.0302
   88MOL   O10212456   5.119   3.276   0.487  0.0423  0.0337  0.4643
   88MOL   H10312457   5.281   3.287   0.693  0.9455 -0.3164  1.4793
   88MOL   H10412458   5.284   3.119   0.735  1.0901  1.8286  1.9407
   88MOL   H10512459   5.068   3.100   0.574 -1.3630  1.0261 -0.5262
   88MOL   H10612460   5.026   3.279   0.467  0.1979  2.4863 -0.0677
   88MOL   C10712461   5.264   3.093   0.475  0.2482  1.2502 -0.2403
   88MOL   C10812462   5.230   3.065   0.329  0.6932  0.3466 -0.0117
   88MOL   O10912463   5.353   3.045   0.262 -0.3844 -0.4189  0.4373
   88MOL   H11012464   5.358   3.148   0.476  1.3403 -0.5841  1.0440
   88MOL   H11112465   5.280   2.996   0.522  1.1372  1.9281  0.8726
   88MOL   H11212466   5.177   3.153   0.295  1.4573  0.8166 -0.0003
   88MOL   H11312467   5.372   2.953   0.262  0.2885 -0.2869  1.5844
   88MOL   C11412468   5.125   2.957   0.305  0.1585  0.0858 -0.2396
   88MOL   C11512469   5.129   2.815   0.361 -0.1611  0.1609 -0.1308
   88MOL   O11612470   5.065   2.807   0.488 -0.3750 -0.3369  0.5172
   88MOL   H11712471   5.026   2.999   0.325 -0.5431 -2.0851  0.9929
   88MOL   H11812472   5.113   2.941   0.198  1.0345  2.3198 -0.7071
   88MOL   H11912473   5.232   2.793   0.390 -1.5525 -1.4315  3.8990
   88MOL   H12012474   5.089   2.724   0.526 -0.1995 -0.4530  0.1591
   88MOL   C12112475   5.071   2.714   0.267  0.1705 -0.4701 -0.4039
   88MOL   C12212476   5.153   2.679   0.141 -0.7681  0.3323  0.0643
   88MOL   O12312477   5.258   2.586   0.178 -0.3961  0.4840  0.0643
   88MOL   H12412478   5.059   2.624   0.327 -0.5809  0.5856  1.0453
   88MOL   H12512479   4.968   2.744   0.245  0.1801  0.3063  0.5895
   88MOL   H12612480   5.203   2.768   0.102 -0.8843 -1.1358 -3.7143
   88MOL   H12712481   5.329   2.591   0.115 -1.1583  1.2561 -0.7541
   88MOL   C12812482   5.072   2.629   0.022  0.0059  0.2682 -0.3758
   88MOL   C12912483   5.162   2.603   7.418  0.4261  0.3798  0.6064
   88MOL   O13012484   5.094   2.510   7.341 -0.0465 -0.0446  0.0877
   88MOL   H13112485   5.030   2.531   0.045 -0.4502 -0.0950 -2.6192
   88MOL   H13212486   4.985   2.693   0.009 -1.2970 -1.6830 -1.6658
   88MOL   H13312487   5.251   2.546   7.442  0.0932  0.6273  2.4790
   88MOL   H13412488   5.104   2.533   7.250 -1.5600  2.1785  0.4408
   88MOL   C13512489   5.199   2.732   7.332  1.1826  0.1099 -0.9248
   88MOL   C13612490   5.078   2.813   7.283 -0.0826  0.3387  0.0757
   88MOL   O13712491   5.123   2.883   7.163 -0.3451 -0.1729  0.6609
   88MOL   H13812492   5.265   2.799   7.386 -0.7359  1.7963 -0.6130
   88MOL   H13912493   5.263   2.693   7.253  1.2694  0.2519 -0.9235
   88MOL   H14012494   5.039   2.881   7.358  1.0981  1.2333 -0.1176
   88MOL   H14112495   5.082   2.969   7.168  2.5202  1.1426  2.7486
   88MOL   H14212496   5.001   2.744   7.247  0.0257  0.9201 -1.3168
   89MOL     C112497   6.005   7.161   0.696  0.3461 -0.7002 -0.6222
   89MOL     C212498   5.941   7.206   0.563  0.1249  0.5501 -0.1505
   89MOL     O312499   6.041   7.235   0.468 -0.0831 -0.3474  0.5202
   89MOL     H412500   6.080   7.233   0.730 -2.7837  2.5417 -0.2746
   89MOL     H512501   6.047   7.061   0.689  1.7815 -0.1425 -0.2819
   89MOL     H612502   5.877   7.293   0.577 -0.4022  0.4241 -1.7227
   89MOL     H712503   6.100   7.162   0.456  0.3213  0.1620 -0.6908
   89MOL     H812504   5.930   7.155   0.775 -0.4932 -1.2604 -1.4542
   89MOL     C912505   5.847   7.092   0.504 -0.2082  0.0431 -0.2441
   89MOL    C1012506   5.805   7.097   0.358 -0.3333 -0.0400  0.1258
   89MOL    O1112507   5.735   6.975   0.332 -0.1544  0.1242 -0.2167
   89MOL    H1212508   5.904   7.000   0.519 -1.3653 -1.0693 -2.5111
   89MOL    H1312509   5.754   7.091   0.560 -0.8060 -0.6100 -1.2382
   89MOL    H1412510   5.904   7.087   0.313 -0.9747 -1.8368 -0.9746
   89MOL    H1512511   5.764   6.948   0.246 -0.2657 -2.8873  0.6152
   89MOL    C1612512   5.728   7.222   0.309  0.0806  0.3988  0.1720
   89MOL    C1712513   5.747   7.254   0.160 -0.4216  0.7286 -0.7518
   89MOL    O1812514   5.640   7.340   0.121 -0.1779  0.4418  0.1229
   89MOL    H1912515   5.623   7.209   0.333 -0.1081 -1.3573 -1.4815
   89MOL    H2012516   5.777   7.301   0.367 -1.8800  0.2718  2.0431
   89MOL    H2112517   5.744   7.153   0.117  0.2689  0.0841  0.6656
   89MOL    H2212518   5.676   7.388   0.048 -0.4093  0.1584 -0.1767
   89MOL    C2312519   5.877   7.319   0.129 -0.1367 -0.6410 -0.1264
   89MOL    C2412520   5.981   7.222   0.065  0.5209  0.1303 -0.3710
   89MOL    O2512521   5.918   7.186   7.463  0.3922 -0.1192  0.5824
   89MOL    H2612522   5.867   7.406   0.064  0.4278 -0.0608  0.5497
   89MOL    H2712523   5.918   7.357   0.223 -1.5535  0.0518  0.2245
   89MOL    H2812524   6.005   7.132   0.123 -2.0648 -0.1697  0.3168
   89MOL    H2912525   5.939   7.097   7.438  2.3192  0.4378  0.0707
   89MOL    C3012526   6.114   7.290   0.026 -0.2045 -0.5959 -0.7059
   89MOL    C3112527   6.216   7.278   0.142 -0.1178  0.1257  0.3496
   89MOL    O3212528   6.256   7.147   0.169  0.4295  0.2635 -0.3678
   89MOL    H3312529   6.159   7.249   7.455  1.2991 -0.8567  0.1492
   89MOL    H3412530   6.088   7.392   7.515 -0.0269 -0.1769  0.5116
   89MOL    H3512531   6.170   7.319   0.232 -1.6240  0.6284 -0.6251
   89MOL    H3612532   6.205   7.119   0.243  0.6795 -1.2916 -0.7738
   89MOL    C3712533   6.347   7.353   0.117 -0.1118 -1.0927 -0.6315
   89MOL    C3812534   6.327   7.505   0.105  0.8495  0.1843 -0.1147
   89MOL    O3912535   6.303   0.029   0.241 -0.3532  0.2249  0.1475
   89MOL    H4012536   6.413   7.345   0.203  0.1079  0.5086 -0.6350
   89MOL    H4112537   6.397   7.317   0.027 -1.4323 -2.0785 -0.9974
   89MOL    H4212538   6.232   0.007   0.056  1.3338 -0.6936 -1.4678
   89MOL    H4312539   6.228   0.083   0.261 -0.6746 -1.5254  4.0410
   89MOL    C4412540   6.449   0.053   0.044  0.3054  0.0225  0.3498
   89MOL    C4512541   6.456   0.059   7.410  0.7966 -0.9442  0.6723
   89MOL    O4612542   6.399   0.184   7.370 -0.1172  0.1075  0.1256
   89MOL    H4712543   6.457   0.153   0.088  0.5630 -0.2884  1.0044
   89MOL    H4812544   6.532   7.513   0.080 -1.5419 -1.8600  1.5729
   89MOL    H4912545   6.398   7.500   7.362  0.6261  0.1013 -0.8524
   89MOL    H5012546   6.412   0.183   7.277 -2.4867 -2.1007 -0.2384
   89MOL    C5112547   6.609   0.071   7.368  0.4988  0.0353  0.1505
   89MOL    C5212548   6.634   0.008   7.226  0.3402  0.0569 -0.3104
   89MOL    O5312549   6.649   0.112   7.133 -0.1019 -0.0831 -0.2294
   89MOL    H5412550   6.643   0.174   7.364  2.0570 -0.3749  1.8206
   89MOL    H5512551   6.680   0.024   7.436  0.0172  0.5242  0.9894
   89MOL    H5612552   6.543   7.477   7.193 -0.4690  1.6794 -0.6054
   89MOL    H5712553   6.567   0.147   7.102  0.4208 -0.1897 -1.7385
   89MOL    C5812554   6.750   7.429   7.217  0.2507 -0.3368  0.0037
   89MOL    C5912555   6.763   7.367   7.079 -0.0057 -0.6271  0.2014
   89MOL    O6012556   6.899   7.331   7.070 -0.8103  0.1312  0.9397
   89MOL    H6112557   6.844   7.469   7.257 -0.5812  0.4693  1.1967
   89MOL    H6212558   6.731   7.353   7.293  0.8848  0.5686  1.0819
   89MOL    H6312559   6.735   7.435   6.998 -0.6177 -2.1849 -0.9104
   89MOL    H6412560   6.930   7.311   6.983 -1.9703  1.6990  0.1406
   89MOL    C6512561   6.670   7.247   7.058 -0.2133  0.7793  0.3336
   89MOL    C6612562   6.707   7.170   6.929  0.6208 -0.0460  0.0655
   89MOL    O6712563   6.665   7.030   6.947  0.0823  0.0592 -0.0320
   89MOL    H6812564   6.676   7.179   7.144  1.4158 -1.1336 -1.2303
   89MOL    H6912565   6.565   7.276   7.055 -0.9829 -1.8893 -0.7388
   89MOL    H7012566   6.813   7.172   6.904  0.7167 -3.5390 -0.0075
   89MOL    H7112567   6.716   6.989   6.879 -1.3392 -0.2819 -0.9240
   89MOL    C7212568   6.615   7.205   6.810  0.2400  0.0619 -0.8306
   89MOL    C7312569   6.655   7.331   6.734  0.3679  0.1887 -0.1227
   89MOL    O7412570   6.796   7.331   6.711  0.1122  0.4107 -0.1257
   89MOL    H7512571   6.618   7.134   6.728 -2.1224 -0.6398 -0.3473
   89MOL    H7612572   6.509   7.202   6.835  0.4161 -0.7984 -0.1695
   89MOL    H7712573   6.615   7.416   6.789 -1.1970 -0.7182  0.1766
   89MOL    H7812574   6.821   7.405   6.657  1.9085  0.8296  1.2292
   89MOL    C7912575   6.584   7.342   6.596  0.1533  0.4341  0.1359
   89MOL    C8012576   6.431   7.335   6.593 -0.5368  0.0781 -0.0299
   89MOL    O8112577   6.379   7.428   6.684 -0.1791  0.0062 -0.8002
   89MOL    H8212578   6.620   7.440   6.562 -3.3154  1.7364  0.0454
   89MOL    H8312579   6.627   7.272   6.525  1.2181  2.5739 -1.4030
   89MOL    H8412580   6.405   7.236   6.630  3.4249 -0.5391  1.3546
   89MOL    H8512581   6.316   7.481   6.637 -0.7899 -0.7827 -0.8817
   89MOL    C8612582   6.386   7.374   6.446  0.3404 -0.6167 -0.2822
   89MOL    C8712583   6.233   7.386   6.431  0.5044  0.0105  0.2965
   89MOL    O8812584   6.188   7.506   6.491 -0.1234  0.1521 -0.1226
   89MOL    H8912585   6.430   7.470   6.418 -0.6347  0.1914  0.9351
   89MOL    H9012586   6.419   7.291   6.383 -1.4859 -2.5179  1.1854
   89MOL    H9112587   6.185   7.305   6.486 -2.1176  1.4996  0.2512
   89MOL    H9212588   6.097   7.493   6.515 -0.5823 -0.0057 -1.8827
   89MOL    C9312589   6.181   7.385   6.284  0.7946  0.2175 -0.2233
   89MOL    C9412590   6.202   7.256   6.212 -0.5176  0.7353 -0.4723
   89MOL    O9512591   6.174   7.141   6.296  0.2777  0.1955 -0.7979
   89MOL    H9612592   6.072   7.396   6.282  0.7547 -0.2808 -1.2158
   89MOL    H9712593   6.229   7.463   6.225  1.0982 -0.8267 -1.3709
   89MOL    H9812594   6.309   7.250   6.195 -0.1894  1.9328  1.0667
   89MOL    H9912595   6.081   7.143   6.309  0.3047  0.0202 -0.5849
   89MOL   C10012596   6.124   7.233   6.079  0.5053  0.4265 -0.4876
   89MOL   C10112597   6.164   7.338   5.965 -0.2676  0.4166 -0.2537
   89MOL   O10212598   6.156   7.271   5.838  1.3365 -0.2536 -0.4753
   89MOL   H10312599   6.144   7.132   6.042  1.5247  0.1603  0.7511
   89MOL   H10412600   6.019   7.242   6.106  0.1708 -1.5663 -1.0432
   89MOL   H10512601   6.268   7.366   5.983 -1.3162  4.6690 -0.3845
   89MOL   H10612602   6.239   7.288   5.795  1.2359 -0.8251 -0.9140
   89MOL   C10712603   6.070   7.467   5.963 -0.0142 -0.2829 -0.1100
   89MOL   C10812604   6.095   0.041   5.849  0.7137  0.0153  0.4967
   89MOL   O10912605   5.995   0.141   5.850  0.0223  0.4938  0.7938
   89MOL   H11012606   5.968   7.433   5.947 -0.5879  0.5647  1.6793
   89MOL   H11112607   6.090   7.516   6.058 -0.8485 -2.6996  1.3212
   89MOL   H11212608   6.072   0.001   5.750  0.7035  1.0794  0.0564
   89MOL   H11312609   6.016   0.201   5.780 -4.2998  2.3105  0.8440
   89MOL   C11412610   6.238   0.099   5.864 -0.6862 -0.0335 -0.3476
   89MOL   C11512611   6.285   0.172   5.731  0.7594 -0.5959  0.7341
   89MOL   O11612612   6.209   0.290   5.730 -0.1483  0.0617  0.8097
   89MOL   H11712613   6.242   0.153   5.958 -3.2372 -1.7057  0.7614
   89MOL   H11812614   6.314   0.022   5.878 -0.4366  0.9261  4.1820
   89MOL   H11912615   6.269   0.103   5.648 -1.4754 -0.4921  1.0380
   89MOL   H12012616   6.238   0.343   5.803  3.8137  1.7132 -1.7251
   89MOL   C12112617   6.433   0.210   5.738 -0.1725  0.3855  0.0575
   89MOL   C12212618   6.535   0.099   5.700 -0.7649 -0.2580 -0.6169
   89MOL   O12312619   6.496   0.028   5.579 -0.0489 -0.3998 -0.6685
   89MOL   H12412620   6.458   0.288   5.666  1.0106  0.2165  0.2764
   89MOL   H12512621   6.463   0.249   5.835  2.0257  1.9957 -1.2225
   89MOL   H12612622   6.527   0.016   5.771  0.9589  0.9090  0.9864
   89MOL   H12712623   6.553   0.046   5.506 -0.5771 -0.1849 -1.0281
   89MOL   C12812624   6.683   0.148   5.688  0.0644  0.2919  0.3288
   89MOL   C12912625   6.740   0.199   5.824  0.6947 -0.0067  0.5494
   89MOL   O13012626   6.782   0.084   5.891  1.1099 -0.3985  0.2437
   89MOL   H13112627   6.738   0.066   5.642 -1.3811  0.0109 -0.9421
   89MOL   H13212628   6.670   0.226   5.613  1.4198  0.6611  0.4716
   89MOL   H13312629   6.667   0.254   5.883  1.2746 -0.9637  2.1946
   89MOL   H13412630   6.837   0.031   5.835  1.5383 -0.7488  0.9919
   89MOL   C13512631   6.868   0.291   5.802 -0.7789  0.7588 -0.4765
   89MOL   C13612632   6.838   0.437   5.766 -0.1728  0.7600 -0.7369
   89MOL   O13712633   6.950   0.510   5.730  0.1949  0.2225 -0.9037
   89MOL   H13812634   6.930   0.281   5.890  0.4365  0.7212 -1.3274
   89MOL   H13912635   6.915   0.248   5.713  0.8195  0.6058  0.4389
   89MOL   H14012636   6.799   0.479   5.858  0.6286  0.8405 -0.4358
   89MOL   H14112637   6.927   0.597   5.758  1.0184 -0.2221  1.2269
   89MOL   H14212638   6.766   0.443   5.684  1.4526  2.7740 -2.0542
   90MOL     C112639   3.491   4.608   4.196  0.0953 -0.2222 -0.2714
   90MOL     C212640   3.487   4.490   4.288 -0.2688 -0.6365  0.2050
   90MOL     O312641   3.605   4.409   4.272  0.3777  0.4110  0.1362
   90MOL     H412642   3.580   4.671   4.199 -1.5851  2.1741  1.1291
   90MOL     H512643   3.404   4.671   4.216 -0.1718 -0.7010  0.0937
   90MOL     H612644   3.405   4.426   4.255 -0.0570 -0.8761  0.1410
   90MOL     H712645   3.677   4.461   4.241  0.7646 -0.3988 -0.3547
   90MOL     H812646   3.495   4.574   4.092 -1.6254  1.3503 -0.8812
   90MOL     C912647   3.470   4.540   4.434 -0.8670 -0.3670  0.5630
   90MOL    C1012648   3.458   4.422   4.536 -0.4325 -0.4113 -0.1355
   90MOL    O1112649   3.490   4.473   4.672 -1.1120 -0.2673 -0.5172
   90MOL    H1212650   3.547   4.617   4.441 -1.1903  0.0214 -0.1115
   90MOL    H1312651   3.377   4.598   4.432 -0.3081  0.5056 -1.0844
   90MOL    H1412652   3.509   4.329   4.513 -1.4748 -0.7881 -0.9882
   90MOL    H1512653   3.565   4.530   4.665  0.9016 -2.7844 -0.2818
   90MOL    C1612654   3.312   4.372   4.536 -0.1345 -0.3190  0.5487
   90MOL    C1712655   3.292   4.229   4.583 -0.7462 -0.2233 -0.3003
   90MOL    O1812656   3.359   4.207   4.704 -0.3563 -0.1276 -0.3572
   90MOL    H1912657   3.251   4.437   4.599 -1.4153 -1.4877  0.5474
   90MOL    H2012658   3.272   4.382   4.435 -2.1217  0.9895  1.4249
   90MOL    H2112659   3.332   4.158   4.511 -1.8852 -2.5040  1.2594
   90MOL    H2212660   3.383   4.295   4.730  1.8900 -0.9893  0.6679
   90MOL    C2312661   3.146   4.178   4.607 -0.2633 -0.7344  0.3068
   90MOL    C2412662   3.123   4.021   4.615 -0.1022  0.2563  0.1195
   90MOL    O2512663   3.158   3.983   4.749  0.1085 -0.0434 -0.6156
   90MOL    H2612664   3.121   4.227   4.701 -3.1035  0.2279 -0.8929
   90MOL    H2712665   3.099   4.223   4.520 -1.4534  2.5521  2.5432
   90MOL    H2812666   3.182   3.966   4.542 -0.8446 -2.5290  1.5213
   90MOL    H2912667   3.247   4.012   4.762  0.0773 -0.0457 -0.3879
   90MOL    C3012668   2.974   3.989   4.588 -0.2260 -0.3956  0.2061
   90MOL    C3112669   2.933   3.841   4.589  0.4720  0.1008 -0.0162
   90MOL    O3212670   2.790   3.829   4.575  0.1674 -0.0251 -0.6822
   90MOL    H3312671   2.914   4.044   4.662 -1.1795  0.7413 -1.3810
   90MOL    H3412672   2.946   4.026   4.490  0.4290 -0.0450  0.1520
   90MOL    H3512673   2.958   3.802   4.688  0.4880 -1.1677 -0.5118
   90MOL    H3612674   2.756   3.811   4.489 -2.9022  0.8009  0.2890
   90MOL    C3712675   2.997   3.766   4.470 -0.5106 -0.3443 -0.0172
   90MOL    C3812676   3.059   3.628   4.512 -0.0451 -0.0749  0.0272
   90MOL    O3912677   3.044   3.544   4.403  0.1902  0.0516  0.2570
   90MOL    H4012678   2.930   3.745   4.386 -2.1611 -0.1053  1.2266
   90MOL    H4112679   3.073   3.827   4.422 -1.2914  1.4931  1.0141
   90MOL    H4212680   2.987   3.593   4.586  2.9792 -1.3583  2.4515
   90MOL    H4312681   3.083   3.590   4.331 -0.2004  0.2103  0.1419
   90MOL    C4412682   3.209   3.637   4.565 -0.0678 -0.6253 -0.0692
   90MOL    C4512683   3.274   3.496   4.598  0.4176  0.7112 -0.2828
   90MOL    O4612684   3.416   3.511   4.610 -0.7225  0.3966  0.6662
   90MOL    H4712685   3.282   3.689   4.503  0.0866  0.0927  0.6917
   90MOL    H4812686   3.210   3.699   4.655 -0.9078  0.2270 -0.6398
   90MOL    H4912687   3.274   3.434   4.508 -0.1776  0.3614 -0.0447
   90MOL    H5012688   3.451   3.432   4.571 -2.4651  0.5792 -1.3383
   90MOL    C5112689   3.206   3.403   4.702 -0.0405  0.5990 -0.0317
   90MOL    C5212690   3.181   3.473   4.837 -0.5447 -0.4508 -0.2125
   90MOL    O5312691   3.082   3.405   4.905  0.0530  0.0696 -0.3211
   90MOL    H5412692   3.109   3.379   4.660  0.0586 -0.1019  0.1361
   90MOL    H5512693   3.263   3.311   4.714 -1.2706 -0.3498 -1.4201
   90MOL    H5612694   3.155   3.576   4.812 -0.4924 -0.5105 -0.5175
   90MOL    H5712695   3.000   3.450   4.899 -0.4749 -0.8345  0.0452
   90MOL    C5812696   3.305   3.495   4.923 -0.4145  0.3072 -0.0901
   90MOL    C5912697   3.296   3.588   5.041 -0.1740 -0.4025 -0.6772
   90MOL    O6012698   3.312   3.512   5.163 -0.3434  0.1437 -0.0855
   90MOL    H6112699   3.345   3.400   4.958 -0.2268 -0.0956 -1.3861
   90MOL    H6212700   3.384   3.529   4.856 -0.4526  1.8447  0.6132
   90MOL    H6312701   3.199   3.637   5.041  0.1066  0.1694 -2.4130
   90MOL    H6412702   3.366   3.436   5.145  2.0199  1.3363  1.6159
   90MOL    C6512703   3.404   3.697   5.041 -0.0808 -0.4018 -0.2689
   90MOL    C6612704   3.369   3.817   4.950  0.3640  0.4105  0.3083
   90MOL    O6712705   3.290   3.912   5.023 -0.3442  0.7795  0.2749
   90MOL    H6812706   3.424   3.730   5.143 -2.3268  1.2839 -0.3366
   90MOL    H6912707   3.495   3.654   5.000  0.1804  1.1954 -1.4401
   90MOL    H7012708   3.310   3.782   4.865 -0.1520  0.0994  0.7920
   90MOL    H7112709   3.221   3.868   5.070 -0.4509  2.7229  2.0607
   90MOL    C7212710   3.493   3.896   4.900  0.2634 -0.5833 -0.4228
   90MOL    C7312711   3.591   3.835   4.794 -0.3527 -0.0173 -0.2736
   90MOL    O7412712   3.515   3.797   4.682  0.4614 -0.2033  0.0344
   90MOL    H7512713   3.470   3.994   4.858  0.4809  0.2922  1.4311
   90MOL    H7612714   3.540   3.932   4.992 -0.5922  2.9420 -1.2733
   90MOL    H7712715   3.646   3.751   4.837 -0.7630 -0.5323 -0.7432
   90MOL    H7812716   3.489   3.706   4.685 -1.7777  0.4441  2.4303
   90MOL    C7912717   3.689   3.941   4.734 -0.0379  0.8683  0.2210
   90MOL    C8012718   3.772   4.013   4.836 -0.4492 -0.0020 -0.0135
   90MOL    O8112719   3.864   3.922   4.902  0.2601  0.6959  0.4197
   90MOL    H8212720   3.760   3.892   4.668  1.4430  1.2038  1.5603
   90MOL    H8312721   3.640   4.010   4.665  1.0428 -0.4666 -1.9192
   90MOL    H8412722   3.715   4.062   4.914  1.7447  0.2470  1.4618
   90MOL    H8512723   3.818   3.902   4.983 -1.8277 -0.0383 -0.9017
   90MOL    C8612724   3.861   4.122   4.762  0.0249  0.0514  0.4295
   90MOL    C8712725   3.793   4.247   4.717  0.1599 -0.1288 -0.3559
   90MOL    O8812726   3.777   4.346   4.816  0.9211 -0.0099  0.1446
   90MOL    H8912727   3.944   4.151   4.827 -0.8431 -1.2330  2.1361
   90MOL    H9012728   3.904   4.072   4.675  2.9296  1.1415  1.1627
   90MOL    H9112729   3.694   4.220   4.681 -0.8256  0.5374  1.7679
   90MOL    H9212730   3.699   4.397   4.799 -0.8655 -3.2672 -1.8175
   90MOL    C9312731   3.847   4.320   4.586  0.5128  0.9595  0.1987
   90MOL    C9412732   4.002   4.339   4.578 -0.2900 -0.1720 -0.5328
   90MOL    O9512733   4.027   4.374   4.445  0.3483 -0.5061  0.1720
   90MOL    H9612734   3.795   4.267   4.506  1.0599  3.9337 -2.2393
   90MOL    H9712735   3.800   4.419   4.582 -0.1846  0.5776 -1.7701
   90MOL    H9812736   4.050   4.244   4.601  1.3077  0.6364 -0.4106
   90MOL    H9912737   4.008   4.302   4.386  1.3516 -1.3606  0.8703
   90MOL   C10012738   4.056   4.444   4.678 -0.5052  0.0430 -0.1888
   90MOL   C10112739   4.206   4.437   4.708  0.7554  0.9977 -0.4706
   90MOL   O10212740   4.239   4.565   4.772  0.3882 -0.2178  0.3922
   90MOL   H10312741   4.018   4.542   4.646  1.5649 -0.1185 -3.3145
   90MOL   H10412742   3.997   4.434   4.769  2.0468  0.4886  1.5407
   90MOL   H10512743   4.261   4.446   4.614 -0.3456  1.2281 -1.0918
   90MOL   H10612744   4.331   4.587   4.766  0.6213 -1.6264 -1.9412
   90MOL   C10712745   4.240   4.314   4.792 -0.2279 -0.4584 -0.1374
   90MOL   C10812746   4.322   4.199   4.733  0.1632  1.5237  0.2036
   90MOL   O10912747   4.439   4.236   4.648  0.1501 -0.2103  0.6855
   90MOL   H11012748   4.316   4.352   4.860 -1.6515  2.0797  0.1339
   90MOL   H11112749   4.159   4.291   4.861  0.6052 -1.6427  0.4415
   90MOL   H11212750   4.266   4.149   4.653  2.1756 -0.5364  0.0235
   90MOL   H11312751   4.510   4.265   4.704  1.5964 -2.2748 -0.0529
   90MOL   C11412752   4.370   4.107   4.847  0.4334  0.7619 -0.1620
   90MOL   C11512753   4.384   3.958   4.808  0.9848 -0.2696 -0.3183
   90MOL   O11612754   4.491   3.949   4.724  0.0124  0.5642  0.1018
   90MOL   H11712755   4.472   4.129   4.880  0.3112  0.1711  0.6031
   90MOL   H11812756   4.296   4.103   4.926  0.4893  1.9393 -0.0505
   90MOL   H11912757   4.298   3.935   4.745  0.3818  0.4674  0.2354
   90MOL   H12012758   4.478   4.010   4.652  1.4639  1.0923  0.2837
   90MOL   C12112759   4.405   3.871   4.942 -0.3688 -0.0469  0.1202
   90MOL   C12212760   4.396   3.721   4.928  0.2989 -0.8385  0.4361
   90MOL   O12312761   4.426   3.645   5.045  0.0681 -0.2388 -0.3153
   90MOL   H12412762   4.505   3.889   4.981 -1.1387 -0.1111  2.1810
   90MOL   H12512763   4.333   3.908   5.014 -0.6387 -0.7241  0.2064
   90MOL   H12612764   4.459   3.693   4.844  0.9648  2.7772 -0.3535
   90MOL   H12712765   4.484   3.577   5.013  0.7626  0.0250  0.3576
   90MOL   C12812766   4.248   3.690   4.897  0.5933 -0.2670 -0.5737
   90MOL   C12912767   4.210   3.548   4.851  0.8519  0.0001  0.0784
   90MOL   O13012768   4.073   3.530   4.837  0.2699 -0.6916  0.8526
   90MOL   H13112769   4.190   3.711   4.987  0.8179 -1.4575 -0.1371
   90MOL   H13212770   4.207   3.753   4.819 -0.1984  3.2858  2.5302
   90MOL   H13312771   4.242   3.481   4.931 -3.3663 -1.3301  0.7585
   90MOL   H13412772   4.042   3.548   4.924 -1.8558  0.7372 -0.1408
   90MOL   C13512773   4.279   3.506   4.715 -0.5022 -0.0855  0.4099
   90MOL   C13612774   4.268   3.610   4.600  0.0472 -0.3860  0.6647
   90MOL   O13712775   4.279   3.550   4.476 -0.2327  0.4202 -0.2071
   90MOL   H13812776   4.383   3.491   4.741 -0.2048 -1.2187 -1.3337
   90MOL   H13912777   4.245   3.405   4.693  1.1066  0.0309 -2.8617
   90MOL   H14012778   4.345   3.685   4.622 -1.5856  1.6313 -0.2911
   90MOL   H14112779   4.282   3.621   4.413 -3.0544 -0.8482 -1.8810
   90MOL   H14212780   4.171   3.659   4.602  0.5076  0.7571 -2.2550
   91MOL     C112781   6.954   0.386   3.101 -0.2993 -0.0569 -0.1133
   91MOL     C212782   6.920   0.269   3.193  0.1452  0.3827 -0.5179
   91MOL     O312783   6.864   0.171   3.117  0.0197  0.0086  0.3225
   91MOL     H412784   7.027   0.371   3.022  1.2786 -0.2316  1.3322
   91MOL     H512785   6.991   0.470   3.161 -1.3332  0.2942  0.0545
   91MOL     H612786   6.842   0.307   3.259  0.9987 -0.9566  1.3101
   91MOL     H712787   6.824   0.211   3.042 -0.4716 -0.8419  0.1205
   91MOL     H812788   6.866   0.419   3.047 -0.4158 -1.0653 -0.5501
   91MOL     C912789   7.036   0.220   3.277  0.3326  0.8741 -0.0536
   91MOL    C1012790   7.013   0.129   3.397 -1.0185 -0.5122  0.6026
   91MOL    O1112791   7.134   0.065   3.427 -0.3344 -0.1626  0.0898
   91MOL    H1212792   7.097   0.168   3.203  0.7054  0.8157  0.2936
   91MOL    H1312793   7.088   0.310   3.312  1.3621 -0.1015  0.9558
   91MOL    H1412794   6.939   0.052   3.373 -2.1280  0.5297  0.5711
   91MOL    H1512795   7.123   7.518   3.494  1.2317  0.0599  0.5996
   91MOL    C1612796   6.946   0.192   3.523  0.0283 -0.0602 -0.1227
   91MOL    C1712797   6.821   0.274   3.519 -0.2165  0.5524  0.4212
   91MOL    O1812798   6.710   0.207   3.474  0.3044  0.2003  0.2799
   91MOL    H1912799   6.935   0.110   3.595 -1.8650  1.0375  0.8457
   91MOL    H2012800   7.031   0.242   3.569 -0.3360  2.0575 -1.6626
   91MOL    H2112801   6.827   0.355   3.446 -0.1705  0.5239  0.3938
   91MOL    H2212802   6.712   0.130   3.529 -1.7851 -0.4666 -0.5108
   91MOL    C2312803   6.788   0.335   3.652 -0.1162  1.0245  0.7637
   91MOL    C2412804   6.668   0.432   3.655 -0.2979  0.3095  0.3435
   91MOL    O2512805   6.659   0.482   3.790  0.3978  0.2319  0.4453
   91MOL    H2612806   6.752   0.249   3.708  1.2767 -0.0554  0.0117
   91MOL    H2712807   6.878   0.374   3.699  0.4831  0.5056  0.0542
   91MOL    H2812808   6.573   0.387   3.628  0.4184 -1.3903  0.6319
   91MOL    H2912809   6.651   0.413   3.854 -1.2230  1.1045  1.2114
   91MOL    C3012810   6.699   0.558   3.570 -0.3611  0.0092 -0.1078
   91MOL    C3112811   6.597   0.609   3.466 -0.2007 -0.3175 -0.3244
   91MOL    O3212812   6.611   0.746   3.445  0.0593  0.2507 -0.0578
   91MOL    H3312813   6.721   0.637   3.642 -1.4421 -1.2203  1.6081
   91MOL    H3412814   6.798   0.553   3.526  0.5714 -0.3098  1.9749
   91MOL    H3512815   6.500   0.586   3.509  0.3647  0.8998  1.6510
   91MOL    H3612816   6.534   0.768   3.394 -0.5795 -1.9977 -0.0891
   91MOL    C3712817   6.622   0.550   3.322 -0.7123 -0.2087 -0.5891
   91MOL    C3812818   6.483   0.538   3.246 -1.0557 -0.2858 -0.3431
   91MOL    O3912819   6.436   0.677   3.227  0.2064 -0.2516 -0.1502
   91MOL    H4012820   6.690   0.602   3.255 -1.1163  2.4221  0.9991
   91MOL    H4112821   6.659   0.448   3.335  1.4508  0.3187 -2.2836
   91MOL    H4212822   6.404   0.493   3.304 -2.4330  0.2222 -1.7815
   91MOL    H4312823   6.366   0.682   3.164 -1.5200  0.6320  1.8129
   91MOL    C4412824   6.504   0.461   3.109  0.2027 -0.2845 -0.3556
   91MOL    C4512825   6.446   0.318   3.109  0.4870 -0.2047 -0.1097
   91MOL    O4612826   6.459   0.260   2.978  0.4004 -0.0074 -0.6597
   91MOL    H4712827   6.441   0.511   3.034  1.7866 -1.3570 -2.4676
   91MOL    H4812828   6.599   0.479   3.058 -1.6565  1.7058 -3.3442
   91MOL    H4912829   6.341   0.319   3.137  0.6305 -0.5217  0.4291
   91MOL    H5012830   6.378   0.270   2.930 -0.2853 -1.5229  0.1236
   91MOL    C5112831   6.510   0.212   3.205  0.4448 -0.3366 -0.1884
   91MOL    C5212832   6.410   0.148   3.316 -1.2330  0.5967 -0.1823
   91MOL    O5312833   6.490   0.054   3.375  0.6193  0.0737 -0.2605
   91MOL    H5412834   6.555   0.131   3.148  3.1467  0.3936  0.8425
   91MOL    H5512835   6.585   0.261   3.267 -1.4901  2.7943 -0.2179
   91MOL    H5612836   6.326   0.100   3.265 -0.2400  0.8810 -2.1631
   91MOL    H5712837   6.576   0.090   3.393  0.5678  0.6757 -1.1630
   91MOL    C5812838   6.359   0.255   3.414  0.6954  0.0707 -0.4504
   91MOL    C5912839   6.292   0.199   3.535  0.3616  0.5410  0.0112
   91MOL    O6012840   6.222   0.294   3.611  0.2848  0.0777 -0.7027
   91MOL    H6112841   6.435   0.326   3.447  0.4861  0.3009 -0.4600
   91MOL    H6212842   6.284   0.318   3.366  0.2029  1.3222  1.8750
   91MOL    H6312843   6.383   0.177   3.590  1.0094  0.2556 -1.1704
   91MOL    H6412844   6.268   0.320   3.690 -3.0759  0.5097  1.2010
   91MOL    C6512845   6.196   0.076   3.515  0.3560  0.1405  0.0678
   91MOL    C6612846   6.166   7.516   3.648  0.9896  0.5930  1.0519
   91MOL    O6712847   6.049   7.434   3.629  0.1116 -0.3234  0.5278
   91MOL    H6812848   6.107   0.109   3.461  0.5704  2.7757  1.2855
   91MOL    H6912849   6.246   7.519   3.456  2.9740  1.0813  1.0106
   91MOL    H7012850   6.141   0.058   3.734 -0.3507 -0.5574  1.5023
   91MOL    H7112851   6.010   7.444   3.543  0.5510 -0.0327  0.3595
   91MOL    C7212852   6.267   7.407   3.688 -0.0400  0.0801 -0.0301
   91MOL    C7312853   6.256   7.337   3.822  0.1826 -0.1748  0.6073
   91MOL    O7412854   6.383   7.273   3.837 -0.3833 -0.2157 -0.2584
   91MOL    H7512855   6.254   7.324   3.618  0.5501 -0.5721  0.6175
   91MOL    H7612856   6.369   7.445   3.675 -1.2466  3.2882 -0.5274
   91MOL    H7712857   6.184   7.255   3.832  1.0718 -1.0849 -0.3479
   91MOL    H7812858   6.393   7.226   3.755 -1.3573 -0.5721 -0.1804
   91MOL    C7912859   6.223   7.432   3.941 -0.3873  0.2711 -0.1076
   91MOL    C8012860   6.075   7.453   3.984  0.1247 -0.5458  0.0177
   91MOL    O8112861   6.007   7.339   4.011  0.3202 -0.4809  0.4596
   91MOL    H8212862   6.267   7.390   4.031  1.2043  0.1169 -0.9312
   91MOL    H8312863   6.278   0.006   3.928  0.4565 -0.1268  0.5911
   91MOL    H8412864   6.019   7.500   3.903  1.4392 -0.5208 -0.8878
   91MOL    H8512865   5.942   7.341   3.942 -1.8241  0.4967  2.4099
   91MOL    C8612866   6.064   0.046   4.095 -0.2107  0.1157 -0.6288
   91MOL    C8712867   5.938   0.070   4.175  0.3052 -0.1364 -0.7038
   91MOL    O8812868   5.969   0.181   4.259 -0.0036  0.0125 -0.1754
   91MOL    H8912869   6.141   0.023   4.168  0.3247 -3.8701 -2.3183
   91MOL    H9012870   6.088   0.133   4.034  0.5451  0.7743  0.6089
   91MOL    H9112871   5.911   7.504   4.238  0.8026  0.0927 -0.1706
   91MOL    H9212872   5.965   0.258   4.205  0.4307  0.0692 -0.1324
   91MOL    C9312873   5.822   0.110   4.079 -0.9098  0.4693  0.0787
   91MOL    C9412874   5.681   0.109   4.143 -0.3352  0.1851 -0.5076
   91MOL    O9512875   5.596   0.136   4.038  0.0431 -0.3367 -0.6447
   91MOL    H9612876   5.851   0.207   4.040  1.8621 -1.1504 -2.1492
   91MOL    H9712877   5.829   0.040   3.996  3.6128 -1.3742  1.8395
   91MOL    H9812878   5.685   0.196   4.209  0.8775  1.2963 -2.0337
   91MOL    H9912879   5.522   0.077   4.038  0.3783 -0.8658  2.9186
   91MOL   C10012880   5.639   7.495   4.211  0.3362 -0.6540 -0.0414
   91MOL   C10112881   5.484   7.492   4.231  0.0030 -0.0617  0.0570
   91MOL   O10212882   5.413   7.470   4.103 -0.1549 -0.3637 -0.1108
   91MOL   H10312883   5.662   7.412   4.144  1.7527 -0.8891  0.7237
   91MOL   H10412884   5.698   7.474   4.300  1.3081 -2.6165 -1.1329
   91MOL   H10512885   5.440   0.062   4.275  1.6803  0.2708  1.1197
   91MOL   H10612886   5.320   7.476   4.119  0.2751  2.0584  1.7176
   91MOL   C10712887   5.449   7.381   4.327  0.1791  0.0482  0.9514
   91MOL   C10812888   5.503   7.382   4.473  0.5940 -0.3235  0.6425
   91MOL   O10912889   5.413   7.470   4.550  0.1672  0.0408 -0.1749
   91MOL   H11012890   5.341   7.371   4.340  0.0530  0.6985  0.4047
   91MOL   H11112891   5.495   7.292   4.285  1.6367  0.1478  2.2690
   91MOL   H11212892   5.600   7.432   4.472  0.0396  0.7475 -0.3910
   91MOL   H11312893   5.433   0.035   4.515  1.1109  0.6394  1.7094
   91MOL   C11412894   5.507   7.247   4.544  0.0720 -0.0948  0.8230
   91MOL   C11512895   5.600   7.246   4.660 -0.6501  0.3326 -1.0933
   91MOL   O11612896   5.732   7.248   4.622  0.9276 -0.5166  0.1847
   91MOL   H11712897   5.405   7.211   4.561 -1.2121  3.2906  0.5832
   91MOL   H11812898   5.544   7.168   4.479 -0.8670 -0.6442  0.9437
   91MOL   H11912899   5.590   7.148   4.708 -1.1873  1.7870  1.8818
   91MOL   H12012900   5.767   7.169   4.660  0.4377 -0.3342  1.0091
   91MOL   C12112901   5.565   7.341   4.779 -0.0466 -0.7092  0.3093
   91MOL   C12212902   5.420   7.326   4.836  0.0490  0.4563  0.2585
   91MOL   O12312903   5.402   7.199   4.894  0.1904  0.0019 -0.1388
   91MOL   H12412904   5.635   7.335   4.863  1.5366 -2.1750 -1.0936
   91MOL   H12512905   5.579   7.443   4.744 -1.9359 -0.6917 -0.4327
   91MOL   H12612906   5.355   7.327   4.749 -0.1184  1.2023  0.3920
   91MOL   H12712907   5.313   7.179   4.868 -1.3425  3.4748  2.0744
   91MOL   C12812908   5.365   7.432   4.931  0.3320  0.1584 -0.6061
   91MOL   C12912909   5.359   0.057   4.880  0.4713 -1.0549  0.1110
   91MOL   O13012910   5.285   0.059   4.762  0.1916 -0.0040  0.1203
   91MOL   H13112911   5.260   7.408   4.951  0.5752 -0.8708 -0.5283
   91MOL   H13212912   5.425   7.417   5.020 -0.8783 -0.5301  0.1138
   91MOL   H13312913   5.458   0.101   4.869  0.8647 -1.6383  1.2180
   91MOL   H13412914   5.337   0.022   4.691  2.7929  0.8251  1.5474
   91MOL   C13512915   5.288   0.151   4.980 -0.3247  0.0762 -0.5159
   91MOL   C13612916   5.346   0.152   5.122  0.7408  0.3303  0.2396
   91MOL   O13712917   5.261   0.211   5.210 -0.0223  0.1278  0.5695
   91MOL   H13812918   5.288   0.250   4.935 -0.0472 -0.0356 -0.7602
   91MOL   H13912919   5.180   0.134   4.983 -0.2699 -0.1579  0.6343
   91MOL   H14012920   5.447   0.193   5.124  1.2391 -0.8695  0.7243
   91MOL   H14112921   5.217   0.288   5.177  0.8799  0.1819 -0.5333
   91MOL   H14212922   5.363   0.051   5.161 -1.2483 -1.3818 -3.0748
   92MOL     C112923   5.091   4.140   2.810 -0.0422 -0.2788  0.3257
   92MOL     C212924   5.007   4.126   2.688  0.1623  0.0052 -0.4502
   92MOL     O312925   4.979   4.257   2.639  0.0601 -0.2046 -0.1736
   92MOL     H412926   5.098   4.039   2.851  2.7155 -0.5966 -0.7984
   92MOL     H512927   5.025   4.189   2.881 -1.1256  2.9317 -2.7626
   92MOL     H612928   4.916   4.078   2.724  0.9158 -2.4448 -1.6457
   92MOL     H712929   4.934   4.252   2.556  0.4216  0.0350 -0.3824
   92MOL     H812930   5.189   4.185   2.791 -0.8289  1.4706  0.3606
   92MOL     C912931   5.073   4.044   2.576 -0.0813 -0.0683 -0.7279
   92MOL    C1012932   5.121   3.906   2.621 -0.5622  0.5366 -0.3661
   92MOL    O1112933   5.018   3.818   2.669  0.4515  0.1523  0.2226
   92MOL    H1212934   5.018   4.028   2.483 -0.7773  1.1049 -0.5237
   92MOL    H1312935   5.157   4.103   2.540 -0.0184  0.7089  0.6636
   92MOL    H1412936   5.192   3.931   2.700 -0.1535 -2.4106  0.2519
   92MOL    H1512937   5.029   3.812   2.763  2.8389  2.9118  0.1834
   92MOL    C1612938   5.189   3.840   2.501 -0.5389 -0.3586 -0.3939
   92MOL    C1712939   5.295   3.731   2.535 -0.3667  0.4292 -0.0609
   92MOL    O1812940   5.329   3.681   2.413 -0.0823  0.1332 -0.4591
   92MOL    H1912941   5.108   3.789   2.448 -0.7271 -1.3619  0.8222
   92MOL    H2012942   5.226   3.912   2.429  2.6259 -0.1542  1.3130
   92MOL    H2112943   5.253   3.648   2.591 -1.7757 -0.0812 -1.8279
   92MOL    H2212944   5.299   3.591   2.417 -0.3501  0.2850  1.8031
   92MOL    C2312945   5.419   3.780   2.601 -0.1564  0.1757 -0.2085
   92MOL    C2412946   5.525   3.668   2.636 -0.4124  0.1485  0.1808
   92MOL    O2512947   5.656   3.722   2.679 -0.5902 -0.9716 -0.1957
   92MOL    H2612948   5.456   3.868   2.549  0.3305  0.0537 -0.0795
   92MOL    H2712949   5.386   3.812   2.699 -0.1671  0.7979 -0.4147
   92MOL    H2812950   5.551   3.620   2.542  0.6156  0.0355  0.5192
   92MOL    H2912951   5.722   3.656   2.666  0.3058 -0.0017 -0.5788
   92MOL    C3012952   5.477   3.560   2.739 -0.2069 -0.1852  0.4428
   92MOL    C3112953   5.511   3.415   2.732 -0.0737  0.2283  0.4173
   92MOL    O3212954   5.638   3.412   2.791 -0.0307  0.1724  0.0593
   92MOL    H3312955   5.492   3.599   2.840 -1.9433 -0.0326  0.6518
   92MOL    H3412956   5.369   3.551   2.742 -0.3596  0.9303 -1.3649
   92MOL    H3512957   5.512   3.402   2.624  2.3435 -3.8869  0.8316
   92MOL    H3612958   5.682   3.337   2.754 -0.1787 -0.6668  1.5406
   92MOL    C3712959   5.403   3.325   2.800 -0.5255 -0.3013  0.9984
   92MOL    C3812960   5.448   3.171   2.790  0.8577 -0.1544  0.3204
   92MOL    O3912961   5.336   3.104   2.842 -0.0634 -0.0996  0.0431
   92MOL    H4012962   5.384   3.351   2.904 -0.5192 -0.2115  0.9770
   92MOL    H4112963   5.307   3.339   2.751  0.7815  0.1433 -1.5155
   92MOL    H4212964   5.535   3.147   2.851 -0.9807 -2.1214  2.2416
   92MOL    H4312965   5.333   3.011   2.825 -0.7500 -0.5057  2.2851
   92MOL    C4412966   5.462   3.130   2.639  0.0779  0.4469  0.6158
   92MOL    C4512967   5.496   2.985   2.616  0.0671  0.7628 -0.0143
   92MOL    O4612968   5.468   2.950   2.478 -0.5612  0.9781 -0.3566
   92MOL    H4712969   5.374   3.165   2.584 -0.0040  0.3140  0.6636
   92MOL    H4812970   5.547   3.184   2.597 -0.6251  0.7390 -0.4625
   92MOL    H4912971   5.418   2.922   2.659  1.7490 -1.1774  0.2812
   92MOL    H5012972   5.533   2.991   2.423 -0.8787  0.1636 -1.3495
   92MOL    C5112973   5.637   2.938   2.659  0.5317  0.4728  0.2785
   92MOL    C5212974   5.673   2.792   2.615 -0.3300  0.6865  0.2702
   92MOL    O5312975   5.810   2.770   2.650 -0.2759  0.3831  0.0856
   92MOL    H5412976   5.715   2.998   2.611  0.7535  0.8609  1.1219
   92MOL    H5512977   5.647   2.952   2.766 -1.7404 -0.2114  0.6124
   92MOL    H5612978   5.658   2.766   2.510  1.5197 -0.1580  0.1870
   92MOL    H5712979   5.869   2.779   2.576  1.0997 -1.7596  0.8693
   92MOL    C5812980   5.581   2.692   2.696  0.1194 -0.4051 -0.4179
   92MOL    C5912981   5.620   2.547   2.687  0.2561  0.7833 -0.0379
   92MOL    O6012982   5.736   2.539   2.763  0.2055 -0.2828  0.2812
   92MOL    H6112983   5.581   2.720   2.801  1.2718  1.0475 -0.7966
   92MOL    H6212984   5.477   2.703   2.666  0.2938 -1.6750 -1.6001
   92MOL    H6312985   5.630   2.515   2.584  1.4467  0.2495  0.2330
   92MOL    H6412986   5.776   2.621   2.738 -0.9026 -0.4143 -2.0555
   92MOL    C6512987   5.509   2.458   2.743 -0.3310  0.0119 -0.2954
   92MOL    C6612988   5.527   2.303   2.723 -0.6617 -0.1308 -0.2463
   92MOL    O6712989   5.423   2.241   2.793 -0.5750 -0.3679  0.4572
   92MOL    H6812990   5.500   2.479   2.849  0.2998 -0.4602 -0.1509
   92MOL    H6912991   5.415   2.490   2.697  0.7589 -0.0318 -2.6195
   92MOL    H7012992   5.612   2.255   2.772 -0.1166 -0.7412 -1.7441
   92MOL    H7112993   5.429   2.249   2.887 -2.4474 -0.4568  0.6045
   92MOL    C7212994   5.531   2.258   2.571  0.1536  0.8548  0.0687
   92MOL    C7312995   5.535   2.103   2.562 -0.1123  0.2717  0.6487
   92MOL    O7412996   5.497   2.044   2.442 -0.0722  0.1255 -0.1749
   92MOL    H7512997   5.436   2.292   2.530 -0.2799  0.2204  0.5486
   92MOL    H7612998   5.606   2.308   2.510  0.0496  1.3107  0.3116
   92MOL    H7712999   5.473   2.052   2.636 -0.2491 -0.7376 -0.1467
   92MOL    H7813000   5.415   1.998   2.450 -0.0574  0.4853  2.4580
   92MOL    C7913001   5.666   2.033   2.599 -0.2942  0.0129 -0.0266
   92MOL    C8013002   5.659   1.890   2.654 -0.0600 -0.3716  0.0998
   92MOL    O8113003   5.789   1.839   2.643  0.5083 -0.0603  0.2604
   92MOL    H8213004   5.728   2.037   2.510  0.8826 -0.5460  0.7651
   92MOL    H8313005   5.719   2.098   2.669 -0.4699 -0.6529  0.7424
   92MOL    H8413006   5.591   1.830   2.594 -0.2718 -0.0234 -0.0099
   92MOL    H8513007   5.841   1.882   2.710  2.0139  1.9245 -2.0966
   92MOL    C8613008   5.602   1.871   2.798 -0.0698 -0.2156  0.5063
   92MOL    C8713009   5.624   1.729   2.858  0.3338  0.5066 -1.0182
   92MOL    O8813010   5.599   1.723   2.999 -0.1771 -0.0390 -0.0071
   92MOL    H8913011   5.642   1.945   2.867 -0.0413  0.5081 -0.2776
   92MOL    H9013012   5.495   1.889   2.788  0.6264  1.7905 -4.5078
   92MOL    H9113013   5.730   1.708   2.854  0.3579  0.6277 -1.0045
   92MOL    H9213014   5.527   1.783   3.012  0.4218  0.3786  1.3715
   92MOL    C9313015   5.540   1.620   2.786 -0.3055 -0.2302  0.3876
   92MOL    C9413016   5.581   1.471   2.811  0.2026 -0.5515  0.6822
   92MOL    O9513017   5.487   1.378   2.755  0.0680 -0.2264  0.5640
   92MOL    H9613018   5.439   1.640   2.823  0.4278  1.0664  1.7111
   92MOL    H9713019   5.532   1.637   2.679 -0.5320  2.0847  0.7429
   92MOL    H9813020   5.581   1.457   2.919 -0.0274  1.8894  1.0258
   92MOL    H9913021   5.520   1.291   2.770 -1.6047 -0.9656  0.1426
   92MOL   C10013022   5.723   1.425   2.770  0.5110  0.2914  0.3259
   92MOL   C10113023   5.776   1.296   2.839  0.4809  0.2722 -0.4605
   92MOL   O10213024   5.679   1.194   2.819 -0.3000 -0.5966 -0.2070
   92MOL   H10313025   5.706   1.409   2.663  2.5914 -2.8977  0.4014
   92MOL   H10413026   5.798   1.501   2.790  1.5871 -1.1851  2.0967
   92MOL   H10513027   5.777   1.309   2.947  1.2465  1.5004 -0.6029
   92MOL   H10613028   5.689   1.126   2.884 -3.6878 -0.7971  0.2071
   92MOL   C10713029   5.910   1.230   2.800 -0.2789 -0.4660  0.3222
   92MOL   C10813030   6.039   1.290   2.856  0.2991  0.1377  0.2101
   92MOL   O10913031   6.145   1.204   2.813 -0.3402 -0.1954 -0.1673
   92MOL   H11013032   5.913   1.122   2.819  2.9561 -0.4948 -0.0284
   92MOL   H11113033   5.918   1.226   2.691  1.1180  0.6426  0.3681
   92MOL   H11213034   6.045   1.293   2.965  0.6083 -2.3054  0.2934
   92MOL   H11313035   6.139   1.116   2.847  0.7043 -1.2394 -2.5683
   92MOL   C11413036   6.074   1.426   2.798 -0.6186 -0.1388  0.6253
   92MOL   C11513037   6.058   1.547   2.889 -0.0287 -0.4804  0.2421
   92MOL   O11613038   6.144   1.559   3.002 -0.1061 -0.6936  0.5360
   92MOL   H11713039   6.181   1.431   2.776 -0.2700 -0.3707  2.2031
   92MOL   H11813040   6.032   1.444   2.699  0.6969  0.5619  0.1852
   92MOL   H11913041   5.961   1.554   2.940 -0.0826 -0.4678  0.1366
   92MOL   H12013042   6.096   1.606   3.069 -0.1080  0.5542 -0.3410
   92MOL   C12113043   6.063   1.688   2.813  0.0432 -0.1272  0.1782
   92MOL   C12213044   6.177   1.725   2.712  0.5211 -0.1790 -0.1167
   92MOL   O12313045   6.156   1.853   2.663  0.5133 -1.0723  0.3840
   92MOL   H12413046   5.975   1.683   2.748  1.6406  0.0434 -2.0669
   92MOL   H12513047   6.046   1.766   2.887 -2.7883 -0.9539  0.4458
   92MOL   H12613048   6.186   1.659   2.626  0.6571  0.0125 -0.2494
   92MOL   H12713049   6.127   1.849   2.573 -2.0813 -1.1142  1.1989
   92MOL   C12813050   6.316   1.725   2.785 -0.2018  0.4523 -0.5031
   92MOL   C12913051   6.443   1.759   2.705 -0.6705 -0.4793 -0.0791
   92MOL   O13013052   6.550   1.780   2.801  0.1573 -0.0419 -0.1071
   92MOL   H13113053   6.311   1.789   2.873  1.4195  1.9727 -1.4902
   92MOL   H13213054   6.331   1.626   2.828 -1.0950  0.4068 -0.2759
   92MOL   H13313055   6.435   1.850   2.646  1.7050  0.1225  0.4814
   92MOL   H13413056   6.530   1.861   2.844  0.4795  0.6055 -1.1604
   92MOL   C13513057   6.496   1.648   2.619  0.1226 -0.0010  0.6266
   92MOL   C13613058   6.550   1.516   2.683 -0.5635  0.2349 -0.4756
   92MOL   O13713059   6.600   1.426   2.594  0.1786  0.2712 -0.0834
   92MOL   H13813060   6.429   1.613   2.540 -0.4542 -1.0616  1.5772
   92MOL   H13913061   6.584   1.694   2.575  1.1205  1.0887  3.6947
   92MOL   H14013062   6.476   1.476   2.753  1.3576 -0.1961  1.3705
   92MOL   H14113063   6.522   1.397   2.548  0.9120 -1.6743 -0.1410
   92MOL   H14213064   6.631   1.548   2.748  0.8265 -2.1881 -0.9529
   93MOL     C113065   5.054   6.184   4.805 -0.8127  0.2767 -0.0401
   93MOL     C213066   5.175   6.257   4.747  0.0321 -0.7274 -0.3900
   93MOL     O313067   5.235   6.165   4.663 -1.1909 -0.1425  0.1434
   93MOL     H413068   5.092   6.089   4.845  1.2663  1.5087  1.0318
   93MOL     H513069   4.974   6.170   4.733 -1.7372  1.2756  0.7767
   93MOL     H613070   5.249   6.276   4.825 -2.3625  0.2814  1.7312
   93MOL     H713071   5.328   6.175   4.677 -1.1543  0.3480 -0.4378
   93MOL     H813072   5.007   6.233   4.890 -1.1955  0.1527 -0.1821
   93MOL     C913073   5.152   6.391   4.670  0.2532  0.0732 -0.1038
   93MOL    C1013074   5.070   6.479   4.760  0.3789  0.3083 -0.0743
   93MOL    O1113075   5.145   6.499   4.875 -0.1666  0.0973  0.1312
   93MOL    H1213076   5.246   6.439   4.644 -0.7004  1.2881 -1.3922
   93MOL    H1313077   5.107   6.366   4.574  0.3643 -0.5760  0.0140
   93MOL    H1413078   4.972   6.446   4.793  0.3339 -1.9796 -2.3967
   93MOL    H1513079   5.099   6.567   4.922  0.2681  2.3254 -2.5138
   93MOL    C1613080   5.053   6.616   4.698 -0.3519  0.6408  0.4190
   93MOL    C1713081   4.931   6.693   4.752  0.5847  0.1432  0.3228
   93MOL    O1813082   4.938   6.685   4.889  0.1564 -0.2924 -0.1350
   93MOL    H1913083   5.149   6.668   4.693 -0.0088  0.0217  0.5671
   93MOL    H2013084   5.021   6.603   4.595  1.0679 -2.8167  0.3713
   93MOL    H2113085   4.833   6.665   4.714  0.1147 -1.1491  2.4285
   93MOL    H2213086   4.855   6.703   4.929  1.0065  1.4606  0.8682
   93MOL    C2313087   4.926   6.842   4.711  0.1323  0.7851  0.2674
   93MOL    C2413088   4.927   6.866   4.559  0.6822  0.4259  0.0641
   93MOL    O2513089   4.806   6.805   4.498 -0.1257 -0.0181  1.0905
   93MOL    H2613090   4.839   6.888   4.759 -0.1773 -1.0316  1.4910
   93MOL    H2713091   5.018   6.890   4.746  1.3206  0.2126 -2.0268
   93MOL    H2813092   5.017   6.815   4.523 -0.2086 -0.9610 -0.2277
   93MOL    H2913093   4.826   6.716   4.474  0.0263  0.7585 -1.9120
   93MOL    C3013094   4.937   7.010   4.514 -0.5763  0.0121  0.7306
   93MOL    C3113095   5.076   7.077   4.556 -0.2830 -0.4371  0.5761
   93MOL    O3213096   5.139   7.111   4.438 -0.2384 -0.5768  0.4770
   93MOL    H3313097   4.923   7.010   4.406 -1.6941 -0.2431  0.8645
   93MOL    H3413098   4.861   7.079   4.551  0.4529  1.2143  0.6348
   93MOL    H3513099   5.141   7.010   4.613 -0.4107  0.2742  1.5671
   93MOL    H3613100   5.172   7.039   4.386  0.3155  0.2945 -0.3887
   93MOL    C3713101   5.060   7.218   4.626 -0.1697 -0.2158  0.1665
   93MOL    C3813102   5.011   7.203   4.777 -0.2104  0.0261 -0.4503
   93MOL    O3913103   5.125   7.150   4.847  0.4200  0.0124 -0.1856
   93MOL    H4013104   5.158   7.264   4.625 -0.0744 -0.4212 -1.3944
   93MOL    H4113105   4.989   7.282   4.573 -2.3235 -1.3915  1.5710
   93MOL    H4213106   4.919   7.146   4.791  0.6707 -1.4447 -0.4847
   93MOL    H4313107   5.096   7.117   4.931 -0.6292 -1.7693 -1.2225
   93MOL    C4413108   4.977   7.338   4.837 -0.5493 -0.1059 -0.7169
   93MOL    C4513109   4.959   7.340   4.994  0.4130 -1.0142 -0.7547
   93MOL    O4613110   4.927   7.468   5.045  0.4148  0.1797 -0.2032
   93MOL    H4713111   5.050   7.415   4.813 -0.9702  0.8161  0.9111
   93MOL    H4813112   4.891   7.383   4.789  0.1198  1.2039 -0.6904
   93MOL    H4913113   5.053   7.312   5.041 -0.1899  1.4671  2.1082
   93MOL    H5013114   4.867   7.456   5.117  1.2525 -1.2120  0.2819
   93MOL    C5113115   4.846   7.244   5.036  0.1542 -0.5263  0.6024
   93MOL    C5213116   4.820   7.241   5.192  0.4297 -0.0404 -0.3605
   93MOL    O5313117   4.767   7.365   5.237 -0.0264 -0.0735 -0.0976
   93MOL    H5413118   4.755   7.280   4.988  1.3321  0.8252 -0.6199
   93MOL    H5513119   4.864   7.145   4.994  0.8532  0.5751 -1.7801
   93MOL    H5613120   4.917   7.227   5.242  0.1745 -2.5234 -0.4711
   93MOL    H5713121   4.676   7.346   5.254  0.2807 -3.7566 -2.1054
   93MOL    C5813122   4.718   7.132   5.237 -0.4892 -0.2423  0.3549
   93MOL    C5913123   4.788   6.995   5.230  0.3865  0.3659 -0.1127
   93MOL    O6013124   4.896   6.978   5.307  0.3990 -0.3268 -0.1426
   93MOL    H6113125   4.688   7.155   5.339  2.1463  4.1895  0.2331
   93MOL    H6213126   4.630   7.126   5.173  0.7460  0.3425 -1.4443
   93MOL    H6313127   4.832   6.979   5.131  0.8008 -0.6098  0.2212
   93MOL    H6413128   4.872   6.992   5.398  0.7790 -2.4398  0.3038
   93MOL    C6513129   4.699   6.863   5.244 -0.6738 -0.3801  0.2880
   93MOL    C6613130   4.625   6.851   5.379  0.5295 -0.3316 -0.1964
   93MOL    O6713131   4.517   6.948   5.398  0.3128 -0.4572  0.1550
   93MOL    H6813132   4.627   6.873   5.163 -1.0025 -0.8500  0.5225
   93MOL    H6913133   4.749   6.772   5.211 -0.9662  0.5421 -2.8990
   93MOL    H7013134   4.696   6.873   5.459 -0.1259  2.2046 -0.2648
   93MOL    H7113135   4.461   6.899   5.456  1.0712 -2.4820 -0.8133
   93MOL    C7213136   4.576   6.701   5.399  0.1327 -0.0853  0.2920
   93MOL    C7313137   4.501   6.682   5.529 -0.7696 -0.0528 -0.0498
   93MOL    O7413138   4.379   6.757   5.540  0.1164  0.6422 -0.0279
   93MOL    H7513139   4.506   6.666   5.323  1.6795  0.3498 -1.3556
   93MOL    H7613140   4.661   6.634   5.411 -0.0245 -0.2964  0.2271
   93MOL    H7713141   4.572   6.700   5.611 -0.8408  1.1868 -0.2507
   93MOL    H7813142   4.364   6.794   5.625 -4.1137  0.1333 -0.4337
   93MOL    C7913143   4.464   6.539   5.544 -1.0066 -0.8637 -0.1530
   93MOL    C8013144   4.575   6.439   5.543 -0.5261 -0.3882  0.4348
   93MOL    O8113145   4.550   6.322   5.631  0.4412  0.1021  0.1611
   93MOL    H8213146   4.399   6.531   5.632  1.9574 -1.6734  2.0452
   93MOL    H8313147   4.405   6.509   5.458 -0.0951 -1.7971 -0.4666
   93MOL    H8413148   4.656   6.504   5.579 -3.0375  2.6182  0.8869
   93MOL    H8513149   4.616   6.258   5.607 -0.7465  0.5309 -4.5968
   93MOL    C8613150   4.613   6.375   5.408  0.0761 -0.0958  0.3599
   93MOL    C8713151   4.759   6.331   5.391  0.3503  0.2817  0.5085
   93MOL    O8813152   4.819   6.266   5.507  0.3438  0.7324 -0.5357
   93MOL    H8913153   4.545   6.293   5.386 -0.6927 -0.1162  2.6867
   93MOL    H9013154   4.587   6.443   5.326 -2.1506 -0.9987  0.2799
   93MOL    H9113155   4.814   6.425   5.397 -1.3005  1.1856  1.9006
   93MOL    H9213156   4.909   6.241   5.493 -0.5001 -0.8815 -3.2998
   93MOL    C9313157   4.767   6.253   5.257 -0.0697 -0.1342 -0.3553
   93MOL    C9413158   4.747   6.321   5.125 -0.0662 -0.6307  0.7501
   93MOL    O9513159   4.840   6.427   5.114 -0.0778  0.1509 -0.0131
   93MOL    H9613160   4.868   6.212   5.256 -0.3528 -0.8303 -0.3780
   93MOL    H9713161   4.698   6.170   5.272 -1.2001  1.2077  1.9261
   93MOL    H9813162   4.656   6.379   5.111  0.6095  0.0719 -0.9115
   93MOL    H9913163   4.798   6.485   5.052 -1.8090  1.1008  1.9510
   93MOL   C10013164   4.756   6.224   5.008 -0.2862 -0.6860 -0.4692
   93MOL   C10113165   4.632   6.140   4.983  0.3355 -0.4515 -0.7179
   93MOL   O10213166   4.535   6.230   4.933 -0.2677 -0.2061  0.0451
   93MOL   H10313167   4.775   6.276   4.914 -1.0379  1.6776  0.6382
   93MOL   H10413168   4.845   6.163   5.017  0.9741  0.9767 -1.3643
   93MOL   H10513169   4.596   6.096   5.076  0.2651  0.4618 -0.3087
   93MOL   H10613170   4.462   6.248   4.990 -0.9686  1.2149 -1.2646
   93MOL   C10713171   4.659   6.024   4.883 -0.3960 -0.2860  0.0888
   93MOL   C10813172   4.537   5.929   4.880  0.1637  0.3442  0.4327
   93MOL   O10913173   4.555   5.838   4.776 -0.0270 -0.0365  0.6219
   93MOL   H11013174   4.694   6.050   4.783 -0.4860  0.0864  0.1528
   93MOL   H11113175   4.748   5.975   4.923 -0.3030 -0.7598 -0.6951
   93MOL   H11213176   4.446   5.989   4.873 -0.3345 -0.7065 -3.3642
   93MOL   H11313177   4.477   5.784   4.778  0.8769 -1.3907 -0.3001
   93MOL   C11413178   4.519   5.832   5.005 -0.5027 -0.4434  0.0179
   93MOL   C11513179   4.380   5.782   5.024 -0.5988 -0.3849  0.6193
   93MOL   O11613180   4.339   5.703   4.913 -0.0110 -0.4826 -0.4327
   93MOL   H11713181   4.580   5.741   5.002  0.4305  0.1757 -0.1930
   93MOL   H11813182   4.548   5.883   5.097 -1.8491  0.8302 -0.2591
   93MOL   H11913183   4.313   5.867   5.031 -0.8845 -0.5369 -0.2465
   93MOL   H12013184   4.396   5.628   4.909 -0.4349 -0.9277  1.3280
   93MOL   C12113185   4.358   5.709   5.157 -0.3272  0.1238  0.5686
   93MOL   C12213186   4.210   5.669   5.185  0.4654 -0.0906  0.1646
   93MOL   O12313187   4.212   5.543   5.256 -0.1833 -0.5905  0.2510
   93MOL   H12413188   4.421   5.620   5.147  0.6538  0.8596  0.1083
   93MOL   H12513189   4.401   5.762   5.241  0.0043 -1.9195  1.7271
   93MOL   H12613190   4.154   5.654   5.092 -0.8555  1.1416  0.7356
   93MOL   H12713191   4.123   5.510   5.254 -0.7594  0.9880 -2.6760
   93MOL   C12813192   4.113   5.757   5.274  0.3886  0.8113  0.2038
   93MOL   C12913193   4.116   5.905   5.239  1.0287 -0.0292  0.1316
   93MOL   O13013194   3.983   5.964   5.241  0.5492 -0.3739 -0.0860
   93MOL   H13113195   4.006   5.733   5.270  0.9504 -1.6878 -0.6677
   93MOL   H13213196   4.150   5.750   5.376  1.3810 -0.0008 -0.2110
   93MOL   H13313197   4.156   5.906   5.137  0.7447 -1.0935  0.0035
   93MOL   H13413198   3.978   6.028   5.172 -1.6210 -1.1198 -0.6667
   93MOL   C13513199   4.223   5.991   5.322  0.1193  0.6412  0.3266
   93MOL   C13613200   4.216   5.981   5.475  0.1249 -0.3113 -1.0463
   93MOL   O13713201   4.306   6.082   5.524 -0.0844 -0.3839 -0.6067
   93MOL   H13813202   4.325   5.971   5.291  0.7148  1.3078  1.7961
   93MOL   H13913203   4.206   6.094   5.290 -0.4811  0.5830  0.4412
   93MOL   H14013204   4.258   5.883   5.500  0.2987  0.3495  1.4163
   93MOL   H14113205   4.329   6.061   5.614  2.6136  0.8664 -0.9600
   93MOL   H14213206   4.116   5.996   5.516  0.6223 -0.0132  0.1015
   94MOL     C113207   0.301   0.209   1.237  0.4496 -0.2762 -1.1050
   94MOL     C213208   0.336   0.199   1.088 -0.0477 -0.0842  0.4049
   94MOL     O313209   0.365   0.326   1.041  0.1738 -0.1725 -0.4391
   94MOL     H413210   0.222   0.281   1.259 -0.2141 -1.3121 -0.0293
   94MOL     H513211   0.394   0.240   1.284 -0.3616  2.7461 -1.3380
   94MOL     H613212   0.246   0.154   1.047  1.0205 -0.4553 -1.5702
   94MOL     H713213   0.326   0.324   0.955 -0.0927 -1.3200 -0.2985
   94MOL     H813214   0.264   0.117   1.283 -0.2695  0.9369  0.8014
   94MOL     C913215   0.457   0.101   1.064  0.7340 -0.7869  0.0183
   94MOL    C1013216   0.443   7.476   1.106 -1.2441  0.2236  0.4319
   94MOL    O1113217   0.389   7.394   1.005  0.2269  0.1144  0.2634
   94MOL    H1213218   0.491   0.104   0.960 -3.1549  1.1719 -1.3053
   94MOL    H1313219   0.537   0.147   1.121 -0.3773  1.4859 -0.1910
   94MOL    H1413220   0.383   7.482   1.196 -0.0501  2.1581  1.1225
   94MOL    H1513221   0.295   7.399   0.993  0.1060  5.8812  2.0418
   94MOL    C1613222   0.576   7.414   1.153 -0.2019 -0.1585  0.2973
   94MOL    C1713223   0.561   7.287   1.246  0.1429 -0.1385  0.4660
   94MOL    O1813224   0.516   7.178   1.165  0.3861  0.4474  0.3445
   94MOL    H1913225   0.643   7.402   1.068 -0.9857  1.2011 -0.5312
   94MOL    H2013226   0.624   7.492   1.211  0.4193  0.0362 -0.4616
   94MOL    H2113227   0.509   7.314   1.338  2.0314 -0.9139  1.7981
   94MOL    H2213228   0.474   7.216   1.089  0.2088 -3.0716 -1.4136
   94MOL    C2313229   0.702   7.242   1.281 -0.3593  0.2192  0.3738
   94MOL    C2413230   0.721   7.164   1.412 -0.1158  0.9133 -0.2250
   94MOL    O2513231   0.845   7.087   1.397 -0.4067  0.4095 -0.9011
   94MOL    H2613232   0.757   7.194   1.200 -0.3157  0.2717  0.3726
   94MOL    H2713233   0.767   7.329   1.271  1.0613 -0.6474  1.6446
   94MOL    H2813234   0.650   7.082   1.417  1.9397 -0.9871 -1.1019
   94MOL    H2913235   0.827   7.012   1.343 -2.2582 -0.4556  0.8576
   94MOL    C3013236   0.711   7.236   1.547  0.2583 -0.0392  0.4633
   94MOL    C3113237   0.769   7.374   1.540 -0.2954 -0.4499 -0.8182
   94MOL    O3213238   0.658   7.458   1.509  0.2777 -0.7450 -0.7568
   94MOL    H3313239   0.607   7.244   1.577  0.2661  0.3046  0.3920
   94MOL    H3413240   0.758   7.188   1.633 -0.0004 -0.2578  0.4812
   94MOL    H3513241   0.844   7.378   1.461 -0.3365 -0.9036 -0.8830
   94MOL    H3613242   0.701   0.019   1.484 -2.0886  0.5509 -0.7428
   94MOL    C3713243   0.832   7.430   1.666  0.0778 -0.4490 -0.0328
   94MOL    C3813244   0.964   7.366   1.709 -0.5140  0.7724  0.2318
   94MOL    O3913245   1.073   7.419   1.635  0.3242  0.5050  0.4114
   94MOL    H4013246   0.845   0.017   1.649 -2.4417  0.0313  0.9136
   94MOL    H4113247   0.757   7.421   1.745  0.3175  0.0449  0.2493
   94MOL    H4213248   0.957   7.258   1.695  2.4082  0.7545 -1.4506
   94MOL    H4313249   1.074   7.385   1.547  1.2975  0.6849  0.3497
   94MOL    C4413250   1.000   7.395   1.859 -0.0505  0.1845 -0.0586
   94MOL    C4513251   1.125   7.328   1.921  0.2084  0.0304  0.1582
   94MOL    O4613252   1.125   7.352   2.063 -0.0237  0.6975  0.0180
   94MOL    H4713253   0.998   7.502   1.883  1.4951 -0.5148  3.3696
   94MOL    H4813254   0.919   7.356   1.920 -0.2850 -2.6182 -2.0638
   94MOL    H4913255   1.205   7.392   1.885  1.8681 -1.4421  1.1141
   94MOL    H5013256   1.202   7.404   2.079  1.6715 -1.2274 -1.5797
   94MOL    C5113257   1.145   7.175   1.889 -0.0531 -0.0598 -0.5406
   94MOL    C5213258   1.294   7.126   1.917  0.3690  0.1346 -0.2952
   94MOL    O5313259   1.305   6.990   1.889  0.0458 -0.3079  0.3881
   94MOL    H5413260   1.075   7.121   1.953 -1.0803 -0.7553 -2.2183
   94MOL    H5513261   1.108   7.158   1.788 -1.8669 -0.3744  0.1570
   94MOL    H5613262   1.310   7.141   2.024  1.2762 -0.7571 -0.2996
   94MOL    H5713263   1.393   6.961   1.911  0.7706  0.1830 -1.6834
   94MOL    C5813264   1.389   7.199   1.825 -0.7928 -0.5288  0.3137
   94MOL    C5913265   1.480   7.307   1.885 -0.2448 -0.8418  0.8151
   94MOL    O6013266   1.567   7.245   1.975 -0.2438 -0.5766 -0.6852
   94MOL    H6113267   1.453   7.118   1.790 -1.3343 -1.3742  1.2594
   94MOL    H6213268   1.334   7.242   1.741  0.2036  3.6874  1.6692
   94MOL    H6313269   1.417   7.380   1.935 -0.1062  0.2607 -0.5759
   94MOL    H6413270   1.532   7.245   2.063  0.5277  0.1131 -0.3675
   94MOL    C6513271   1.577   7.380   1.777  0.3684  0.8221 -0.3717
   94MOL    C6613272   1.512   7.447   1.659  0.6599 -0.2347 -0.1235
   94MOL    O6713273   1.409   0.007   1.705 -0.3975  0.1516 -0.0554
   94MOL    H6813274   1.645   7.447   1.830 -1.0182  1.4353  0.6441
   94MOL    H6913275   1.641   7.299   1.742 -1.3741 -0.1171 -1.4416
   94MOL    H7013276   1.449   7.375   1.607  0.1850 -2.0789  2.8314
   94MOL    H7113277   1.335   7.504   1.651  0.6474 -0.4463 -1.2756
   94MOL    C7213278   1.612   7.505   1.557  0.4928 -0.3765 -0.5959
   94MOL    C7313279   1.712   0.098   1.608 -0.1777 -0.3350 -0.2295
   94MOL    O7413280   1.812   0.113   1.507 -0.4423 -0.2080  0.2089
   94MOL    H7513281   1.668   7.420   1.518  1.4314  0.2621 -0.6660
   94MOL    H7613282   1.564   0.007   1.462 -0.0064 -0.1565 -0.2975
   94MOL    H7713283   1.764   0.064   1.697  2.1136  1.3501 -0.8670
   94MOL    H7813284   1.889   0.072   1.543 -0.4015  1.5752  2.2547
   94MOL    C7913285   1.647   0.233   1.633  0.3082  0.0236 -0.3572
   94MOL    C8013286   1.705   0.313   1.756 -0.0509 -0.2766  0.7736
   94MOL    O8113287   1.646   0.444   1.744 -0.3040  0.2971 -0.5892
   94MOL    H8213288   1.654   0.295   1.544  0.3573 -0.3170 -0.5916
   94MOL    H8313289   1.540   0.220   1.648  0.0906  2.1196  0.0609
   94MOL    H8413290   1.813   0.327   1.751 -0.0429 -0.0566  1.4908
   94MOL    H8513291   1.558   0.440   1.710 -0.7219  0.8829  0.4110
   94MOL    C8613292   1.660   0.247   1.886  0.1317 -0.3570  0.2777
   94MOL    C8713293   1.679   0.335   2.015  0.1350  0.4805  0.4660
   94MOL    O8813294   1.550   0.371   2.060 -0.1802  0.0760  0.6709
   94MOL    H8913295   1.554   0.224   1.890  0.3651 -1.5794 -0.2481
   94MOL    H9013296   1.701   0.146   1.883 -0.6850 -0.6785 -0.1530
   94MOL    H9113297   1.737   0.425   1.996  0.5429  0.2054  0.3882
   94MOL    H9213298   1.559   0.359   2.154  1.2837 -0.9677  0.4102
   94MOL    C9313299   1.767   0.274   2.133  0.4298  0.0566 -0.1601
   94MOL    C9413300   1.915   0.246   2.085  0.5298 -0.5538 -0.5930
   94MOL    O9513301   1.986   0.359   2.119 -0.0200 -0.0447 -0.0510
   94MOL    H9613302   1.767   0.349   2.213  3.4049 -0.9249  0.8229
   94MOL    H9713303   1.722   0.184   2.175  1.9588 -0.2349  0.8985
   94MOL    H9813304   1.911   0.244   1.976 -1.7083 -0.0839 -0.5590
   94MOL    H9913305   1.987   0.413   2.041 -0.9611 -1.2915 -0.9414
   94MOL   C10013306   1.989   0.131   2.141 -0.9129 -0.8128 -0.1057
   94MOL   C10113307   1.975   7.519   2.062  0.2324  0.0853  0.3891
   94MOL   O10213308   2.027   0.026   1.929  0.2570 -0.1347 -0.1294
   94MOL   H10313309   2.096   0.149   2.153 -0.7317 -1.4592 -0.7294
   94MOL   H10413310   1.966   0.116   2.246  0.8373 -1.2251  0.2415
   94MOL   H10513311   1.869   7.502   2.043 -0.1808  1.8612  0.9585
   94MOL   H10613312   2.111   0.068   1.938  1.1471 -1.3705 -2.1767
   94MOL   C10713313   2.030   7.397   2.128 -0.4294  0.5144 -0.1402
   94MOL   C10813314   2.023   7.261   2.047 -0.9662  0.4823 -0.4498
   94MOL   O10913315   2.034   7.158   2.143  0.2545  0.0617  0.1077
   94MOL   H11013316   2.133   7.405   2.165  0.3071 -1.4265 -1.6882
   94MOL   H11113317   1.972   7.385   2.219 -1.6664 -0.0480 -0.9903
   94MOL   H11213318   2.105   7.273   1.975 -0.5109 -0.0434 -0.0253
   94MOL   H11313319   2.099   7.186   2.206 -0.1691  0.8526  0.2077
   94MOL   C11413320   1.893   7.246   1.969 -0.0446 -0.1612  0.0247
   94MOL   C11513321   1.888   7.111   1.889 -0.1020  0.3928  0.1959
   94MOL   O11613322   1.757   7.099   1.841  0.7034 -0.1328  0.1083
   94MOL   H11713323   1.801   7.261   2.025  0.7144  1.4465  0.8868
   94MOL   H11813324   1.888   7.331   1.901  0.1680  1.9810  2.5921
   94MOL   H11913325   1.915   7.024   1.949 -1.6979  0.2355  0.7201
   94MOL   H12013326   1.708   7.153   1.901  0.4465 -0.1893 -0.0541
   94MOL   C12113327   1.993   7.110   1.775  0.3958 -0.1192  0.0937
   94MOL   C12213328   2.024   6.969   1.722  0.1091 -0.6646 -0.0681
   94MOL   O12313329   2.092   6.988   1.600 -0.0652 -0.0417  0.4314
   94MOL   H12413330   1.951   7.176   1.699  0.3808 -0.1917  0.0393
   94MOL   H12513331   2.087   7.150   1.811  0.8554 -1.0192 -0.0766
   94MOL   H12613332   1.934   6.915   1.694 -0.5712  0.3456  0.1806
   94MOL   H12713333   2.039   7.040   1.542  0.6201 -0.1832 -0.3234
   94MOL   C12813334   2.114   6.890   1.820  0.3312 -0.3723  0.3396
   94MOL   C12913335   2.160   6.750   1.775  1.2860 -0.2878 -0.3776
   94MOL   O13013336   2.290   6.708   1.816  0.3442 -0.0422 -0.3837
   94MOL   H13113337   2.199   6.946   1.859 -1.9090  1.7823  2.3315
   94MOL   H13213338   2.054   6.866   1.907  0.4357 -0.0115  0.5128
   94MOL   H13313339   2.174   6.765   1.668  1.8714  1.9173 -0.0195
   94MOL   H13413340   2.304   6.732   1.907  1.2994 -0.0761 -0.5170
   94MOL   C13513341   2.072   6.637   1.803  0.0152  0.0290 -0.0390
   94MOL   C13613342   2.090   6.530   1.695  0.1827 -0.4819 -0.6987
   94MOL   O13713343   1.999   6.430   1.725 -0.5099  0.1291  0.5370
   94MOL   H13813344   2.089   6.588   1.899  0.4628 -1.0800 -0.6852
   94MOL   H13913345   1.970   6.675   1.800  0.1245  0.3328  0.0347
   94MOL   H14013346   2.193   6.494   1.688  0.1828 -0.8927  1.1347
   94MOL   H14113347   2.035   6.349   1.757 -1.2810 -0.3478  0.2000
   94MOL   H14213348   2.041   6.569   1.606 -3.4296 -1.0583  0.9495
   95MOL     C113349   2.692   3.325   7.356  0.0253 -0.1715 -0.6653
   95MOL     C213350   2.624   3.454   7.328  0.1800  0.2621  0.3372
   95MOL     O313351   2.590   3.445   7.190  0.0550 -0.1151  0.2348
   95MOL     H413352   2.736   3.311   7.455  1.1325  1.9437 -0.8370
   95MOL     H513353   2.780   3.309   7.294 -0.3461 -0.6829 -1.0668
   95MOL     H613354   2.686   3.542   7.346 -0.3395  0.6470  0.2352
   95MOL     H713355   2.667   3.434   7.136 -1.8070 -1.6310 -2.2017
   95MOL     H813356   2.623   3.246   7.327 -0.1990 -0.2698  0.1220
   95MOL     C913357   2.493   3.467   7.404  0.0921  0.9406  0.1513
   95MOL    C1013358   2.495   3.472   0.044 -0.0955 -0.3349 -0.4784
   95MOL    O1113359   2.567   3.585   0.095  0.0632 -0.4261 -0.0286
   95MOL    H1213360   2.460   3.563   7.363 -1.4063  1.6170  2.7813
   95MOL    H1313361   2.422   3.395   7.364 -0.3787  1.1345  0.6351
   95MOL    H1413362   2.549   3.391   0.093  2.0990  0.0167 -2.2282
   95MOL    H1513363   2.659   3.569   0.111  0.0102 -0.6065  0.0951
   95MOL    C1613364   2.359   3.482   0.114  0.3565  0.2135 -0.0629
   95MOL    C1713365   2.292   3.341   0.135  0.3227 -0.0534 -0.3420
   95MOL    O1813366   2.177   3.374   0.213  0.3651 -0.4093  0.0707
   95MOL    H1913367   2.369   3.534   0.209  1.4518 -0.8217  0.4100
   95MOL    H2013368   2.295   3.543   0.050 -1.7557  0.9425  2.6739
   95MOL    H2113369   2.347   3.290   0.214  0.6939 -0.0115 -0.5729
   95MOL    H2213370   2.202   3.395   0.302  0.0723  0.3185 -0.0200
   95MOL    C2313371   2.251   3.259   0.012 -0.4127 -0.4852 -0.7832
   95MOL    C2413372   2.185   3.120   0.045 -0.2462 -0.4017 -0.2418
   95MOL    O2513373   2.074   3.132   0.134 -0.2471 -0.5314  0.0744
   95MOL    H2613374   2.182   3.319   7.471  0.1566  1.0438  0.0442
   95MOL    H2713375   2.346   3.246   7.480  0.9257  0.2584  1.4282
   95MOL    H2813376   2.252   3.049   0.093 -0.0959 -0.2609 -0.2445
   95MOL    H2913377   2.076   3.221   0.165 -3.5707 -0.6693  0.8315
   95MOL    C3013378   2.138   3.046   7.441  0.4982 -0.1180  0.8785
   95MOL    C3113379   2.238   2.991   7.337 -0.5574  0.0513  0.1658
   95MOL    O3213380   2.316   2.879   7.387 -0.4317  0.0897  0.2245
   95MOL    H3313381   2.078   2.965   7.482 -0.3438 -0.6959 -1.4187
   95MOL    H3413382   2.058   3.107   7.398  1.7159  0.3092 -0.8462
   95MOL    H3513383   2.310   3.068   7.312 -1.4458  0.5183 -0.9809
   95MOL    H3613384   2.393   2.921   7.421 -0.3442 -0.7239  1.0227
   95MOL    C3713385   2.174   2.945   7.205  0.5086  0.0112 -0.4961
   95MOL    C3813386   2.146   3.077   7.119 -0.2954 -0.0707  0.1982
   95MOL    O3913387   2.273   3.127   7.075  0.1422  0.0442  0.1431
   95MOL    H4013388   2.242   2.877   7.153  0.5175  0.9794 -1.7657
   95MOL    H4113389   2.082   2.890   7.224  1.4927 -1.4115  0.2449
   95MOL    H4213390   2.104   3.153   7.185 -0.7387  0.9716 -1.2758
   95MOL    H4313391   2.267   3.222   7.078 -0.9876  0.0826 -2.1010
   95MOL    C4413392   2.048   3.047   7.001 -0.8172 -0.5372  0.1531
   95MOL    C4513393   1.899   3.051   7.037  0.8389 -0.5176 -0.1480
   95MOL    O4613394   1.870   3.185   7.076  0.0890 -0.2144  0.5221
   95MOL    H4713395   2.060   3.111   6.914 -1.8813  1.2903  1.3280
   95MOL    H4813396   2.057   2.944   6.964  0.9196  0.8348 -3.5729
   95MOL    H4913397   1.867   2.979   7.112 -1.1323  0.4571 -0.0175
   95MOL    H5013398   1.795   3.183   7.133 -1.5437  1.5791 -1.4661
   95MOL    C5113399   1.819   3.019   6.912  0.3865  0.1267 -0.2587
   95MOL    C5213400   1.665   3.031   6.922  1.3450 -0.3278 -0.3790
   95MOL    O5313401   1.603   3.035   6.795  0.1454  0.0469  0.3096
   95MOL    H5413402   1.853   3.090   6.838 -0.3906  0.0793 -0.6626
   95MOL    H5513403   1.850   2.920   6.879  1.0901 -0.7990  2.9337
   95MOL    H5613404   1.631   3.123   6.968  0.6673 -3.0901  5.0693
   95MOL    H5713405   1.655   3.077   6.729  0.4553 -2.2684 -0.9572
   95MOL    C5813406   1.603   2.907   6.991 -0.5778 -0.2424 -0.0142
   95MOL    C5913407   1.451   2.927   7.026  0.3139 -0.7392  0.4093
   95MOL    O6013408   1.376   2.922   6.906 -0.1509 -0.0001 -0.1077
   95MOL    H6113409   1.609   2.815   6.933  1.4216 -1.1468  1.5656
   95MOL    H6213410   1.654   2.883   7.084 -1.3730 -3.3521 -0.3219
   95MOL    H6313411   1.431   3.026   7.066  1.0400 -0.6614  0.5939
   95MOL    H6413412   1.434   2.923   6.832 -1.3191  1.8152 -1.0410
   95MOL    C6513413   1.390   2.807   7.108  0.3526 -0.5876  0.0652
   95MOL    C6613414   1.436   2.792   7.251 -0.7331 -0.4845 -0.0316
   95MOL    O6713415   1.461   2.916   7.312 -0.8252  0.0177  0.1537
   95MOL    H6813416   1.288   2.847   7.112  0.6287  0.3097 -1.2937
   95MOL    H6913417   1.396   2.715   7.049  1.0022 -0.4852 -0.0359
   95MOL    H7013418   1.523   2.728   7.235 -0.6040 -0.0125 -1.2778
   95MOL    H7113419   1.379   2.962   7.308 -0.2369  1.1188  0.2893
   95MOL    C7213420   1.322   2.718   7.322  0.2020  0.0225  0.3607
   95MOL    C7313421   1.351   2.685   7.471  0.3547  0.4975 -1.0054
   95MOL    O7413422   1.234   2.621   0.011 -0.3180  0.3334  0.8247
   95MOL    H7513423   1.235   2.783   7.322  0.5929  0.5727 -0.9438
   95MOL    H7613424   1.292   2.625   7.273 -0.5434  0.8162 -0.7093
   95MOL    H7713425   1.366   2.780   0.002 -0.3294  0.1800 -0.1984
   95MOL    H7813426   1.191   2.558   7.476 -1.1438  0.5685  1.2084
   95MOL    C7913427   1.474   2.610   7.510  0.1908  0.2022  0.3452
   95MOL    C8013428   1.486   2.579   0.139  0.5258  0.7371 -0.4433
   95MOL    O8113429   1.601   2.493   0.154 -0.0057 -0.2991 -0.0382
   95MOL    H8213430   1.481   2.514   7.457 -2.0440 -0.2048  0.7350
   95MOL    H8313431   1.555   2.664   7.461  1.3851 -0.8354  1.1528
   95MOL    H8413432   1.402   2.521   0.179  0.5682  0.5567 -0.6149
   95MOL    H8513433   1.660   2.521   0.222  1.2768 -2.5874 -0.1508
   95MOL    C8613434   1.492   2.701   0.229 -0.2348 -0.1141  0.3727
   95MOL    C8713435   1.590   2.812   0.192  0.1001 -0.0379  0.9516
   95MOL    O8813436   1.554   2.939   0.254 -0.0652  0.6347 -0.5032
   95MOL    H8913437   1.389   2.736   0.231 -0.1264  0.2455 -0.1423
   95MOL    H9013438   1.515   2.663   0.328  0.5282  1.5728  0.8551
   95MOL    H9113439   1.566   2.836   0.089 -1.2458 -1.7669  0.8383
   95MOL    H9213440   1.460   2.949   0.245 -0.4062 -1.2620  0.7393
   95MOL    C9313441   1.740   2.785   0.195 -0.1435  0.8127  0.4191
   95MOL    C9413442   1.816   2.728   0.318  0.1930  0.4002 -0.8671
   95MOL    O9513443   1.770   2.599   0.347 -0.1697  0.0191  0.0160
   95MOL    H9613444   1.751   2.719   0.110 -2.3426 -0.2236  0.9034
   95MOL    H9713445   1.796   2.867   0.150  2.9894 -1.0338  0.8317
   95MOL    H9813446   1.806   2.795   0.404 -0.0272 -0.1684 -0.4425
   95MOL    H9913447   1.755   2.583   0.439  1.4151 -2.8983 -0.1849
   95MOL   C10013448   1.971   2.699   0.286  0.0562 -0.3805  0.9604
   95MOL   C10113449   2.061   2.804   0.218  0.4123  0.3163  0.1903
   95MOL   O10213450   2.074   2.919   0.295 -0.4772 -0.1535 -0.1868
   95MOL   H10313451   2.013   2.696   0.387  2.1123 -0.0915  0.1501
   95MOL   H10413452   1.986   2.602   0.238  1.3477  1.0961 -1.7182
   95MOL   H10513453   2.012   2.834   0.126 -0.6167 -0.9448  0.3070
   95MOL   H10613454   2.044   2.989   0.238  2.9064  0.4684 -1.2638
   95MOL   C10713455   2.199   2.747   0.169 -0.3469 -0.9674 -0.5335
   95MOL   C10813456   2.203   2.633   0.066  0.3084 -0.5572 -0.1589
   95MOL   O10913457   2.128   2.666   7.471 -0.4308 -0.3479 -0.4134
   95MOL   H11013458   2.251   2.832   0.125 -0.2835 -0.8723 -0.2761
   95MOL   H11113459   2.257   2.727   0.259  2.5139  0.7690 -1.9354
   95MOL   H11213460   2.165   2.544   0.117 -1.0708 -0.6516 -1.3243
   95MOL   H11313461   2.181   2.714   7.410 -0.0732  0.6215  0.6428
   95MOL   C11413462   2.348   2.601   0.019  0.7951  0.0077  0.4441
   95MOL   C11513463   2.437   2.531   0.124  0.1469 -0.2806 -0.2664
   95MOL   O11613464   2.378   2.416   0.186 -0.2650  0.2967 -0.2659
   95MOL   H11713465   2.342   2.541   7.447  1.4839  3.1364 -1.7477
   95MOL   H11813466   2.381   2.695   7.495  0.6382 -1.0626 -2.0974
   95MOL   H11913467   2.450   2.594   0.212  0.3501  0.1132 -0.5757
   95MOL   H12013468   2.396   2.413   0.279  1.9344 -3.3936 -0.6982
   95MOL   C12113469   2.577   2.499   0.057  0.3461  0.1472  1.1027
   95MOL   C12213470   2.686   2.426   0.128 -0.6550 -0.3872 -0.1570
   95MOL   O12313471   2.797   2.399   0.049 -0.9122  0.1393  0.4396
   95MOL   H12413472   2.560   2.440   7.487  2.4743  2.3541 -0.8002
   95MOL   H12513473   2.618   2.596   0.031 -1.3062  0.2923 -1.0289
   95MOL   H12613474   2.644   2.331   0.162  0.6331 -0.8095  0.2648
   95MOL   H12713475   2.785   2.309   0.023  0.8530 -0.7555  2.5671
   95MOL   C12813476   2.735   2.504   0.259 -0.0146 -0.1737  0.2821
   95MOL   C12913477   2.835   2.432   0.349 -0.0826 -0.1560  0.0074
   95MOL   O13013478   2.896   2.525   0.434  0.2729  0.2502 -0.5355
   95MOL   H13113479   2.773   2.596   0.216  1.7776 -0.9621  0.1592
   95MOL   H13213480   2.649   2.523   0.323 -0.8113 -1.6223 -0.3213
   95MOL   H13313481   2.908   2.389   0.281  0.7115  1.1362  0.0177
   95MOL   H13413482   2.974   2.487   0.470  2.1480  1.9932 -2.6262
   95MOL   C13513483   2.767   2.329   0.452 -1.3197 -0.0496 -0.0528
   95MOL   C13613484   2.699   2.203   0.395 -0.2328 -0.2441 -0.2968
   95MOL   O13713485   2.647   2.125   0.499  0.3063 -0.0410  0.2233
   95MOL   H13813486   2.842   2.294   0.523 -1.6670 -2.3711 -0.7680
   95MOL   H13913487   2.691   2.385   0.506  0.9073  2.2225  0.7727
   95MOL   H14013488   2.778   2.140   0.355 -0.2250 -0.2703 -0.2405
   95MOL   H14113489   2.707   2.057   0.525  1.5026  0.3691 -1.3615
   95MOL   H14213490   2.614   2.214   0.327  0.1451 -2.1996 -1.1206
   96MOL     C113491   6.419   2.513   3.951 -0.3885  0.1795 -0.0310
   96MOL     C213492   6.312   2.586   3.874  0.0118 -1.3221  0.4718
   96MOL     O313493   6.204   2.495   3.866  0.1588  0.1980  0.5251
   96MOL     H413494   6.506   2.576   3.967 -0.3887  0.1136  0.2348
   96MOL     H513495   6.453   2.424   3.897 -0.9992  0.7784 -1.4465
   96MOL     H613496   6.351   2.605   3.774  0.9938 -1.6718  0.7826
   96MOL     H713497   6.149   2.514   3.791 -0.0112  3.0225  1.2766
   96MOL     H813498   6.377   2.490   4.049  0.4706  0.0952  0.3162
   96MOL     C913499   6.270   2.723   3.937 -0.3829  0.0161 -0.0827
   96MOL    C1013500   6.377   2.827   3.941 -0.8641  0.0850  0.4879
   96MOL    O1113501   6.409   2.865   3.807  0.2007  0.0754  0.3050
   96MOL    H1213502   6.177   2.758   3.892  0.4714  1.8524 -0.4685
   96MOL    H1313503   6.245   2.715   4.043 -0.1058 -0.7536 -0.0654
   96MOL    H1413504   6.466   2.784   3.987  0.5211  1.8001 -0.5009
   96MOL    H1513505   6.502   2.880   3.805  0.5950 -1.7973  2.0812
   96MOL    C1613506   6.360   2.949   4.025 -0.2185 -0.2738  0.2034
   96MOL    C1713507   6.319   2.913   4.166  0.4378  0.4503 -0.5481
   96MOL    O1813508   6.409   2.817   4.233 -0.3135 -0.4475 -0.5427
   96MOL    H1913509   6.450   3.011   4.031 -0.7624  0.5930 -0.3743
   96MOL    H2013510   6.280   3.007   3.978 -0.0700 -1.0579 -1.0382
   96MOL    H2113511   6.216   2.876   4.160  0.3684  0.4574  0.5228
   96MOL    H2213512   6.479   2.874   4.262 -0.2679 -0.4958 -0.5594
   96MOL    C2313513   6.309   3.040   4.262 -0.0889  0.3061  0.5076
   96MOL    C2413514   6.183   3.130   4.251  0.1454  0.1323  0.3149
   96MOL    O2513515   6.206   3.194   4.127 -0.3672 -0.3200  0.1821
   96MOL    H2613516   6.299   3.010   4.366 -0.5793  0.4744  0.5138
   96MOL    H2713517   6.401   3.095   4.244 -0.8754  1.8166  1.0289
   96MOL    H2813518   6.190   3.206   4.328 -0.9483  0.4895  0.0628
   96MOL    H2913519   6.294   3.226   4.121 -0.0653 -1.4913 -2.3832
   96MOL    C3013520   6.046   3.068   4.252 -0.2486  0.1598  0.1152
   96MOL    C3113521   6.007   2.982   4.373 -0.0799 -0.0992 -0.1181
   96MOL    O3213522   5.990   3.070   4.479  0.4976 -0.0934 -0.1677
   96MOL    H3313523   5.967   3.140   4.227 -0.8895 -1.4660 -2.7063
   96MOL    H3413524   6.040   3.001   4.167  1.4184  1.6013 -1.1854
   96MOL    H3513525   6.085   2.918   4.414 -0.2356 -0.2758 -0.0941
   96MOL    H3613526   5.945   3.033   4.554 -0.8557  2.8698  0.5577
   96MOL    C3713527   5.877   2.903   4.358 -0.4490 -0.4107  0.5674
   96MOL    C3813528   5.895   2.749   4.330  0.6026  0.3612 -0.3515
   96MOL    O3913529   5.774   2.688   4.379 -0.1752 -0.5126  0.5490
   96MOL    H4013530   5.831   2.917   4.456 -0.9968 -1.9997  0.5606
   96MOL    H4113531   5.809   2.954   4.289 -1.7269 -3.7158 -0.7492
   96MOL    H4213532   5.978   2.708   4.387 -0.7324 -1.4072  0.3659
   96MOL    H4313533   5.794   2.630   4.451 -1.0828 -1.7483 -0.1739
   96MOL    C4413534   5.929   2.710   4.188  0.5810  0.5552 -0.0449
   96MOL    C4513535   5.920   2.553   4.160 -0.3621 -0.0829  0.6826
   96MOL    O4613536   5.951   2.509   4.029  0.1093 -0.3437 -0.2928
   96MOL    H4713537   5.848   2.756   4.132  0.2434 -0.4563 -0.4153
   96MOL    H4813538   6.024   2.746   4.148  0.1249 -0.4064 -2.0913
   96MOL    H4913539   5.815   2.525   4.159 -0.4611  0.3158 -0.5438
   96MOL    H5013540   6.044   2.521   4.020  0.4453 -1.7354  1.0955
   96MOL    C5113541   6.005   2.460   4.255 -0.2651  0.1675  0.0240
   96MOL    C5213542   6.157   2.476   4.233 -0.1959  0.0331  0.0830
   96MOL    O5313543   6.199   2.590   4.312 -0.2748  0.3215 -0.3868
   96MOL    H5413544   5.987   2.473   4.362  0.6893 -1.0005  0.3376
   96MOL    H5513545   5.972   2.357   4.241  0.4596  0.0854 -1.1042
   96MOL    H5613546   6.179   2.502   4.129 -0.1266  0.3899  0.1878
   96MOL    H5713547   6.267   2.641   4.271  0.6965 -0.8846 -0.3267
   96MOL    C5813548   6.248   2.351   4.267 -0.9361 -0.6020 -0.6745
   96MOL    C5913549   6.228   2.230   4.170  0.3394 -0.0468 -0.2321
   96MOL    O6013550   6.286   2.253   4.040  0.4772  0.4626  0.1111
   96MOL    H6113551   6.349   2.392   4.265  0.0176 -2.7702  0.9650
   96MOL    H6213552   6.213   2.323   4.367  2.9352 -0.4469  0.8173
   96MOL    H6313553   6.122   2.207   4.159  0.1597  1.7702 -2.7170
   96MOL    H6413554   6.234   2.318   3.995 -0.8788  0.2903  1.3677
   96MOL    C6513555   6.303   2.102   4.209 -0.2100  1.6834 -0.0680
   96MOL    C6613556   6.261   2.041   4.342 -0.2692  0.3838  0.0784
   96MOL    O6713557   6.152   1.950   4.312 -0.0535 -0.1776 -0.2001
   96MOL    H6813558   6.288   2.023   4.135 -1.9039  0.7172  1.2764
   96MOL    H6913559   6.410   2.119   4.208 -0.1077  1.0377 -1.0319
   96MOL    H7013560   6.211   2.107   4.412 -1.4297 -0.2482 -0.1322
   96MOL    H7113561   6.193   1.874   4.274  0.9065  0.5332 -0.6170
   96MOL    C7213562   6.372   1.960   4.408 -0.1360  0.0741 -0.6892
   96MOL    C7313563   6.452   2.025   4.517 -0.3337  0.0242  0.5197
   96MOL    O7413564   6.501   1.924   4.594 -0.4947  0.1591 -0.1428
   96MOL    H7513565   6.312   1.881   4.453 -0.1207 -0.5528 -1.7558
   96MOL    H7613566   6.437   1.895   4.350  0.1562 -0.4313  0.1844
   96MOL    H7713567   6.390   2.086   4.583 -0.8473  0.2713 -0.1883
   96MOL    H7813568   6.436   1.919   4.662  0.6423 -0.8396  0.8864
   96MOL    C7913569   6.573   2.111   4.482  0.8436  0.3574  0.7275
   96MOL    C8013570   6.546   2.256   4.444  0.4757 -0.1409  1.1198
   96MOL    O8113571   6.506   2.327   4.554 -0.0452  0.5404  0.3764
   96MOL    H8213572   6.655   2.117   4.553  0.5578  0.7182  1.0275
   96MOL    H8313573   6.625   2.058   4.401  0.9788  1.4656  0.0773
   96MOL    H8413574   6.462   2.247   4.375  1.2900  0.4361  0.0355
   96MOL    H8513575   6.526   2.415   4.528  2.1887 -0.2394 -0.6471
   96MOL    C8613576   6.671   2.324   4.378  0.2707 -0.1165 -0.2353
   96MOL    C8713577   6.633   2.462   4.322 -0.0832 -0.8842  0.9463
   96MOL    O8813578   6.614   2.549   4.433 -0.2941  0.2620 -0.1188
   96MOL    H8913579   6.751   2.348   4.448 -0.1068 -1.0439  0.5297
   96MOL    H9013580   6.713   2.252   4.307  1.1181 -0.2464  0.3850
   96MOL    H9113581   6.544   2.455   4.260  0.2818  0.8940  0.1934
   96MOL    H9213582   6.631   2.639   4.412 -2.1372  0.4929 -0.7422
   96MOL    C9313583   6.753   2.531   4.241 -0.0185 -0.7413  0.3983
   96MOL    C9413584   6.737   2.675   4.194 -0.8896  0.3047 -0.2726
   96MOL    O9513585   6.737   2.750   4.316 -0.3270  0.2161  0.1495
   96MOL    H9613586   6.840   2.522   4.307  1.2672  0.7673 -1.0363
   96MOL    H9713587   6.778   2.472   4.153 -0.4877  0.3742 -0.4799
   96MOL    H9813588   6.639   2.681   4.148 -0.4285 -1.8622 -1.5961
   96MOL    H9913589   6.730   2.842   4.293  0.2965  0.4362  0.8205
   96MOL   C10013590   6.851   2.739   4.106 -0.2559  0.4543  0.2980
   96MOL   C10113591   6.810   2.874   4.045 -0.6363  0.3542  0.6660
   96MOL   O10213592   6.828   2.971   4.149  0.4248 -0.3600  0.1782
   96MOL   H10313593   6.945   2.752   4.159  0.9309  0.6733 -1.8166
   96MOL   H10413594   6.881   2.667   4.030  0.0430 -1.6185  2.3185
   96MOL   H10513595   6.703   2.868   4.025 -0.5155 -0.4393  0.2145
   96MOL   H10613596   6.871   3.050   4.120  0.1255 -0.2848 -0.0586
   96MOL   C10713597   6.891   2.909   3.917  0.4042  0.3616 -0.3896
   96MOL   C10813598   6.835   2.864   3.779 -0.1550  0.3814 -0.5295
   96MOL   O10913599   6.699   2.895   3.776  0.5547  0.3212 -0.4901
   96MOL   H11013600   6.906   3.017   3.926 -3.0472  0.9029 -0.4848
   96MOL   H11113601   6.991   2.868   3.929  0.5023  0.7222  0.0107
   96MOL   H11213602   6.845   2.755   3.775 -0.2597  0.3481 -0.0042
   96MOL   H11313603   6.678   2.987   3.768  1.2960  0.6374  0.9203
   96MOL   C11413604   6.913   2.933   3.669 -0.4574 -0.3217 -0.0349
   96MOL   C11513605   7.064   2.908   3.658 -1.0865  0.2327  0.0695
   96MOL   O11613606   7.131   3.001   3.749 -0.3291  0.5231 -0.0253
   96MOL   H11713607   6.878   2.888   3.576 -0.1841  0.1388 -0.3621
   96MOL   H11813608   6.898   3.041   3.671 -1.2362 -0.4479  1.0736
   96MOL   H11913609   7.097   2.926   3.556  1.1769  0.4895  0.8162
   96MOL   H12013610   7.220   2.972   3.743 -0.0011  1.5501 -0.2319
   96MOL   C12113611   7.121   2.771   3.696 -0.0443  0.3308 -0.7537
   96MOL   C12213612   7.070   2.651   3.607  0.0920  0.2777  0.9468
   96MOL   O12313613   7.120   2.661   3.474  0.0500  0.5179 -0.6461
   96MOL   H12413614   7.229   2.782   3.684  0.7025 -0.9656  3.5514
   96MOL   H12513615   7.100   2.746   3.800  2.0426 -0.7418 -0.5612
   96MOL   H12613616   6.963   2.663   3.593  0.6571  2.9918 -1.5766
   96MOL   H12713617   7.092   2.587   3.422 -2.8008 -0.2413  1.8518
   96MOL   C12813618   7.099   2.506   3.665 -0.0152 -0.3446  0.0419
   96MOL   C12913619   7.007   2.463   3.776 -0.3183  0.3874  0.7475
   96MOL   O13013620   6.870   2.464   3.725 -0.4583 -0.2396  0.0486
   96MOL   H13113621   7.102   2.429   3.589  2.4052  0.6933 -0.9619
   96MOL   H13213622   7.201   2.516   3.703 -0.4580 -0.3982  1.2800
   96MOL   H13313623   7.009   2.538   3.855  1.5068  0.5370  0.5986
   96MOL   H13413624   6.850   2.403   3.656  0.5664 -0.0183 -0.4444
   96MOL   C13513625   7.050   2.325   3.826 -0.2589  0.6635 -0.0122
   96MOL   C13613626   7.042   2.209   3.719  0.1650 -0.4375 -0.4448
   96MOL   O13713627   7.079   2.089   3.788  0.4153 -0.4146 -0.0584
   96MOL   H13813628   7.148   2.332   3.874 -0.2196 -0.5958  0.0922
   96MOL   H13913629   6.982   2.305   3.909 -0.5648 -0.5659 -0.5431
   96MOL   H14013630   7.116   2.219   3.640  1.1124 -1.0332  0.3470
   96MOL   H14113631   7.069   2.028   3.717 -4.2601 -0.0669  0.1449
   96MOL   H14213632   6.943   2.197   3.675 -1.0246  3.3526  0.9597
   97MOL     C113633   4.234   3.412   7.413 -0.0149 -0.3012 -0.4650
   97MOL     C213634   4.101   3.494   7.428  1.1128  0.3123 -1.0858
   97MOL     O313635   4.001   3.404   7.405 -0.2010 -0.2351  0.2268
   97MOL     H413636   4.309   3.486   7.440  2.1358 -2.8454  0.8127
   97MOL     H513637   4.250   3.401   7.306 -0.7215  2.8082 -0.9196
   97MOL     H613638   4.096   3.558   7.340 -1.1610  1.0738 -0.4374
   97MOL     H713639   4.019   3.326   7.456 -1.0038  1.0292  2.5203
   97MOL     H813640   4.270   3.326   7.470  0.9553  0.9370  0.8419
   97MOL     C913641   4.079   3.553   0.050  0.0182  0.3966  0.7518
   97MOL    C1013642   3.979   3.666   0.063  0.7354  0.5898  0.7672
   97MOL    O1113643   3.950   3.695   0.199 -0.1452 -0.2803  0.4063
   97MOL    H1213644   4.045   3.483   0.127  1.0331  0.1550  0.9810
   97MOL    H1313645   4.178   3.582   0.085  0.3865 -0.0670  0.0808
   97MOL    H1413646   3.888   3.620   0.023  1.5757 -0.5196  0.1070
   97MOL    H1513647   4.030   3.732   0.233 -0.4763  2.9080 -1.9763
   97MOL    C1613648   4.011   3.791   7.497  0.1819 -0.2590  0.6209
   97MOL    C1713649   3.896   3.896   7.511  0.1507  0.7560  0.1260
   97MOL    O1813650   3.924   4.014   7.435  0.5643  0.6252 -0.1528
   97MOL    H1913651   4.109   3.832   0.003 -0.2791 -0.3418  2.5988
   97MOL    H2013652   4.022   3.773   7.390  0.0344  2.2250  0.1761
   97MOL    H2113653   3.896   3.929   0.096 -2.3150 -1.8516  0.9998
   97MOL    H2213654   3.931   3.983   7.345 -1.4046  0.3255 -0.2272
   97MOL    C2313655   3.753   3.850   7.464  0.7450 -0.5035 -0.0993
   97MOL    C2413656   3.656   3.843   0.069 -0.1143  0.0129 -0.7545
   97MOL    O2513657   3.567   3.951   0.069  0.4657 -0.2461  0.4987
   97MOL    H2613658   3.705   3.922   7.398  1.9047  0.9053  0.5628
   97MOL    H2713659   3.763   3.763   7.401  3.7201  1.0594 -1.9205
   97MOL    H2813660   3.711   3.834   0.162  2.3103 -1.1721 -2.2295
   97MOL    H2913661   3.515   3.953   0.148  0.5605  2.6824  0.5764
   97MOL    C3013662   3.573   3.717   0.056  0.5225  0.4693 -0.4339
   97MOL    C3113663   3.549   3.640   0.191  0.2237  0.0595  0.0606
   97MOL    O3213664   3.481   3.722   0.286  0.4046 -0.2116  0.0948
   97MOL    H3313665   3.478   3.737   0.006  0.0750  0.0140  0.2279
   97MOL    H3413666   3.625   3.642   7.516  0.2367 -0.1250  0.0687
   97MOL    H3513667   3.642   3.607   0.238 -0.6289  1.4168  2.8705
   97MOL    H3613668   3.533   3.733   0.364 -1.1677 -1.6649  1.3823
   97MOL    C3713669   3.459   3.523   0.175 -0.2661 -0.2101  0.2684
   97MOL    C3813670   3.469   3.420   0.289 -0.0611  0.1058 -0.0287
   97MOL    O3913671   3.349   3.334   0.302 -0.4297 -0.5378  0.2729
   97MOL    H4013672   3.355   3.553   0.161 -1.4615 -3.3313  1.7684
   97MOL    H4113673   3.477   3.469   0.082 -1.1888 -0.6492  0.3387
   97MOL    H4213674   3.462   3.471   0.385 -0.2303 -1.4766  0.8319
   97MOL    H4313675   3.271   3.381   0.278 -0.6696  0.0149  2.0391
   97MOL    C4413676   3.600   3.331   0.302  0.4087  1.0995 -0.2740
   97MOL    C4513677   3.604   3.269   0.448 -0.8524 -0.0431  0.1243
   97MOL    O4613678   3.498   3.171   0.468 -0.2741 -0.3462  0.3956
   97MOL    H4713679   3.613   3.269   0.213 -0.7799  0.3629  0.0519
   97MOL    H4813680   3.687   3.394   0.283  1.1797  0.5591  1.3967
   97MOL    H4913681   3.599   3.345   0.527 -0.5924  0.2841 -0.1779
   97MOL    H5013682   3.421   3.212   0.432 -1.0986 -2.3238 -0.1279
   97MOL    C5113683   3.737   3.189   0.464 -0.4925  0.1928 -0.0720
   97MOL    C5213684   3.762   3.113   0.598  0.1312 -0.1315  0.7499
   97MOL    O5313685   3.879   3.041   0.577 -0.6899 -0.4546  0.0101
   97MOL    H5413686   3.733   3.111   0.388  0.9845  1.2414 -1.2568
   97MOL    H5513687   3.824   3.251   0.444 -0.8474  0.6316 -0.2848
   97MOL    H5613688   3.686   3.037   0.614 -0.2202  0.5052  2.1518
   97MOL    H5713689   3.861   2.965   0.525  1.3772 -0.1782 -1.1410
   97MOL    C5813690   3.786   3.212   0.715 -0.2877 -0.1258  0.4792
   97MOL    C5913691   3.801   3.127   0.842 -0.4104 -0.4945  0.0183
   97MOL    O6013692   3.906   3.179   0.920  0.4541  0.1959 -0.1668
   97MOL    H6113693   3.867   3.282   0.694 -2.1334  2.1498  0.8071
   97MOL    H6213694   3.698   3.276   0.720 -0.1251 -0.0159  2.2745
   97MOL    H6313695   3.849   3.029   0.830  0.0470  0.0802 -3.2877
   97MOL    H6413696   3.899   3.273   0.922  2.9144  0.3948  1.6226
   97MOL    C6513697   3.674   3.128   0.933  0.2183  0.8958  0.1710
   97MOL    C6613698   3.563   3.019   0.884 -0.2987 -0.2549  0.2725
   97MOL    O6713699   3.594   2.886   0.928 -0.8606  0.1017  0.1169
   97MOL    H6813700   3.705   3.111   1.036  0.0996 -0.7726 -0.0545
   97MOL    H6913701   3.628   3.226   0.937 -0.8936  0.4059 -0.3247
   97MOL    H7013702   3.547   3.027   0.776 -1.1635 -0.9223  0.3483
   97MOL    H7113703   3.635   2.841   0.855 -1.0653 -0.6336  0.4505
   97MOL    C7213704   3.419   3.053   0.939  0.2011 -0.2857 -0.1569
   97MOL    C7313705   3.362   3.199   0.903 -1.0427 -0.0361  0.4242
   97MOL    O7413706   3.368   3.239   0.763 -0.2691  0.2548  0.0441
   97MOL    H7513707   3.358   2.970   0.901  0.1869  0.1349 -1.0439
   97MOL    H7613708   3.422   3.051   1.048  2.9304  1.8121 -0.1437
   97MOL    H7713709   3.424   3.276   0.949  0.7034 -1.6972  0.9103
   97MOL    H7813710   3.334   3.168   0.710 -1.4649  0.0050  1.1101
   97MOL    C7913711   3.213   3.210   0.950  0.0735  0.8333  0.9816
   97MOL    C8013712   3.176   3.171   1.088  0.3486  0.1946 -0.0313
   97MOL    O8113713   3.231   3.237   1.187 -0.4160 -0.5591 -0.4135
   97MOL    H8213714   3.190   3.316   0.945 -0.7006  0.6319 -0.0203
   97MOL    H8313715   3.147   3.153   0.883  0.1014  0.8818  0.9128
   97MOL    H8413716   3.207   3.069   1.111  2.4416  0.8727  0.2771
   97MOL    H8513717   3.278   3.169   1.233  0.8887 -1.0691 -2.4281
   97MOL    C8613718   3.020   3.175   1.099 -0.0118  0.4539 -0.7201
   97MOL    C8713719   2.941   3.066   1.024  0.0119  0.2451 -0.0269
   97MOL    O8813720   2.966   2.941   1.088  0.2579 -0.4660 -0.0105
   97MOL    H8913721   2.987   3.172   1.202 -0.0576 -0.4370 -0.7625
   97MOL    H9013722   2.989   3.271   1.057  0.6615  1.5297  1.2108
   97MOL    H9113723   2.978   3.054   0.922  0.5424 -1.8723  0.3838
   97MOL    H9213724   2.929   2.938   1.174  1.9165 -0.5209  0.7293
   97MOL    C9313725   2.792   3.091   1.012 -0.2482  0.1244  0.6199
   97MOL    C9413726   2.748   3.198   0.901 -0.0004 -0.0337  1.1120
   97MOL    O9513727   2.798   3.145   0.779  0.2466 -0.2974  0.3769
   97MOL    H9613728   2.737   3.003   0.978 -0.6567  0.4567  0.4088
   97MOL    H9713729   2.752   3.112   1.111 -1.1647 -0.0599  0.2945
   97MOL    H9813730   2.801   3.292   0.915 -0.3921  0.0488  2.0784
   97MOL    H9913731   2.848   3.212   0.735 -1.0040 -0.1849 -0.9216
   97MOL   C10013732   2.595   3.231   0.902 -0.5353  0.3061  0.3258
   97MOL   C10113733   2.561   3.351   0.990 -0.3007  0.0510 -0.0780
   97MOL   O10213734   2.626   3.472   0.944 -0.2115 -0.3443  0.0400
   97MOL   H10313735   2.566   3.255   0.799 -0.9056 -0.7073  0.1913
   97MOL   H10413736   2.536   3.146   0.935  0.3188 -0.3435  0.1713
   97MOL   H10513737   2.601   3.332   1.089  0.3219  2.4255  0.1570
   97MOL   H10613738   2.671   3.515   1.016  1.1679 -2.0845  0.2458
   97MOL   C10713739   2.406   3.371   1.001  0.1778  0.4212 -0.2448
   97MOL   C10813740   2.346   3.505   1.059  0.0289  0.2711 -0.8020
   97MOL   O10913741   2.206   3.494   1.037  0.2326  0.2211  0.8101
   97MOL   H11013742   2.371   3.365   0.898 -1.7650  2.9004  0.2032
   97MOL   H11113743   2.372   3.285   1.059  1.9649  0.5823  1.0822
   97MOL   H11213744   2.382   3.584   0.993  0.8444 -0.2092 -0.9397
   97MOL   H11313745   2.167   3.563   1.089 -1.5003 -1.1116  1.3196
   97MOL   C11413746   2.374   3.525   1.208  0.0975  0.4185 -0.1514
   97MOL   C11513747   2.325   3.661   1.263  1.0287  0.6126 -0.4571
   97MOL   O11613748   2.192   3.673   1.239  0.1610 -0.2156 -0.1383
   97MOL   H11713749   2.323   3.442   1.257  0.3210  0.4967  0.2091
   97MOL   H11813750   2.482   3.526   1.219  0.1079  1.2797 -0.2595
   97MOL   H11913751   2.367   3.746   1.210 -0.0298  0.3138 -1.7758
   97MOL   H12013752   2.181   3.752   1.188  2.4181  1.6325  2.1435
   97MOL   C12113753   2.352   3.667   1.415  0.1935 -0.3580  0.1315
   97MOL   C12213754   2.488   3.720   1.456 -0.4153 -0.4496 -1.0345
   97MOL   O12313755   2.493   3.860   1.429 -0.0532  0.2607  0.0322
   97MOL   H12413756   2.270   3.718   1.466  1.3859  1.2146  0.4843
   97MOL   H12513757   2.351   3.565   1.453 -0.3031 -0.4499 -0.1204
   97MOL   H12613758   2.573   3.686   1.395  2.1405  1.1041  1.5123
   97MOL   H12713759   2.587   3.875   1.425 -0.1838  1.4223  0.8274
   97MOL   C12813760   2.508   3.699   1.603  0.5816 -0.1773  0.2861
   97MOL   C12913761   2.573   3.565   1.637 -0.9495 -0.3530  0.1919
   97MOL   O13013762   2.710   3.569   1.598 -0.2552 -0.0021  0.4767
   97MOL   H13113763   2.564   3.782   1.645 -0.9943 -0.5336  3.2746
   97MOL   H13213764   2.416   3.721   1.657  0.3792  1.2819 -0.6339
   97MOL   H13313765   2.521   3.487   1.581 -0.6471 -0.7919  0.5176
   97MOL   H13413766   2.753   3.491   1.629 -0.8800 -0.1828  0.9179
   97MOL   C13513767   2.566   3.533   1.788 -0.2070 -0.1092  1.2822
   97MOL   C13613768   2.423   3.512   1.843 -0.8345  0.3771 -0.3388
   97MOL   O13713769   2.412   3.469   1.980  0.3061  0.0730  0.3931
   97MOL   H13813770   2.640   3.455   1.806  1.0288  0.7752  0.2186
   97MOL   H13913771   2.606   3.624   1.835  1.8019  0.3778 -1.2634
   97MOL   H14013772   2.383   3.437   1.775  1.7357 -0.4198 -1.0340
   97MOL   H14113773   2.321   3.474   2.007  0.3043 -0.3324  0.4711
   97MOL   H14213774   2.373   3.609   1.846 -1.0618  0.2355  1.5020
   98MOL     C113775   0.051   7.488   6.830  0.2069 -0.4783 -0.0115
   98MOL     C213776   0.098   7.449   6.682 -0.4400  0.3241 -0.4524
   98MOL     O313777   0.004   7.352   6.630 -0.9736  0.2871 -0.3596
   98MOL     H413778   0.066   7.397   6.889 -0.6413  0.6370  1.9523
   98MOL     H513779   7.464   7.506   6.820  0.8844  2.5464 -2.7815
   98MOL     H613780   0.202   7.417   6.677 -0.3517  0.7156 -1.2782
   98MOL     H713781   7.499   7.287   6.695  0.8028 -0.8203 -0.7494
   98MOL     H813782   0.104   0.057   6.865 -0.6873 -0.9232  2.5648
   98MOL     C913783   0.092   0.052   6.591  0.3197  0.2006 -0.5007
   98MOL    C1013784   0.199   0.160   6.611  0.2786 -0.0452 -0.6256
   98MOL    O1113785   0.319   0.121   6.545  0.1681  0.3611 -0.1443
   98MOL    H1213786   0.101   0.013   6.489  1.3132 -1.0286  0.0526
   98MOL    H1313787   7.510   0.091   6.587  0.4362  0.4704 -0.8361
   98MOL    H1413788   0.225   0.183   6.715 -0.0272  3.2098 -1.2281
   98MOL    H1513789   0.389   0.182   6.561  0.7090 -0.4359  0.5680
   98MOL    C1613790   0.161   0.293   6.547  0.5263 -0.2203 -0.2476
   98MOL    C1713791   0.078   0.386   6.639  1.2413  0.1906  0.1636
   98MOL    O1813792   0.176   0.438   6.730  0.1454 -0.3308  0.5809
   98MOL    H1913793   0.253   0.346   6.525 -0.1458  1.5170  1.0217
   98MOL    H2013794   0.098   0.279   6.459 -1.6843 -0.0778  1.2423
   98MOL    H2113795   0.004   0.322   6.688  1.3823 -0.1858 -0.1156
   98MOL    H2213796   0.148   0.393   6.809 -3.2186 -2.5008 -1.6679
   98MOL    C2313797   0.002   0.505   6.562 -0.0679  0.4676  0.3269
   98MOL    C2413798   7.432   0.606   6.642  0.1014  0.3069  0.6013
   98MOL    O2513799   7.357   0.690   6.553 -0.1941  0.6621 -0.0410
   98MOL    H2613800   0.082   0.561   6.516 -0.9259 -0.1170 -1.9306
   98MOL    H2713801   7.466   0.461   6.479  1.4815  0.8236 -0.9153
   98MOL    H2813802   7.500   0.674   6.693 -0.6196  1.2907  0.2498
   98MOL    H2913803   7.367   0.780   6.580  0.4957  0.4040  0.5983
   98MOL    C3013804   7.340   0.539   6.745  0.7585  0.0735 -0.1723
   98MOL    C3113805   7.286   0.641   6.853  0.2567 -0.2932 -0.6202
   98MOL    O3213806   7.155   0.602   6.890  0.9778 -0.3247 -0.4647
   98MOL    H3313807   7.278   0.480   6.678  1.8018  0.4510 -1.4901
   98MOL    H3413808   7.397   0.460   6.794  1.8490  0.5356 -0.6779
   98MOL    H3513809   7.275   0.746   6.826  0.9181  0.3623  1.5969
   98MOL    H3613810   7.171   0.512   6.916  0.3176 -0.1470  0.6053
   98MOL    C3713811   7.372   0.655   6.980  0.3053 -0.1235  0.6396
   98MOL    C3813812   7.321   0.744   7.098  0.4982  0.2170 -0.3317
   98MOL    O3913813   7.379   0.695   7.214  0.6561  0.0953  0.1665
   98MOL    H4013814   7.389   0.556   7.022  0.2814 -0.5313 -0.2867
   98MOL    H4113815   7.471   0.680   6.941 -0.5853  0.8807 -1.0585
   98MOL    H4213816   7.213   0.728   7.106  0.8150 -0.4411  3.3111
   98MOL    H4313817   7.325   0.728   7.284  1.2138  1.9944 -0.2810
   98MOL    C4413818   7.350   0.892   7.094 -0.3950 -0.2092  0.3953
   98MOL    C4513819   7.264   0.979   6.998 -0.1488  0.0845  0.6943
   98MOL    O4613820   7.154   1.033   7.069 -0.5232 -0.0006 -0.4759
   98MOL    H4713821   7.361   0.938   7.192 -1.8259  2.9020 -0.8310
   98MOL    H4813822   7.453   0.897   7.060 -0.8245  0.0513 -0.8934
   98MOL    H4913823   7.218   0.914   6.924 -2.4720  0.8431  1.4499
   98MOL    H5013824   7.109   0.969   7.122 -1.8962  1.6130  0.3725
   98MOL    C5113825   7.344   1.092   6.927 -0.8346 -0.6037 -0.2761
   98MOL    C5213826   7.433   1.041   6.805 -0.7497 -0.6116  0.2313
   98MOL    O5313827   7.361   0.959   6.710 -0.0973  0.1544 -0.6058
   98MOL    H5413828   7.270   1.165   6.893 -0.2204  0.2253  0.1563
   98MOL    H5513829   7.407   1.135   7.005 -0.4929 -1.0116 -0.3305
   98MOL    H5613830   7.512   0.987   6.856 -0.9064 -0.9737  0.0902
   98MOL    H5713831   7.283   1.001   6.677 -1.3131 -2.1633 -0.7354
   98MOL    C5813832   7.497   1.161   6.732  0.3875 -0.3283 -0.5011
   98MOL    C5913833   0.084   1.127   6.623  0.0523 -0.1751  0.0061
   98MOL    O6013834   0.025   1.088   6.498  0.2869  1.1439  0.4221
   98MOL    H6113835   7.428   1.231   6.684  0.3318  1.5047  2.1682
   98MOL    H6213836   0.016   1.213   6.819 -3.9418  1.5506  0.4232
   98MOL    H6313837   0.150   1.045   6.653 -0.5030 -0.7414 -0.3200
   98MOL    H6413838   7.517   0.998   6.512 -0.0032  1.3203  1.0078
   98MOL    C6513839   0.153   1.253   6.582 -0.7411 -0.3259  0.6749
   98MOL    C6613840   0.306   1.232   6.549  0.2005 -0.9918  0.0657
   98MOL    O6713841   0.346   1.356   6.495 -0.3341 -0.0401 -0.2860
   98MOL    H6813842   0.097   1.303   6.503  0.4946 -0.3770 -0.2357
   98MOL    H6913843   0.155   1.332   6.658  1.8327  0.4332 -0.1625
   98MOL    H7013844   0.313   1.163   6.465 -1.2702 -1.1749  0.0792
   98MOL    H7113845   0.304   1.373   6.412 -0.9263 -0.4491 -0.0735
   98MOL    C7213846   0.389   1.190   6.675 -0.5951 -0.1870  0.0311
   98MOL    C7313847   0.541   1.202   6.659  0.1270  0.2114  0.1850
   98MOL    O7413848   0.592   1.257   6.779  0.5719  0.1427 -0.0323
   98MOL    H7513849   0.354   1.254   6.756  0.1015  1.3761 -0.8851
   98MOL    H7613850   0.360   1.088   6.701  1.0480 -0.5282  0.6042
   98MOL    H7713851   0.561   1.274   6.580 -2.1265 -0.1953 -0.7761
   98MOL    H7813852   0.665   1.312   6.756 -2.1483  3.3736 -1.2627
   98MOL    C7913853   0.599   1.064   6.629 -0.3146 -0.1337  0.3050
   98MOL    C8013854   0.745   1.065   6.570  0.3885 -0.1200 -0.4659
   98MOL    O8113855   0.772   0.926   6.554  0.2012  0.1173  0.0878
   98MOL    H8213856   0.591   1.002   6.718  2.6115  0.0146  0.7170
   98MOL    H8313857   0.530   1.020   6.556 -0.9681  2.4602 -0.6988
   98MOL    H8413858   0.820   1.095   6.643 -1.1944 -1.1998  1.6939
   98MOL    H8513859   0.724   0.886   6.483 -0.3021  2.4856 -0.9505
   98MOL    C8613860   0.761   1.141   6.438 -0.3376 -0.3953  0.1729
   98MOL    C8713861   0.902   1.135   6.375 -0.5837  0.5725 -0.5555
   98MOL    O8813862   0.901   1.183   6.243 -0.2472 -0.3792  0.3217
   98MOL    H8913863   0.690   1.096   6.369 -0.4747  2.3049 -1.5295
   98MOL    H9013864   0.737   1.245   6.462  1.3886  0.1549 -0.4482
   98MOL    H9113865   0.919   1.027   6.381 -2.0474  0.3646  0.0051
   98MOL    H9213866   0.818   1.220   6.218  0.2680 -0.6193 -1.8015
   98MOL    C9313867   1.001   1.223   6.449 -0.0775 -0.6136  0.3081
   98MOL    C9413868   1.138   1.152   6.478  0.2953  0.1449 -0.2741
   98MOL    O9513869   1.248   1.240   6.491  0.0520  0.5206  0.0521
   98MOL    H9613870   1.021   1.318   6.399  0.0784  0.0488  1.5773
   98MOL    H9713871   0.961   1.241   6.549 -0.0671  2.6989 -0.2094
   98MOL    H9813872   1.170   1.098   6.389 -4.4805 -0.4916 -1.7173
   98MOL    H9913873   1.326   1.198   6.458  0.4440  0.1949  1.3883
   98MOL   C10013874   1.154   1.069   6.608  0.4280  0.3809 -0.3622
   98MOL   C10113875   1.286   0.984   6.625 -0.5249  0.2708 -0.4868
   98MOL   O10213876   1.305   0.968   6.767 -0.2355  0.3234 -0.3111
   98MOL   H10313877   1.143   1.137   6.692  0.5865  0.7558 -0.6472
   98MOL   H10413878   1.064   1.007   6.612  0.2330  0.5394 -1.8155
   98MOL   H10513879   1.366   1.046   6.584 -0.0341 -0.7609 -1.0994
   98MOL   H10613880   1.340   1.051   6.797 -2.3365  1.5188 -1.0615
   98MOL   C10713881   1.262   0.847   6.550  0.1791 -0.4673 -0.0752
   98MOL   C10813882   1.386   0.769   6.524  0.2842  0.3132 -0.6484
   98MOL   O10913883   1.350   0.634   6.499 -0.7743 -0.5515 -0.1029
   98MOL   H11013884   1.196   0.788   6.614 -1.0903 -0.0609 -0.9869
   98MOL   H11113885   1.224   0.864   6.449 -1.4129 -0.9775  0.4223
   98MOL   H11213886   1.444   0.764   6.616 -0.2473 -0.6675 -0.3526
   98MOL   H11313887   1.330   0.624   6.408  0.5014 -0.7744 -0.3562
   98MOL   C11413888   1.479   0.824   6.414  0.5545 -0.6892 -0.0635
   98MOL   C11513889   1.617   0.760   6.401 -0.5987  0.3433  0.0058
   98MOL   O11613890   1.673   0.775   6.274  0.7816  0.2974 -0.8181
   98MOL   H11713891   1.435   0.815   6.315 -2.0091  2.5239  0.7053
   98MOL   H11813892   1.488   0.933   6.424 -2.6833 -0.1935 -1.8256
   98MOL   H11913893   1.597   0.655   6.419  0.9081  0.2736  1.4628
   98MOL   H12013894   1.762   0.747   6.289  0.4645  0.3871  1.3431
   98MOL   C12113895   1.721   0.809   6.501  0.0710  0.0252  0.5101
   98MOL   C12213896   1.837   0.704   6.517  0.6529 -0.2952 -0.7067
   98MOL   O12313897   1.895   0.668   6.396 -0.6294  0.0409  0.3068
   98MOL   H12413898   1.766   0.893   6.448 -2.2967  2.8859  2.8268
   98MOL   H12513899   1.687   0.851   6.596 -0.6304 -2.1282  1.2356
   98MOL   H12613900   1.798   0.618   6.572 -0.7921  0.3483 -0.6924
   98MOL   H12713901   1.861   0.585   6.366 -2.4795  0.8824  0.0374
   98MOL   C12813902   1.956   0.765   6.596 -0.3768  0.6082  0.1230
   98MOL   C12913903   1.927   0.800   6.747 -0.4447  0.0541  0.0128
   98MOL   O13013904   1.889   0.685   6.822 -0.2210  0.1766  0.1742
   98MOL   H13113905   2.041   0.698   6.592 -0.9421 -0.1817  1.1216
   98MOL   H13213906   1.989   0.856   6.546  1.2900 -0.4864 -0.8210
   98MOL   H13313907   1.849   0.875   6.731  0.2468  1.0220  1.1192
   98MOL   H13413908   1.831   0.711   6.892  0.9742  2.7923  0.2537
   98MOL   C13513909   2.047   0.853   6.826 -0.3582 -0.8855 -0.4922
   98MOL   C13613910   2.082   0.999   6.798 -0.5626  0.2707 -0.2696
   98MOL   O13713911   2.193   1.042   6.876  0.5148 -0.3362 -0.3497
   98MOL   H13813912   2.036   0.840   6.933 -0.1420 -1.7595 -0.5779
   98MOL   H13913913   2.130   0.788   6.798 -0.3131 -1.6705  1.4154
   98MOL   H14013914   2.000   1.068   6.821 -0.3948  0.3192  0.2049
   98MOL   H14113915   2.169   1.127   6.910 -0.1759 -0.5243 -0.3558
   98MOL   H14213916   2.098   1.016   6.692 -0.3825 -3.9664 -1.0160
   99MOL     C113917   0.380   0.366   1.615  0.4190 -0.0287  0.6918
   99MOL     C213918   0.267   0.403   1.711  0.7530  0.0426 -0.0208
   99MOL     O313919   0.245   0.547   1.719 -0.2233 -0.1260  0.1128
   99MOL     H413920   0.347   0.377   1.512 -0.8339  0.4759  1.1359
   99MOL     H513921   0.422   0.266   1.621 -0.9212 -0.6242  0.1653
   99MOL     H613922   0.296   0.375   1.812  0.8914  2.5956  0.6812
   99MOL     H713923   0.207   0.564   1.804  0.4539  2.0324  0.0418
   99MOL     H813924   0.474   0.422   1.608  0.2342  0.0797 -1.2057
   99MOL     C913925   0.131   0.331   1.677 -0.9185 -0.7735  0.4923
   99MOL    C1013926   0.127   0.181   1.698 -0.3114  0.5658 -0.3327
   99MOL    O1113927   7.511   0.143   1.731  0.6692 -0.0784 -0.3412
   99MOL    H1213928   0.053   0.364   1.745  1.2861  0.4141  2.5247
   99MOL    H1313929   0.109   0.348   1.572  0.4847  3.0423  0.7168
   99MOL    H1413930   0.197   0.166   1.780 -0.1937  0.8082 -0.3919
   99MOL    H1513931   7.453   0.164   1.659  0.0412 -0.0010  0.1830
   99MOL    C1613932   0.173   0.095   1.578 -0.1089 -0.0104 -0.0017
   99MOL    C1713933   0.173   7.459   1.590 -0.4518 -0.0635  0.3896
   99MOL    O1813934   0.210   7.411   1.462  0.2961 -0.0216 -0.2741
   99MOL    H1913935   0.119   0.116   1.486 -0.2807 -0.6959 -0.0628
   99MOL    H2013936   0.276   0.116   1.550 -0.8928  0.0702 -2.9626
   99MOL    H2113937   0.072   7.421   1.610 -1.5163  1.8165 -1.1765
   99MOL    H2213938   0.129   7.405   1.414 -0.1668 -1.0964  0.6062
   99MOL    C2313939   0.261   7.411   1.709  0.0459  0.4956  0.0015
   99MOL    C2413940   0.323   7.269   1.698 -0.3632  0.1546  0.5662
   99MOL    O2513941   0.421   7.259   1.804 -0.0242  0.2510  0.2975
   99MOL    H2613942   0.350   7.474   1.710  0.6395 -0.3376  0.5383
   99MOL    H2713943   0.208   7.442   1.800 -3.4352  1.4133 -2.2351
   99MOL    H2813944   0.378   7.250   1.606 -1.7788  0.1889 -0.3126
   99MOL    H2913945   0.383   7.271   1.889  0.2002 -0.0927  0.4478
   99MOL    C3013946   0.224   7.161   1.713 -0.5716  0.5392 -0.6117
   99MOL    C3113947   0.252   7.027   1.649 -0.1427  0.2219 -0.0511
   99MOL    O3213948   0.202   6.928   1.729  0.0848 -0.0835 -0.3305
   99MOL    H3313949   0.202   7.157   1.819 -0.9806  0.2388 -0.7056
   99MOL    H3413950   0.126   7.187   1.673 -0.0230 -0.6349 -2.7989
   99MOL    H3513951   0.360   7.011   1.641 -0.0977 -0.8926  2.4808
   99MOL    H3613952   0.241   6.929   1.815 -1.9700  1.0209  0.6219
   99MOL    C3713953   0.199   7.008   1.504 -0.3205 -0.7517 -0.9076
   99MOL    C3813954   0.267   7.084   1.384 -0.2119  0.2039 -0.5576
   99MOL    O3913955   0.401   7.041   1.365  0.4428 -0.0587 -0.1138
   99MOL    H4013956   0.193   6.900   1.487  2.4218 -0.7899 -1.8349
   99MOL    H4113957   0.096   7.045   1.497  0.4248  1.1859 -1.7306
   99MOL    H4213958   0.290   7.186   1.415 -0.3957  0.0185  0.1744
   99MOL    H4313959   0.433   7.092   1.293  0.7638  1.1660  0.8822
   99MOL    C4413960   0.183   7.064   1.244  0.3738  0.5386 -0.0914
   99MOL    C4513961   0.046   7.132   1.243 -0.6307 -0.6444 -0.5091
   99MOL    O4613962   0.065   7.268   1.217 -0.3192  0.7218  0.0515
   99MOL    H4713963   0.251   7.094   1.165  0.4061  0.2009 -0.1920
   99MOL    H4813964   0.176   6.956   1.231  3.2538  0.2670  0.2889
   99MOL    H4913965   7.515   7.125   1.340  1.2801 -0.1904  0.5478
   99MOL    H5013966   0.014   7.322   1.275 -0.0550  0.1530  0.8144
   99MOL    C5113967   7.472   7.054   1.144 -0.0924 -0.6045  0.1283
   99MOL    C5213968   7.405   6.932   1.209 -0.4531  0.3393 -0.2282
   99MOL    O5313969   7.295   6.986   1.290 -0.4985  0.3235 -0.1071
   99MOL    H5413970   7.409   7.123   1.087 -0.0135 -1.6762 -1.2723
   99MOL    H5513971   0.013   7.005   1.068 -0.2832 -0.2982 -0.2237
   99MOL    H5613972   7.474   6.887   1.281  0.8243  2.7289  0.1041
   99MOL    H5713973   7.287   6.934   1.368 -2.2404 -1.6700 -1.5370
   99MOL    C5813974   7.353   6.816   1.121  0.1025 -0.1483 -0.5359
   99MOL    C5913975   7.472   6.737   1.059 -0.2706  0.3162  0.5457
   99MOL    O6013976   7.511   6.647   1.163  0.3906 -0.2095 -0.5468
   99MOL    H6113977   7.285   6.748   1.173  0.2424 -0.9290 -1.3736
   99MOL    H6213978   7.289   6.856   1.043 -0.7954 -0.4826  0.0186
   99MOL    H6313979   0.035   6.793   1.017 -0.4488  0.5082  0.4498
   99MOL    H6413980   7.438   6.595   1.195  0.8930 -0.5130  0.1180
   99MOL    C6513981   7.428   6.647   0.950 -0.1044  0.0987 -0.3034
   99MOL    C6613982   7.385   6.722   0.816 -0.3442  0.3065  0.4852
   99MOL    O6713983   7.497   6.798   0.762 -0.2868  0.4486 -0.2344
   99MOL    H6813984   7.509   6.574   0.941  0.6033  0.9795 -1.2688
   99MOL    H6913985   7.350   6.580   0.985 -1.1188  1.7048  0.5566
   99MOL    H7013986   7.300   6.785   0.842 -0.7583  0.0452 -0.2367
   99MOL    H7113987   7.458   6.884   0.749 -0.1008  0.4915 -0.5023
   99MOL    C7213988   7.345   6.618   0.710 -0.1227 -0.5215 -0.1219
   99MOL    C7313989   7.307   6.680   0.577  0.2209  0.1015 -0.8114
   99MOL    O7413990   7.314   6.576   0.481 -0.3184  0.4054  0.8216
   99MOL    H7513991   7.427   6.548   0.700 -0.9504 -1.8778  2.1154
   99MOL    H7613992   7.253   6.567   0.738  0.2275 -0.3028  1.4780
   99MOL    H7713993   7.384   6.748   0.540  1.0746 -1.5064 -2.0291
   99MOL    H7813994   7.401   6.538   0.479 -0.0758  1.0177 -0.4856
   99MOL    C7913995   7.169   6.747   0.584 -0.1468 -0.7734 -0.2690
   99MOL    C8013996   7.127   6.824   0.453  0.3819  0.4894 -0.2181
   99MOL    O8113997   7.117   6.713   0.360 -0.0688  0.2576  0.4107
   99MOL    H8213998   7.093   6.670   0.600  0.2569 -1.1013  0.0836
   99MOL    H8313999   7.173   6.818   0.666  2.6879 -1.0039 -0.1873
   99MOL    H8414000   7.210   6.888   0.425  0.6736  0.3085  0.2215
   99MOL    H8514001   7.194   6.665   0.385  0.8096  0.7789 -1.2809
   99MOL    C8614002   6.989   6.896   0.456  0.0774  0.0475  0.5496
   99MOL    C8714003   7.004   7.024   0.542  0.4376 -0.3323  0.2416
   99MOL    O8814004   7.066   7.120   0.463 -0.2648  0.0574 -0.6565
   99MOL    H8914005   6.959   6.925   0.356  1.4925  3.9300  1.1655
   99MOL    H9014006   6.910   6.831   0.495  0.0354  0.3067  0.8984
   99MOL    H9114007   7.053   6.994   0.634  1.4243  0.4186 -0.0335
   99MOL    H9214008   7.011   7.141   0.390  0.6049  0.3266 -1.2401
   99MOL    C9314009   6.866   7.085   0.585 -0.6116  0.4616  0.1219
   99MOL    C9414010   6.885   7.202   0.684 -0.8015  0.1727  0.4955
   99MOL    O9514011   6.761   7.217   0.742 -0.6610  0.0643  0.2218
   99MOL    H9614012   6.803   7.110   0.500 -0.5273 -3.3405 -1.1434
   99MOL    H9714013   6.802   7.006   0.622 -1.7754  1.0635 -0.5634
   99MOL    H9814014   6.912   7.284   0.617 -0.8040 -0.0895  0.1659
   99MOL    H9914015   6.764   7.303   0.780  0.6399  0.5770 -0.9996
   99MOL   C10014016   6.996   7.196   0.790  0.3406 -0.2818 -0.1063
   99MOL   C10114017   6.977   7.301   0.900  0.0648  0.7854  0.8740
   99MOL   O10214018   7.088   7.277   0.982 -0.2808  0.1684 -0.5267
   99MOL   H10314019   6.984   7.094   0.828 -0.6621 -0.1443 -0.0489
   99MOL   H10414020   7.093   7.205   0.740 -0.1410 -4.0480 -1.9330
   99MOL   H10514021   6.881   7.287   0.949 -0.8827 -2.5193 -1.8277
   99MOL   H10614022   7.064   7.236   1.063 -0.3665  2.8583  0.8613
   99MOL   C10714023   6.999   7.439   0.837 -0.5773  0.2737  0.4307
   99MOL   C10814024   6.886   0.018   0.802 -0.1143  1.0165 -0.2364
   99MOL   O10914025   6.801   7.492   0.698  0.1824  0.0111  0.0646
   99MOL   H11014026   7.068   7.496   0.900  1.8514 -1.5011 -0.5567
   99MOL   H11114027   7.048   7.424   0.741 -3.2170  0.4699 -0.9817
   99MOL   H11214028   6.922   0.112   0.760  1.1472  0.4528 -0.4597
   99MOL   H11314029   6.796   0.043   0.635 -1.8680 -0.0102  0.1661
   99MOL   C11414030   6.805   0.058   0.923  0.2491  0.1260 -0.0881
   99MOL   C11514031   6.876   0.112   1.052 -0.3932 -1.2286  0.1873
   99MOL   O11614032   6.986   0.187   1.005  0.1349  0.2140 -0.4014
   99MOL   H11714033   6.720   0.122   0.899  0.4769  0.1689 -0.7819
   99MOL   H11814034   6.767   7.484   0.965 -2.6874 -0.0302 -2.9442
   99MOL   H11914035   6.926   0.025   1.094  0.8945  0.0036  1.2343
   99MOL   H12014036   6.955   0.274   0.985  0.0507  0.0773 -0.8617
   99MOL   C12114037   6.783   0.184   1.155  0.4686 -0.6565 -0.5167
   99MOL   C12214038   6.658   0.102   1.208 -0.2306  0.0847 -0.3569
   99MOL   O12314039   6.699   7.489   1.245 -0.5771  0.0669  0.0090
   99MOL   H12414040   6.844   0.217   1.239  0.7431 -1.3777 -0.4267
   99MOL   H12514041   6.748   0.277   1.111 -0.2720 -1.2092 -1.1138
   99MOL   H12614042   6.602   0.101   1.115 -0.5828 -1.6925 -0.1482
   99MOL   H12714043   6.648   7.463   1.320  1.7942 -0.4586  1.4891
   99MOL   C12814044   6.571   0.171   1.321 -0.1539 -0.5739 -0.3983
   99MOL   C12914045   6.500   0.307   1.283  0.1710 -0.3217  0.0899
   99MOL   O13014046   6.424   0.295   1.169 -0.0223  0.1671  0.2750
   99MOL   H13114047   6.501   0.093   1.349  0.5368 -0.4488  1.7971
   99MOL   H13214048   6.623   0.179   1.417 -0.0853 -0.7279 -0.4227
   99MOL   H13314049   6.578   0.383   1.271  2.3643 -2.6560 -0.9632
   99MOL   H13414050   6.388   0.378   1.143 -3.1714 -0.9234  0.9127
   99MOL   C13514051   6.411   0.362   1.402  0.2152  0.4389 -0.0907
   99MOL   C13614052   6.481   0.426   1.517 -0.0694 -0.3613  0.2866
   99MOL   O13714053   6.382   0.475   1.603  0.3236  0.0379  0.2131
   99MOL   H13814054   6.343   0.435   1.358 -2.7851 -1.2948  1.5034
   99MOL   H13914055   6.348   0.283   1.445  1.5049  0.2167  1.4646
   99MOL   H14014056   6.536   0.510   1.475 -0.3166 -1.3282 -2.0336
   99MOL   H14114057   6.335   0.403   1.641  0.0874  0.2649  0.3549
   99MOL   H14214058   6.553   0.357   1.559 -0.0043  0.4331  1.5273
  100MOL     C114059   6.006   0.667   2.712 -0.2246 -0.4246 -0.0303
  100MOL     C214060   5.910   0.618   2.594 -0.4892 -0.1640 -0.3146
  100MOL     O314061   5.989   0.579   2.482  0.2256 -0.1539  0.1518
  100MOL     H414062   6.073   0.746   2.678  1.1354 -1.5922 -0.1128
  100MOL     H514063   6.065   0.586   2.756 -0.7288 -0.4797  0.5473
  100MOL     H614064   5.852   0.699   2.550  1.3833  1.2566 -0.2094
  100MOL     H714065   5.992   0.656   2.427 -0.0150  0.1146  0.5123
  100MOL     H814066   5.962   0.707   2.804 -0.3095 -2.4309  0.8309
  100MOL     C914067   5.823   0.501   2.630  0.2650  0.4433  0.0390
  100MOL    C1014068   5.684   0.545   2.679  0.3755  1.0641  0.0869
  100MOL    O1114069   5.621   0.425   2.710  0.7676  0.0792 -1.1551
  100MOL    H1214070   5.822   0.432   2.545 -1.0407 -1.7536  1.7733
  100MOL    H1314071   5.878   0.439   2.701  2.1734  2.1653  0.1000
  100MOL    H1414072   5.629   0.600   2.602  0.5941 -0.7018 -1.3542
  100MOL    H1514073   5.583   0.387   2.632 -2.7346 -1.4280  1.1606
  100MOL    C1614074   5.679   0.623   2.813  0.3538 -0.4006 -0.0549
  100MOL    C1714075   5.544   0.690   2.855 -0.4214 -0.3575 -0.2962
  100MOL    O1814076   5.569   0.744   2.986 -0.0439 -0.3796  0.1610
  100MOL    H1914077   5.716   0.561   2.895  0.3007  0.0385  0.2985
  100MOL    H2014078   5.751   0.705   2.807  0.3806 -0.3652  0.7364
  100MOL    H2114079   5.466   0.615   2.868 -0.7214  0.1888  1.1562
  100MOL    H2214080   5.579   0.671   3.045 -2.2058 -1.9217 -1.3479
  100MOL    C2314081   5.486   0.789   2.753  0.0230  0.1931 -0.8371
  100MOL    C2414082   5.354   0.854   2.800  0.9250  0.8247 -0.3810
  100MOL    O2514083   5.360   0.981   2.736 -0.1865 -0.2644  0.7134
  100MOL    H2614084   5.567   0.858   2.728  0.7580 -0.9513 -1.6976
  100MOL    H2714085   5.460   0.739   2.659 -2.7490  2.5711 -1.4101
  100MOL    H2814086   5.338   0.860   2.907 -2.0364 -0.2139 -0.7338
  100MOL    H2914087   5.282   1.031   2.754  0.0084  1.2226 -2.1710
  100MOL    C3014088   5.223   0.798   2.738 -0.7675  0.2708 -0.6174
  100MOL    C3114089   5.198   0.651   2.793  0.0995  0.1905 -0.2280
  100MOL    O3214090   5.053   0.651   2.820 -0.6186  0.1788 -0.0229
  100MOL    H3314091   5.143   0.869   2.757  1.3632  1.7831  3.1407
  100MOL    H3414092   5.214   0.801   2.629  2.6897  0.7635 -0.9668
  100MOL    H3514093   5.225   0.634   2.897 -0.7273  0.5321  0.0462
  100MOL    H3614094   5.014   0.664   2.735 -0.4554 -0.8492 -0.2568
  100MOL    C3714095   5.238   0.540   2.694 -0.1944 -0.2739 -0.6258
  100MOL    C3814096   5.204   0.394   2.723 -0.4879 -0.7540 -0.3759
  100MOL    O3914097   5.212   0.317   2.602  0.7700  0.0670 -0.6535
  100MOL    H4014098   5.194   0.562   2.597 -0.1925  1.6180 -0.2047
  100MOL    H4114099   5.346   0.532   2.682 -0.0961 -0.0818  0.1035
  100MOL    H4214100   5.104   0.407   2.764 -1.1614 -0.9794 -1.8754
  100MOL    H4314101   5.123   0.312   2.569  1.5964 -0.8370 -2.7935
  100MOL    C4414102   5.288   0.325   2.832  0.3170  0.1317 -0.2175
  100MOL    C4514103   5.281   0.171   2.847  0.5185  0.3116 -0.5101
  100MOL    O4614104   5.385   0.136   2.939  0.3656 -0.4076 -0.0403
  100MOL    H4714105   5.391   0.359   2.833  0.2348  0.3893  1.4916
  100MOL    H4814106   5.249   0.369   2.924 -1.3061 -1.0387 -0.3247
  100MOL    H4914107   5.310   0.130   2.750  2.5616  1.5666 -0.4627
  100MOL    H5014108   5.469   0.165   2.907  0.6501 -1.4396 -0.2759
  100MOL    C5114109   5.142   0.122   2.898  0.4800  0.1214  0.6400
  100MOL    C5214110   5.117   7.491   2.903  0.1209 -0.3609 -0.6112
  100MOL    O5314111   5.001   7.481   2.977  0.1402 -0.0247 -0.1852
  100MOL    H5414112   5.124   0.164   2.997 -1.7968  0.3586  0.1608
  100MOL    H5514113   5.072   0.174   2.832  1.1411  0.2229  0.0082
  100MOL    H5614114   5.182   7.429   2.965 -1.6654 -2.1590 -0.5197
  100MOL    H5714115   4.985   0.035   3.034  1.0734 -2.2504  3.0995
  100MOL    C5814116   5.104   7.427   2.765  0.7047  0.2813  0.3869
  100MOL    C5914117   5.186   7.302   2.737  0.2011  0.1914 -0.5888
  100MOL    O6014118   5.324   7.325   2.759  0.4000  0.1421 -0.0132
  100MOL    H6114119   4.999   7.413   2.741  0.6082  1.6119  0.0180
  100MOL    H6214120   5.127   7.505   2.692  0.4087  0.3698  0.3891
  100MOL    H6314121   5.154   7.265   2.639  3.0153 -3.1763 -0.3347
  100MOL    H6414122   5.364   7.341   2.675 -4.5578  1.2540 -2.3143
  100MOL    C6514123   5.147   7.179   2.824  0.9901 -0.2800 -0.1270
  100MOL    C6614124   4.996   7.149   2.854  0.0630  0.9450  0.2508
  100MOL    O6714125   4.917   7.142   2.738  0.3383  0.5201 -0.0112
  100MOL    H6814126   5.178   7.089   2.771  0.9260 -1.2709  1.4769
  100MOL    H6914127   5.202   7.183   2.919 -2.2578 -2.8333  1.9844
  100MOL    H7014128   4.965   7.237   2.910 -1.0421  0.4376  0.4299
  100MOL    H7114129   4.958   7.078   2.682  0.1729  0.6248 -0.2571
  100MOL    C7214130   4.974   7.013   2.920  0.4302  0.6375  0.1731
  100MOL    C7314131   4.833   6.971   2.977  0.7625  0.3877  0.1794
  100MOL    O7414132   4.731   7.032   2.902  0.2496  0.3030  0.3235
  100MOL    H7514133   4.987   6.940   2.840 -1.1691  1.4146 -0.8285
  100MOL    H7614134   5.044   6.991   3.000  0.4285 -0.2653 -0.0614
  100MOL    H7714135   4.819   7.002   3.081 -0.3934  0.9644 -0.1421
  100MOL    H7814136   4.778   7.085   2.840  0.9480  1.6292  1.9426
  100MOL    C7914137   4.803   6.825   2.986 -0.1029  0.2197  0.2920
  100MOL    C8014138   4.674   6.773   3.073  0.5466 -0.2360 -0.4046
  100MOL    O8114139   4.637   6.641   3.040  0.0199 -0.0501  0.1690
  100MOL    H8214140   4.814   6.781   2.887  0.0128  2.3800 -0.6917
  100MOL    H8314141   4.896   6.793   3.033 -0.7603 -0.4849  1.1233
  100MOL    H8414142   4.597   6.847   3.051  2.0355  1.1760 -0.9859
  100MOL    H8514143   4.674   6.572   3.093  0.4766 -0.5827 -0.8109
  100MOL    C8614144   4.691   6.773   3.234 -0.2497  0.5076  0.0439
  100MOL    C8714145   4.578   6.709   3.321 -0.5310  0.3875 -0.1840
  100MOL    O8814146   4.612   6.719   3.454 -0.8112 -0.4782  1.0223
  100MOL    H8914147   4.789   6.727   3.252 -0.3271  0.0790 -0.6403
  100MOL    H9014148   4.706   6.878   3.261  1.1247  0.2856  0.2172
  100MOL    H9114149   4.573   6.603   3.298  2.1324  0.6068 -2.0574
  100MOL    H9214150   4.704   6.697   3.459 -0.5508  0.5078  0.7830
  100MOL    C9314151   4.443   6.777   3.300  0.9207  1.0751  0.5515
  100MOL    C9414152   4.328   6.705   3.373 -0.0524  0.0926  0.3121
  100MOL    O9514153   4.358   6.672   3.504 -0.4843 -0.5735 -0.4688
  100MOL    H9614154   4.455   6.877   3.342 -3.1645  1.5625  0.7289
  100MOL    H9714155   4.416   6.791   3.195 -2.1123  1.8582  1.3988
  100MOL    H9814156   4.321   6.608   3.323  0.2267 -0.6932  1.7613
  100MOL    H9914157   4.452   6.687   3.504 -0.8917  2.4299  1.8660
  100MOL   C10014158   4.188   6.775   3.378 -0.3874 -0.2322  0.5511
  100MOL   C10114159   4.126   6.824   3.247  0.0640  0.8131 -0.0304
  100MOL   O10214160   3.985   6.840   3.276 -0.1678  0.1783 -0.3958
  100MOL   H10314161   4.120   6.697   3.414 -0.2120 -0.3273  0.6778
  100MOL   H10414162   4.199   6.861   3.444  2.0451  1.2321 -1.6875
  100MOL   H10514163   4.163   6.758   3.168  0.7147  1.6359 -0.4217
  100MOL   H10614164   3.981   6.857   3.369  2.6870 -0.3204 -0.1440
  100MOL   C10714165   4.165   6.969   3.200 -1.1956  0.3321  0.5087
  100MOL   C10814166   4.123   7.010   3.054 -0.0178 -0.4733 -0.6138
  100MOL   O10914167   4.123   7.154   3.051  0.0680  0.1148 -0.3957
  100MOL   H11014168   4.128   7.040   3.274  0.4329 -0.8065  2.4698
  100MOL   H11114169   4.273   6.983   3.203 -1.3316  1.8213 -0.8851
  100MOL   H11214170   4.025   6.968   3.030  0.0670 -0.1882 -1.4982
  100MOL   H11314171   4.052   7.179   3.108  1.5994  1.6840  0.9057
  100MOL   C11414172   4.221   6.980   2.933  0.0003 -0.2156  0.2763
  100MOL   C11514173   4.193   6.837   2.874  0.1425  0.9215 -0.4842
  100MOL   O11614174   4.057   6.840   2.827 -0.1556  0.0918 -0.1693
  100MOL   H11714175   4.198   7.046   2.849 -0.8413 -0.0735  0.6047
  100MOL   H11814176   4.325   6.991   2.962  0.4797  0.4539 -1.6056
  100MOL   H11914177   4.206   6.768   2.956 -0.1885  1.5273  0.0826
  100MOL   H12014178   4.038   6.754   2.794 -0.6435  1.1485 -2.7759
  100MOL   C12114179   4.292   6.805   2.760  0.0790 -0.3245 -0.2842
  100MOL   C12214180   4.441   6.778   2.807 -0.2461  0.1661 -0.0565
  100MOL   O12314181   4.453   6.650   2.860 -0.1380 -0.3613 -0.4279
  100MOL   H12414182   4.264   6.711   2.714 -1.5685  0.2062 -0.4036
  100MOL   H12514183   4.284   6.880   2.682  1.2342  2.4157  2.1265
  100MOL   H12614184   4.473   6.853   2.880  0.7297 -0.5744  0.2886
  100MOL   H12714185   4.537   6.646   2.904 -0.8633 -0.8100  0.9254
  100MOL   C12814186   4.539   6.772   2.694 -0.1085  0.0876  0.5031
  100MOL   C12914187   4.551   6.904   2.614 -0.5672 -0.4739 -0.4158
  100MOL   O13014188   4.684   6.953   2.608  0.0952  0.1686  0.0447
  100MOL   H13114189   4.639   6.751   2.733  0.3713  0.3287 -0.5789
  100MOL   H13214190   4.514   6.687   2.630  0.0462  0.7226 -0.4110
  100MOL   H13314191   4.493   6.966   2.682 -0.6892 -2.7044  1.5776
  100MOL   H13414192   4.697   6.972   2.700 -1.6610 -0.1999  0.3788
  100MOL   C13514193   4.490   6.901   2.473  0.3045 -0.0531 -0.7551
  100MOL   C13614194   4.433   7.033   2.423  0.2145  0.0520 -0.3639
  100MOL   O13714195   4.388   7.015   2.287  0.0315  0.6760 -0.1492
  100MOL   H13814196   4.559   6.864   2.397  1.2439 -0.7097  0.3934
  100MOL   H13914197   4.410   6.827   2.480  1.7971 -1.7900 -1.7670
  100MOL   H14014198   4.499   7.120   2.418  2.0247 -1.1688  1.3358
  100MOL   H14114199   4.389   7.102   2.250 -0.8058  0.5537 -0.4490
  100MOL   H14214200   4.344   7.055   2.481 -1.3699 -2.3591 -1.7855
  101MOL     C114201   4.566   2.112   6.638 -0.1109  0.9664  0.1660
  101MOL     C214202   4.474   2.092   6.519 -0.0243 -0.0387 -0.1029
  101MOL     O314203   4.403   2.218   6.508 -0.0837 -0.6002  0.0078
  101MOL     H414204   4.643   2.187   6.620  1.3925 -0.9761 -1.6712
  101MOL     H514205   4.632   2.028   6.659  1.2204  2.0969  0.6557
  101MOL     H614206   4.397   2.023   6.555 -0.0744 -0.1911 -0.4954
  101MOL     H714207   4.321   2.215   6.554 -0.2752 -2.2169 -0.4240
  101MOL     H814208   4.516   2.155   6.725 -0.5603 -1.9799  1.4007
  101MOL     C914209   4.533   2.043   6.386  0.4075  1.0049 -0.5977
  101MOL    C1014210   4.587   1.898   6.394  0.4960  0.4731 -1.1816
  101MOL    O1114211   4.474   1.809   6.412  0.4156 -0.2793 -0.0044
  101MOL    H1214212   4.462   2.061   6.306  0.3147 -0.8216 -0.9286
  101MOL    H1314213   4.616   2.108   6.356  1.5763 -0.2685 -0.1707
  101MOL    H1414214   4.651   1.889   6.482  0.1611 -0.5897 -1.0449
  101MOL    H1514215   4.408   1.815   6.345 -0.0771  1.2563  0.5777
  101MOL    C1614216   4.658   1.862   6.263 -0.7189 -0.3165  0.2907
  101MOL    C1714217   4.760   1.744   6.275 -0.5566  0.6001 -0.6989
  101MOL    O1814218   4.874   1.783   6.352 -0.2947 -0.0206  0.5405
  101MOL    H1914219   4.579   1.842   6.190 -0.0157 -1.8277 -0.0603
  101MOL    H2014220   4.709   1.951   6.226  2.7565 -1.7135  1.6250
  101MOL    H2114221   4.804   1.727   6.177  2.2567 -0.7721  0.7100
  101MOL    H2214222   4.947   1.782   6.293 -0.5797 -1.4809  0.1766
  101MOL    C2314223   4.703   1.610   6.325 -0.6279 -0.0120  0.5186
  101MOL    C2414224   4.777   1.478   6.274  0.1363  0.3939 -0.0827
  101MOL    O2514225   4.771   1.472   6.138 -0.4905 -0.1295 -0.6389
  101MOL    H2614226   4.698   1.613   6.434 -1.6324 -1.7367  0.5322
  101MOL    H2714227   4.597   1.596   6.308 -1.0055 -0.3631  2.9282
  101MOL    H2814228   4.716   1.399   6.317  1.2143 -1.2826 -1.5834
  101MOL    H2914229   4.700   1.418   6.106 -1.5658  0.4470  0.7266
  101MOL    C3014230   4.922   1.467   6.319  0.0196 -0.5111  0.0455
  101MOL    C3114231   4.942   1.471   6.465 -0.4617  0.2437  0.5933
  101MOL    O3214232   4.867   1.382   6.530  0.0162 -0.2104 -0.6331
  101MOL    H3314233   4.957   1.372   6.279  0.7219  0.2248 -1.1437
  101MOL    H3414234   4.983   1.542   6.269 -1.8145 -0.6069 -2.4106
  101MOL    H3514235   4.901   1.566   6.498 -1.1745  0.0547  0.2486
  101MOL    H3614236   4.834   1.424   6.608 -2.2160  0.7826 -2.0459
  101MOL    C3714237   5.083   1.464   6.524  0.0566  0.4234  0.4003
  101MOL    C3814238   5.196   1.567   6.498 -0.0030 -0.3846  0.2988
  101MOL    O3914239   5.145   1.688   6.554  0.7004  0.1491  0.0032
  101MOL    H4014240   5.071   1.447   6.631  0.3714  0.4226  0.4351
  101MOL    H4114241   5.130   1.376   6.479  0.1866  1.0419 -0.6985
  101MOL    H4214242   5.213   1.589   6.392 -1.8001  1.0731  0.2897
  101MOL    H4314243   5.082   1.718   6.491 -0.7042  0.0453  1.3324
  101MOL    C4414244   5.329   1.533   6.572 -0.6775  0.6150  0.3651
  101MOL    C4514245   5.471   1.576   6.526 -0.1415  0.0906  0.6529
  101MOL    O4614246   5.552   1.538   6.640  0.2667  0.0424  0.2613
  101MOL    H4714247   5.314   1.575   6.672  0.1210  0.6243  0.4895
  101MOL    H4814248   5.327   1.425   6.589  1.2310  0.9989  3.4756
  101MOL    H4914249   5.473   1.685   6.514  0.7825 -0.0903 -1.0455
  101MOL    H5014250   5.508   1.467   6.684  0.2789 -0.6614 -0.8382
  101MOL    C5114251   5.504   1.497   6.397  0.0333 -0.1265  0.1541
  101MOL    C5214252   5.655   1.511   6.360  0.2216  0.0765 -0.1760
  101MOL    O5314253   5.739   1.436   6.455  0.9024 -0.2501 -0.4356
  101MOL    H5414254   5.480   1.391   6.403  0.6190 -0.2071  1.2593
  101MOL    H5514255   5.449   1.539   6.313  2.0107  0.7312 -0.7525
  101MOL    H5614256   5.685   1.613   6.384 -1.8715  0.2523  1.8782
  101MOL    H5714257   5.711   1.474   6.537  0.6401 -2.1803  0.3956
  101MOL    C5814258   5.681   1.471   6.213  0.2491 -0.4036 -0.4553
  101MOL    C5914259   5.823   1.509   6.150 -0.1488  0.1271 -0.8726
  101MOL    O6014260   5.814   1.461   6.014  0.1553 -0.3699 -0.4791
  101MOL    H6114261   5.663   1.363   6.205  1.3395 -0.4439 -2.6894
  101MOL    H6214262   5.595   1.501   6.154  1.0407  1.1348 -0.8314
  101MOL    H6314263   5.902   1.457   6.205 -0.4027  1.0382  0.3745
  101MOL    H6414264   5.891   1.487   5.966 -1.0332  1.6215 -1.3571
  101MOL    C6514265   5.852   1.656   6.146 -0.1426 -0.7754  0.3452
  101MOL    C6614266   5.985   1.689   6.207 -0.0342  0.9790  0.7599
  101MOL    O6714267   6.089   1.643   6.123 -0.2412 -0.1396  0.6240
  101MOL    H6814268   5.840   1.695   6.045  1.7672  2.2466  1.2281
  101MOL    H6914269   5.779   1.711   6.206 -0.9630 -0.9658 -0.4698
  101MOL    H7014270   5.976   1.635   6.302 -3.0250  0.2915  0.1338
  101MOL    H7114271   6.133   1.573   6.168  1.5122 -1.4765 -2.9489
  101MOL    C7214272   6.001   1.836   6.256 -0.5216 -0.3847  0.4657
  101MOL    C7314273   6.100   1.840   6.375 -0.5479  0.0535 -0.3590
  101MOL    O7414274   6.230   1.801   6.327  0.1980 -0.3154 -0.1675
  101MOL    H7514275   6.021   1.914   6.182  0.1535  0.7572  1.8364
  101MOL    H7614276   5.909   1.876   6.298  0.6909  0.6295  2.1801
  101MOL    H7714277   6.076   1.767   6.452 -2.2636 -0.0603 -0.9950
  101MOL    H7814278   6.229   1.710   6.302  1.3707 -0.8137  1.5421
  101MOL    C7914279   6.115   1.975   6.440 -0.1541  0.3151  0.2051
  101MOL    C8014280   5.996   2.027   6.516  0.2069  0.1200  0.4590
  101MOL    O8114281   6.021   2.044   6.650  0.3074 -0.2068  0.1691
  101MOL    H8214282   6.207   1.978   6.497 -0.4471 -1.3419  0.7675
  101MOL    H8314283   6.145   2.048   6.364  0.9079 -0.3082  0.0255
  101MOL    H8414284   5.923   1.946   6.513  2.2695 -1.7798  0.3362
  101MOL    H8514285   6.020   1.955   6.683  0.1476  0.1036  1.0251
  101MOL    C8614286   5.948   2.170   6.471  0.1193 -1.2552  0.1287
  101MOL    C8714287   5.906   2.167   6.324  0.4737 -0.2196  0.7916
  101MOL    O8814288   5.778   2.100   6.310 -0.6573 -0.2964  0.5557
  101MOL    H8914289   5.854   2.204   6.514  1.1145  1.5245  0.1754
  101MOL    H9014290   6.026   2.244   6.488  0.2004 -1.0506 -1.0305
  101MOL    H9114291   5.977   2.115   6.259 -1.2016 -2.5041  0.7299
  101MOL    H9214292   5.732   2.093   6.393 -1.8675 -2.3167 -0.2692
  101MOL    C9314293   5.885   2.310   6.266 -0.1645 -0.0587 -0.8134
  101MOL    C9414294   6.025   2.365   6.230  0.1682  0.2458  0.4675
  101MOL    O9514295   6.046   2.359   6.090 -0.6730  0.0444  0.2818
  101MOL    H9614296   5.812   2.293   6.187  0.9232  0.9814 -2.0606
  101MOL    H9714297   5.819   2.367   6.331  0.2758  1.0919 -1.3674
  101MOL    H9814298   6.094   2.299   6.281 -0.4640 -0.1168  0.8612
  101MOL    H9914299   6.119   2.417   6.076 -0.0484 -0.7714  0.1470
  101MOL   C10014300   6.034   2.516   6.273  0.3231  0.2805 -0.7476
  101MOL   C10114301   6.036   2.539   6.424  0.0321  0.4493 -0.3297
  101MOL   O10214302   6.170   2.528   6.476  0.1884  0.1904 -0.4183
  101MOL   H10314303   6.113   2.570   6.222  0.1423  2.0584  0.7713
  101MOL   H10414304   5.945   2.562   6.230  1.2336  1.8365 -1.0153
  101MOL   H10514305   5.990   2.454   6.475  1.9371 -1.3654 -1.5588
  101MOL   H10614306   6.209   2.456   6.430 -0.8720 -0.3234 -0.5186
  101MOL   C10714307   5.984   2.677   6.467  0.4882  0.1135 -0.0605
  101MOL   C10814308   5.979   2.700   6.625 -0.7478  0.3935  0.1157
  101MOL   O10914309   6.113   2.698   6.672  0.0481 -0.4563 -0.1115
  101MOL   H11014310   6.037   2.764   6.430 -1.3060  0.4890 -1.8348
  101MOL   H11114311   5.880   2.684   6.434  0.1728  1.6120  1.2012
  101MOL   H11214312   5.929   2.615   6.672 -0.9823  0.4451 -0.0402
  101MOL   H11314313   6.146   2.627   6.619  0.2222 -1.2750  1.0803
  101MOL   C11414314   5.916   2.830   6.674 -0.1642  0.4505 -0.2382
  101MOL   C11514315   5.770   2.861   6.644 -0.0288 -0.5045  0.3671
  101MOL   O11614316   5.722   2.933   6.751 -0.2126  0.1314 -0.2689
  101MOL   H11714317   5.925   2.825   6.783  0.5392  1.0774 -0.2616
  101MOL   H11814318   5.979   2.913   6.645  0.2402  0.7353  1.4140
  101MOL   H11914319   5.718   2.766   6.633  1.1860 -1.0690 -0.7009
  101MOL   H12014320   5.640   2.957   6.710 -0.8012 -0.8067  0.3333
  101MOL   C12114321   5.746   2.947   6.526 -0.0275  0.4149 -0.2130
  101MOL   C12214322   5.600   2.958   6.477 -0.4006  0.2436  1.0391
  101MOL   O12314323   5.529   3.030   6.578  0.2685 -1.0191 -0.2061
  101MOL   H12414324   5.789   3.046   6.546 -1.3144  1.3621 -2.0839
  101MOL   H12514325   5.801   2.909   6.440  0.6466 -1.6848  1.1191
  101MOL   H12614326   5.555   2.860   6.461  0.4418  0.0276 -0.1371
  101MOL   H12714327   5.441   3.001   6.596  0.7320 -0.6406  3.0692
  101MOL   C12814328   5.591   3.047   6.346 -0.4557  0.5058 -0.5091
  101MOL   C12914329   5.461   3.043   6.268  1.1130  0.4394  0.8001
  101MOL   O13014330   5.465   3.144   6.173  0.4116 -0.7203  0.2859
  101MOL   H13114331   5.629   3.146   6.370  0.2712  0.6394 -2.1127
  101MOL   H13214332   5.655   3.009   6.266  0.8225  0.4493  0.5398
  101MOL   H13314333   5.374   3.059   6.332  0.1304  0.1438 -0.4349
  101MOL   H13414334   5.532   3.118   6.112  1.5166 -0.1232  1.2080
  101MOL   C13514335   5.429   2.903   6.191 -0.1258 -0.0527 -0.2284
  101MOL   C13614336   5.321   2.913   6.091 -0.2712 -0.4566  0.4544
  101MOL   O13714337   5.273   2.785   6.055  0.4431 -0.0841  0.2983
  101MOL   H13814338   5.518   2.853   6.154 -0.7264 -0.1582 -1.5487
  101MOL   H13914339   5.382   2.832   6.259  0.1941 -0.7015 -0.6783
  101MOL   H14014340   5.346   2.973   6.003  0.3672 -0.5522  0.5707
  101MOL   H14114341   5.233   2.744   6.129 -0.5409 -1.4084 -0.9444
  101MOL   H14214342   5.239   2.974   6.132  0.3352  0.2737  0.5922
  102MOL     C114343   3.574   2.778   6.655 -0.4466  0.4959 -0.3028
  102MOL     C214344   3.464   2.877   6.619  0.4454  0.6110 -0.6392
  102MOL     O314345   3.529   2.997   6.582  0.3409  0.5759  0.1862
  102MOL     H414346   3.530   2.679   6.665 -0.2737  0.5765  1.3369
  102MOL     H514347   3.616   2.798   6.753 -0.0454 -1.7005 -0.0156
  102MOL     H614348   3.404   2.888   6.709 -1.3196  2.2420 -1.9825
  102MOL     H714349   3.545   3.051   6.657  0.1659 -0.7913  1.2259
  102MOL     H814350   3.658   2.767   6.586 -1.4688  0.2517 -1.5240
  102MOL     C914351   3.381   2.832   6.494 -0.1409 -0.0583 -0.9004
  102MOL    C1014352   3.264   2.928   6.472  0.3402 -0.9773  0.4768
  102MOL    O1114353   3.181   2.873   6.368 -0.9559 -0.2260 -0.6687
  102MOL    H1214354   3.448   2.818   6.409  0.9738 -1.6009  0.2080
  102MOL    H1314355   3.345   2.730   6.507 -0.2042  0.0944  0.1663
  102MOL    H1414356   3.300   3.025   6.438 -2.3339 -0.1850 -0.2391
  102MOL    H1514357   3.232   2.806   6.325  0.1095  0.2795 -0.1955
  102MOL    C1614358   3.170   2.958   6.593 -0.2787  0.5070  0.6133
  102MOL    C1714359   3.036   3.025   6.564  0.5406 -0.3825  0.9956
  102MOL    O1814360   2.969   3.038   6.689 -0.1913 -0.2409  0.2057
  102MOL    H1914361   3.155   2.860   6.638 -2.4488  0.8298  0.6519
  102MOL    H2014362   3.222   3.017   6.669 -1.2535  0.5599  1.2601
  102MOL    H2114363   2.978   2.957   6.501 -3.2894  1.8208  1.9524
  102MOL    H2214364   2.950   2.949   6.713  0.5186 -0.7145 -0.9685
  102MOL    C2314365   3.043   3.157   6.488  0.2496  1.6024  0.6175
  102MOL    C2414366   3.120   3.267   6.560  0.2348  0.3243  0.1545
  102MOL    O2514367   3.251   3.271   6.504  0.1769 -0.2926  0.3796
  102MOL    H2614368   3.068   3.143   6.383 -3.4613 -0.2725 -0.0846
  102MOL    H2714369   2.939   3.187   6.481 -0.2757 -0.4737 -0.6934
  102MOL    H2814370   3.119   3.265   6.669  2.3265  1.6934  0.2150
  102MOL    H2914371   3.241   3.233   6.417 -0.2737 -0.2724  0.4184
  102MOL    C3014372   3.054   3.404   6.543 -0.2538  0.6412 -0.4044
  102MOL    C3114373   2.914   3.416   6.612 -0.0127 -0.8424  0.2957
  102MOL    O3214374   2.935   3.463   6.748 -0.1613 -0.0137  0.4283
  102MOL    H3314375   3.117   3.487   6.576  1.0058 -0.3421 -0.2732
  102MOL    H3414376   3.046   3.426   6.436 -2.2042 -1.5597 -0.7217
  102MOL    H3514377   2.869   3.317   6.607 -1.2302 -0.2057 -1.6359
  102MOL    H3614378   2.890   3.544   6.764  2.1081  1.6066 -1.0823
  102MOL    C3714379   2.829   3.516   6.536 -0.2113  0.1772  0.8708
  102MOL    C3814380   2.681   3.536   6.571  0.1325  0.8308  0.1949
  102MOL    O3914381   2.660   3.623   6.683 -0.3180 -0.9756  0.4948
  102MOL    H4014382   2.876   3.614   6.530  0.0418  0.2262  3.0891
  102MOL    H4114383   2.835   3.483   6.433  0.2228  0.8408  0.6829
  102MOL    H4214384   2.636   3.440   6.593 -1.0363  0.5831 -3.0388
  102MOL    H4314385   2.577   3.603   6.725 -1.1710  2.7446  0.7514
  102MOL    C4414386   2.591   3.605   6.466  0.9802 -0.1469 -0.1883
  102MOL    C4514387   2.527   3.518   6.346 -0.3914 -0.8985 -0.4369
  102MOL    O4614388   2.447   3.411   6.387 -0.5104  0.2096  0.5366
  102MOL    H4714389   2.503   3.648   6.515  0.7393 -1.1067  0.2461
  102MOL    H4814390   2.655   3.678   6.418  4.7246 -2.8707  0.4395
  102MOL    H4914391   2.608   3.470   6.291  2.1645  1.5941  0.9920
  102MOL    H5014392   2.499   3.332   6.387  0.2976  0.6726 -2.6555
  102MOL    C5114393   2.424   3.591   6.248  0.3510  0.0763 -0.0338
  102MOL    C5214394   2.484   3.722   6.183 -0.2023 -0.0649  0.4252
  102MOL    O5314395   2.435   3.723   6.048 -0.6251 -0.3349 -0.2162
  102MOL    H5414396   2.404   3.515   6.172 -0.9541  0.3269  0.0539
  102MOL    H5514397   2.328   3.617   6.292  0.4036 -0.3469  0.3319
  102MOL    H5614398   2.591   3.713   6.170 -0.1255  1.2957  0.0668
  102MOL    H5714399   2.360   3.668   6.035 -0.4122 -0.3302 -1.5470
  102MOL    C5814400   2.457   3.856   6.252  0.4964 -0.1156  0.4368
  102MOL    C5914401   2.314   3.903   6.282  0.0944 -0.1177 -0.0883
  102MOL    O6014402   2.307   4.021   6.354 -0.6618 -0.3070 -0.2754
  102MOL    H6114403   2.499   3.853   6.352 -1.6947 -2.5407  1.3489
  102MOL    H6214404   2.508   3.925   6.185 -3.2177  2.0643 -0.2888
  102MOL    H6314405   2.270   3.834   6.354  2.4042 -1.9772 -0.3841
  102MOL    H6414406   2.276   3.987   6.436 -0.0940  0.6536  0.3364
  102MOL    C6514407   2.220   3.921   6.156  0.7100 -0.6326 -0.2461
  102MOL    C6614408   2.066   3.931   6.192  1.0417  0.4266  0.5217
  102MOL    O6714409   2.002   3.999   6.082  0.1166 -0.1094  0.2665
  102MOL    H6814410   2.252   4.009   6.101  0.7485  0.2252  1.1240
  102MOL    H6914411   2.230   3.849   6.076 -0.1684 -0.7592 -0.2443
  102MOL    H7014412   2.051   3.985   6.286 -1.4969 -1.6396  1.3407
  102MOL    H7114413   2.043   4.083   6.073  0.1092 -0.1538 -0.1907
  102MOL    C7214414   1.997   3.794   6.206 -0.1847 -0.4732  0.2642
  102MOL    C7314415   1.846   3.800   6.245 -0.0014 -0.1435 -0.3754
  102MOL    O7414416   1.778   3.850   6.136 -0.4363  0.1565  0.5471
  102MOL    H7514417   2.001   3.734   6.114 -1.5373 -1.9872  1.1649
  102MOL    H7614418   2.041   3.741   6.291 -0.3162 -0.2392  0.4776
  102MOL    H7714419   1.836   3.876   6.322  1.2237  0.3752 -0.7201
  102MOL    H7814420   1.828   3.920   6.098  0.0938  0.3454  1.5811
  102MOL    C7914421   1.786   3.672   6.293  0.1747  0.0297 -0.7318
  102MOL    C8014422   1.750   3.555   6.200  0.0548 -0.1148  0.1628
  102MOL    O8114423   1.666   3.465   6.273  0.2685  0.3874 -0.0708
  102MOL    H8214424   1.852   3.625   6.366 -2.0821  0.2974  1.5636
  102MOL    H8314425   1.694   3.694   6.348  1.3788 -1.6450  2.0917
  102MOL    H8414426   1.852   3.518   6.188 -0.0283  0.3779 -2.4180
  102MOL    H8514427   1.688   3.385   6.229 -3.5030 -0.4371 -0.5635
  102MOL    C8614428   1.690   3.573   6.059  0.0954  0.8134  0.6510
  102MOL    C8714429   1.790   3.554   5.944  0.5308  0.1902  0.4734
  102MOL    O8814430   1.800   3.413   5.907  0.2065  0.3037  0.0977
  102MOL    H8914431   1.606   3.507   6.041 -0.3740  2.0918 -2.1441
  102MOL    H9014432   1.643   3.671   6.051 -0.1399  0.7661  1.4637
  102MOL    H9114433   1.883   3.608   5.960  0.1253  0.6920  1.1902
  102MOL    H9214434   1.730   3.386   5.849 -0.5517 -2.4001  2.1564
  102MOL    C9314435   1.729   3.633   5.819  0.2219  0.0772  0.2431
  102MOL    C9414436   1.749   3.787   5.814 -0.1873  0.3686  0.2460
  102MOL    O9514437   1.832   3.816   5.703 -0.0384  0.4211 -0.2897
  102MOL    H9614438   1.790   3.597   5.736  0.8614  0.6859  0.4399
  102MOL    H9714439   1.626   3.600   5.810 -0.4491  1.5622  2.1920
  102MOL    H9814440   1.785   3.834   5.906 -2.8324 -2.0930  2.6404
  102MOL    H9914441   1.885   3.890   5.728 -0.7677  0.7695  0.2415
  102MOL   C10014442   1.618   3.865   5.783  0.6460 -0.7170 -0.0598
  102MOL   C10114443   1.505   3.866   5.892  0.1866  0.2664  0.5191
  102MOL   O10214444   1.550   3.947   6.001  0.0825 -0.0603  0.5468
  102MOL   H10314445   1.632   3.970   5.759 -2.0889 -0.4724 -0.8294
  102MOL   H10414446   1.582   3.827   5.687  2.2821 -1.6307 -0.3238
  102MOL   H10514447   1.483   3.768   5.933 -2.5569  0.5791 -0.1009
  102MOL   H10614448   1.621   3.902   6.042 -0.6358 -1.2150  0.5430
  102MOL   C10714449   1.373   3.947   5.847  0.6873  0.6864  0.2934
  102MOL   C10814450   1.252   3.860   5.809  0.6123  0.2460 -0.5475
  102MOL   O10914451   1.157   3.947   5.747 -0.4176 -0.2413 -0.5643
  102MOL   H11014452   1.331   4.021   5.915  2.3471  1.9589 -0.0405
  102MOL   H11114453   1.411   4.007   5.764  0.2477  2.4534  1.3716
  102MOL   H11214454   1.215   3.817   5.902 -2.4324  1.5046 -1.1113
  102MOL   H11314455   1.137   4.020   5.804  0.1887 -0.9915  0.6288
  102MOL   C11414456   1.276   3.761   5.699  0.2229 -0.6554 -0.0434
  102MOL   C11514457   1.178   3.651   5.688  0.4702  0.0774  0.7669
  102MOL   O11614458   1.133   3.656   5.551 -0.7677  0.2046 -0.2420
  102MOL   H11714459   1.302   3.800   5.601  0.3200 -0.5049  0.0422
  102MOL   H11814460   1.370   3.717   5.733  0.0988 -0.1458  0.9902
  102MOL   H11914461   1.093   3.679   5.752  1.4512  0.1861  2.0403
  102MOL   H12014462   1.085   3.736   5.536 -0.5884  0.4625  0.5572
  102MOL   C12114463   1.237   3.513   5.731  1.0672 -0.0670  0.2524
  102MOL   C12214464   1.302   3.491   5.861 -0.0482  0.0054 -0.8579
  102MOL   O12314465   1.213   3.526   5.961 -0.0296 -0.0909 -0.2792
  102MOL   H12414466   1.168   3.432   5.706 -0.5758  1.6960 -1.0968
  102MOL   H12514467   1.302   3.486   5.647  0.7155 -0.6323  0.1587
  102MOL   H12614468   1.382   3.564   5.878  0.9908 -1.0062 -1.3513
  102MOL   H12714469   1.265   3.536   6.038 -1.6941  2.2169  0.5996
  102MOL   C12814470   1.356   3.346   5.887 -0.2550  0.4278 -0.4671
  102MOL   C12914471   1.451   3.282   5.785  0.0910  0.0124  0.7214
  102MOL   O13014472   1.567   3.359   5.776  0.0366 -0.1587  0.1591
  102MOL   H13114473   1.417   3.345   5.978 -0.1737 -1.6565 -0.5253
  102MOL   H13214474   1.275   3.277   5.913  1.0424 -0.3855  1.6032
  102MOL   H13314475   1.404   3.280   5.687  2.0375  1.8689 -0.2897
  102MOL   H13414476   1.604   3.343   5.690 -0.7393 -2.4935  0.2199
  102MOL   C13514477   1.479   3.134   5.820 -0.3779  0.1322 -0.3047
  102MOL   C13614478   1.470   3.039   5.696 -0.1502 -0.2474  0.4812
  102MOL   O13714479   1.466   2.907   5.737 -0.3969  0.5665  0.5801
  102MOL   H13814480   1.573   3.139   5.874  0.7523  0.9457 -2.3001
  102MOL   H13914481   1.410   3.096   5.896 -0.0978 -0.4402 -0.3291
  102MOL   H14014482   1.559   3.041   5.633 -1.7238 -1.5971 -1.8578
  102MOL   H14114483   1.457   2.855   5.658  0.3745  1.9496 -0.4572
  102MOL   H14214484   1.385   3.052   5.630  1.4238  2.5344 -1.1394
  103MOL     C114485   1.564   0.461   4.443 -1.0764  0.0220 -0.3741
  103MOL     C214486   1.456   0.385   4.372 -0.5387 -0.3851 -0.5793
  103MOL     O314487   1.372   0.338   4.478 -0.2719  0.0382  0.3450
  103MOL     H414488   1.660   0.448   4.394 -0.6099  0.9882  0.2612
  103MOL     H514489   1.584   0.429   4.545  1.7294  0.8170 -0.6184
  103MOL     H614490   1.492   0.296   4.319  0.2113 -0.4661  0.0526
  103MOL     H714491   1.414   0.267   4.524 -0.3748 -1.3919 -1.6760
  103MOL     H814492   1.549   0.569   4.451  0.0405  0.2459 -1.1508
  103MOL     C914493   1.365   0.470   4.284  0.1324 -0.2716  0.1166
  103MOL    C1014494   1.417   0.482   4.144  0.6900  0.1212  0.6277
  103MOL    O1114495   1.306   0.507   4.063  0.1471 -0.4315 -0.1878
  103MOL    H1214496   1.268   0.421   4.283 -0.7236  1.3082  1.8466
  103MOL    H1314497   1.359   0.570   4.328 -0.2678  0.4135 -1.4600
  103MOL    H1414498   1.457   0.389   4.105  0.2901  0.0953  0.2761
  103MOL    H1514499   1.234   0.461   4.101  1.2734 -1.3171  0.9232
  103MOL    C1614500   1.511   0.596   4.131 -0.0504 -1.4887 -0.2885
  103MOL    C1714501   1.577   0.603   3.995  0.6687  0.1398 -0.2350
  103MOL    O1814502   1.485   0.642   3.892 -0.1932  1.5573  0.3039
  103MOL    H1914503   1.459   0.684   4.169  1.8643  0.1919 -1.4450
  103MOL    H2014504   1.591   0.581   4.202  2.6509  0.7135 -2.7482
  103MOL    H2114505   1.630   0.508   3.983 -0.1781 -0.5669  1.4847
  103MOL    H2214506   1.399   0.604   3.902  1.0889 -1.0400  1.9745
  103MOL    C2314507   1.690   0.701   3.994  0.3506 -0.5709 -0.4357
  103MOL    C2414508   1.794   0.699   3.882  0.2006  0.0425 -0.1874
  103MOL    O2514509   1.720   0.741   3.761  0.0667 -0.4291 -0.1784
  103MOL    H2614510   1.654   0.800   4.021  0.9767 -0.8055  1.3397
  103MOL    H2714511   1.746   0.674   4.084 -2.2349 -2.3059  0.7267
  103MOL    H2814512   1.826   0.596   3.868 -1.8548 -0.8113  1.1255
  103MOL    H2914513   1.630   0.716   3.777  0.7526 -3.2327 -0.3888
  103MOL    C3014514   1.913   0.807   3.893 -0.0393  0.5608  0.3153
  103MOL    C3114515   2.015   0.774   4.007  0.2484 -0.0879  0.3132
  103MOL    O3214516   2.078   0.647   3.985  0.7454  0.2025 -0.5280
  103MOL    H3314517   1.966   0.822   3.799  1.6706  1.7253  1.4277
  103MOL    H3414518   1.859   0.900   3.913  0.0018  0.5131  0.6532
  103MOL    H3514519   1.951   0.783   4.094 -2.3424 -3.7814 -1.1016
  103MOL    H3614520   2.141   0.638   4.055 -0.5599 -0.0443  0.6227
  103MOL    C3714521   2.124   0.883   4.026 -0.0173  0.9441  0.4262
  103MOL    C3814522   2.163   0.917   4.170  0.3975 -0.3120 -0.4536
  103MOL    O3914523   2.051   0.986   4.228  0.4205  0.6253  0.5408
  103MOL    H4014524   2.219   0.867   3.974 -0.5684 -1.5891  0.1324
  103MOL    H4114525   2.084   0.974   3.981  1.0669  0.0574 -2.4732
  103MOL    H4214526   2.244   0.990   4.172  0.6718 -0.6287 -0.0014
  103MOL    H4314527   2.039   1.067   4.180  0.2075  0.6112  0.5740
  103MOL    C4414528   2.203   0.798   4.265  0.1592  0.3892 -0.3093
  103MOL    C4514529   2.340   0.718   4.253 -0.7331  0.5986  0.5254
  103MOL    O4614530   2.327   0.628   4.145  0.1339  0.0468  0.0556
  103MOL    H4714531   2.191   0.834   4.367 -0.8508  1.6269 -0.8503
  103MOL    H4814532   2.124   0.723   4.269  0.8425 -0.2597  1.3735
  103MOL    H4914533   2.338   0.653   4.341  0.2542 -0.0479  0.0748
  103MOL    H5014534   2.343   0.669   4.061  1.6025 -1.5522 -0.4776
  103MOL    C5114535   2.466   0.806   4.244 -0.0589 -0.4205 -0.1721
  103MOL    C5214536   2.550   0.840   4.366  0.2644  0.5812 -0.9297
  103MOL    O5314537   2.668   0.911   4.328  0.4497 -0.2576 -0.0670
  103MOL    H5414538   2.534   0.764   4.170  1.8538  1.7235  0.3131
  103MOL    H5514539   2.441   0.898   4.191 -2.6475 -0.1921  1.3781
  103MOL    H5614540   2.587   0.751   4.417 -2.4027  0.4778  0.9290
  103MOL    H5714541   2.718   0.911   4.408 -0.5235  0.5198  0.5587
  103MOL    C5814542   2.472   0.911   4.476  0.0036  0.7702  0.4049
  103MOL    C5914543   2.424   1.059   4.458  0.0757 -0.0593 -0.0799
  103MOL    O6014544   2.303   1.075   4.527 -0.4107  0.0570 -0.0425
  103MOL    H6114545   2.383   0.851   4.493 -0.4597  0.9677 -1.2671
  103MOL    H6214546   2.533   0.912   4.567 -1.6857  0.0367  1.5694
  103MOL    H6314547   2.383   1.072   4.358 -0.7385  0.3385  0.3082
  103MOL    H6414548   2.279   1.165   4.508  0.5515  0.3624  0.1393
  103MOL    C6514549   2.541   1.165   4.490  0.8242  0.3491  0.0315
  103MOL    C6614550   2.584   1.159   4.638 -0.2415 -0.0310  1.1738
  103MOL    O6714551   2.690   1.079   4.665 -0.2817 -0.2635  0.1352
  103MOL    H6814552   2.625   1.160   4.421  1.3580  1.6597  0.5853
  103MOL    H6914553   2.498   1.264   4.476 -0.1429  0.1817  1.6454
  103MOL    H7014554   2.513   1.101   4.698  0.0033 -0.0083  1.4870
  103MOL    H7114555   2.696   1.079   4.759 -1.5397  1.2076  0.2366
  103MOL    C7214556   2.599   1.295   4.703  0.4324  0.4493  0.6981
  103MOL    C7314557   2.466   1.370   4.737 -0.2194 -0.2545  0.7025
  103MOL    O7414558   2.403   1.314   4.853 -0.0521  0.0120  0.1516
  103MOL    H7514559   2.668   1.287   4.787  2.0688 -0.4882 -0.7081
  103MOL    H7614560   2.657   1.349   4.628  1.1153 -0.5463  0.5032
  103MOL    H7714561   2.402   1.374   4.649 -0.0691 -0.3552  0.5861
  103MOL    H7814562   2.458   1.255   4.902  0.0491  0.3973  0.5100
  103MOL    C7914563   2.479   1.516   4.776 -0.1000  0.3299 -0.3281
  103MOL    C8014564   2.503   1.616   4.665 -0.0854  0.7199  0.0210
  103MOL    O8114565   2.394   1.613   4.578 -0.0070  0.6637  0.0102
  103MOL    H8214566   2.386   1.550   4.822 -0.1543 -1.0474  0.6362
  103MOL    H8314567   2.554   1.524   4.854  0.2486 -0.6415 -0.5627
  103MOL    H8414568   2.591   1.608   4.601 -0.1105  0.0165  0.0741
  103MOL    H8514569   2.383   1.683   4.515 -1.2725 -2.5388 -3.5411
  103MOL    C8614570   2.511   1.753   4.726 -0.5162 -0.0582 -0.3714
  103MOL    C8714571   2.638   1.787   4.804  0.2622  0.3157 -0.0441
  103MOL    O8814572   2.757   1.751   4.731 -0.1307 -0.1925  0.2620
  103MOL    H8914573   2.509   1.821   4.641  0.6346  2.8593  1.8277
  103MOL    H9014574   2.427   1.775   4.791  0.9267  1.1467  1.1226
  103MOL    H9114575   2.643   1.723   4.893 -2.8839  0.2249  0.1331
  103MOL    H9214576   2.831   1.738   4.789 -0.5322  0.4424  0.9316
  103MOL    C9314577   2.635   1.935   4.840  0.1823 -0.2921 -0.3446
  103MOL    C9414578   2.724   1.981   4.960  0.2506  0.1156  0.0799
  103MOL    O9514579   2.705   2.118   4.977  0.1953  0.1441 -0.3732
  103MOL    H9614580   2.658   2.007   4.761  2.5483  0.8548  1.3047
  103MOL    H9714581   2.531   1.958   4.865  0.8177  2.5210 -0.0847
  103MOL    H9814582   2.826   1.962   4.928  0.2508 -1.8103  1.1531
  103MOL    H9914583   2.723   2.161   4.895  1.1061 -1.5862 -1.1129
  103MOL   C10014584   2.698   1.912   5.101 -0.8218  0.1252 -0.0351
  103MOL   C10114585   2.803   1.946   5.207  0.7709 -0.0234  0.5531
  103MOL   O10214586   2.798   2.083   5.247  0.4103  0.0039  0.1527
  103MOL   H10314587   2.597   1.912   5.141 -0.6364  0.9556  0.4443
  103MOL   H10414588   2.719   1.806   5.086  2.5773  0.9365 -1.5582
  103MOL   H10514589   2.897   1.931   5.153 -0.2462  1.0019 -1.5850
  103MOL   H10614590   2.804   2.134   5.168  0.6778  2.4554  1.6823
  103MOL   C10714591   2.807   1.848   5.323 -0.7742  0.0075  0.3947
  103MOL   C10814592   2.699   1.850   5.427 -0.4632  0.5967 -0.0504
  103MOL   O10914593   2.567   1.819   5.375 -0.1160 -0.1795  0.4962
  103MOL   H11014594   2.810   1.745   5.290  0.0505 -0.2462  1.2371
  103MOL   H11114595   2.900   1.866   5.377 -0.3493 -0.2438 -0.2521
  103MOL   H11214596   2.696   1.953   5.461  0.5665  0.3050  0.9272
  103MOL   H11314597   2.504   1.867   5.426 -0.6666  0.9353 -1.1820
  103MOL   C11414598   2.724   1.760   5.551  0.4853 -0.8059 -0.1760
  103MOL   C11514599   2.851   1.795   5.637 -0.2177 -0.0211 -0.3627
  103MOL   O11614600   2.851   1.929   5.693 -0.0625 -0.0367  0.2039
  103MOL   H11714601   2.635   1.762   5.613 -0.3204 -1.7606 -1.2858
  103MOL   H11814602   2.726   1.655   5.523 -1.6296 -1.3012  1.4006
  103MOL   H11914603   2.939   1.772   5.578 -0.5895 -0.1577 -0.8628
  103MOL   H12014604   2.942   1.937   5.716  0.1158 -2.2551  0.4633
  103MOL   C12114605   2.853   1.702   5.758  0.0576  0.0358 -0.0222
  103MOL   C12214606   2.978   1.614   5.783 -0.2502 -0.2185  0.8617
  103MOL   O12314607   3.057   1.674   5.884 -0.2171 -0.0917 -0.1378
  103MOL   H12414608   2.842   1.763   5.847  2.3095  0.9095 -0.3047
  103MOL   H12514609   2.765   1.638   5.753 -0.8762  1.4013 -1.6607
  103MOL   H12614610   3.040   1.609   5.693  0.9351 -0.5765  1.6940
  103MOL   H12714611   3.145   1.640   5.880 -0.7774 -1.7742  1.0162
  103MOL   C12814612   2.945   1.476   5.838 -0.5996 -0.1019  0.7150
  103MOL   C12914613   2.923   1.367   5.730 -0.2665  0.2503  0.3619
  103MOL   O13014614   2.813   1.405   5.644 -0.3282  0.1014 -0.6031
  103MOL   H13114615   3.026   1.430   5.894  0.3588  0.0157 -0.5403
  103MOL   H13214616   2.859   1.472   5.904 -0.6130 -0.3440  0.6842
  103MOL   H13314617   2.877   1.282   5.780  1.3845  0.4839  2.3391
  103MOL   H13414618   2.741   1.411   5.706 -0.3063 -1.4976 -0.3967
  103MOL   C13514619   3.044   1.322   5.647  0.0718 -0.6067  0.8974
  103MOL   C13614620   3.025   1.207   5.544 -0.0317  1.1077 -0.2426
  103MOL   O13714621   3.135   1.185   5.456 -0.1676  0.9988 -0.4879
  103MOL   H13814622   3.074   1.406   5.584 -4.5307 -0.7536 -1.7320
  103MOL   H13914623   3.137   1.297   5.699  1.5466 -1.5209 -2.0713
  103MOL   H14014624   2.935   1.233   5.489 -1.2678 -0.7326  0.8781
  103MOL   H14114625   3.120   1.105   5.408  1.5718  0.4681 -0.1840
  103MOL   H14214626   2.999   1.115   5.596  0.2519  1.1671  0.0081
  104MOL     C114627   7.164   7.439   2.295  0.5721  0.0681 -0.1173
  104MOL     C214628   7.156   7.307   2.375 -0.2587  0.3843 -0.0736
  104MOL     O314629   7.281   7.306   2.439 -0.1153  0.4982  0.2901
  104MOL     H414630   7.063   7.455   2.257  0.1691  0.2118  0.9938
  104MOL     H514631   7.231   7.424   2.211  1.4164 -0.2233  0.6027
  104MOL     H614632   7.147   7.217   2.315  0.1276  1.3639 -1.6305
  104MOL     H714633   7.291   7.377   2.501  1.1772  1.4462 -0.9516
  104MOL     H814634   7.205   7.518   2.359 -0.1857 -0.5384  1.1320
  104MOL     C914635   7.049   7.308   2.484 -0.1642 -0.2207 -1.0788
  104MOL    C1014636   6.894   7.325   2.451  1.0270 -0.1170  0.2408
  104MOL    O1114637   6.867   7.230   2.348 -0.0320  0.1366  0.1285
  104MOL    H1214638   7.069   7.230   2.558 -0.4348 -0.5146 -1.3147
  104MOL    H1314639   7.074   7.404   2.530  0.5109 -1.0451  0.3120
  104MOL    H1414640   6.871   7.425   2.413 -1.1137 -0.2536  1.1377
  104MOL    H1514641   6.856   7.147   2.391 -1.9624 -0.1582 -0.8315
  104MOL    C1614642   6.789   7.309   2.562  0.4832  0.4575 -0.2166
  104MOL    C1714643   6.741   7.437   2.639  0.7531  0.1002 -0.1846
  104MOL    O1814644   6.644   7.504   2.558  0.4178  0.0252  0.5648
  104MOL    H1914645   6.698   7.261   2.524 -1.1411  0.2435  3.7281
  104MOL    H2014646   6.823   7.233   2.632 -1.3638  1.1457  1.4548
  104MOL    H2114647   6.832   7.497   2.645  1.0975 -0.5587  1.8583
  104MOL    H2214648   6.670   0.074   2.542  0.3779 -0.1852 -0.7246
  104MOL    C2314649   6.680   7.391   2.776  0.2128  0.4806 -0.2866
  104MOL    C2414650   6.783   7.354   2.884  1.5604 -0.2888  0.1680
  104MOL    O2514651   6.873   7.469   2.908 -0.1609  0.5554  0.4589
  104MOL    H2614652   6.617   7.474   2.808 -1.7023 -1.1241  0.1801
  104MOL    H2714653   6.627   7.298   2.754  1.6714 -0.0518 -1.6874
  104MOL    H2814654   6.840   7.269   2.847  0.7696 -0.5353 -0.4972
  104MOL    H2914655   6.826   0.013   2.959  0.7170  2.3278 -0.8968
  104MOL    C3014656   6.716   7.315   3.020 -0.0814 -0.8936  0.0416
  104MOL    C3114657   6.651   7.177   3.020  0.4456  0.4651 -0.2122
  104MOL    O3214658   6.745   7.084   3.073  0.1406 -0.0290  0.4239
  104MOL    H3314659   6.789   7.330   3.100  0.2258 -0.5641 -0.2976
  104MOL    H3414660   6.634   7.380   3.050  0.1434 -0.1933 -0.8612
  104MOL    H3514661   6.626   7.147   2.918  1.2454  0.1652 -0.3293
  104MOL    H3614662   6.803   7.064   3.001 -0.2670  1.8937 -0.4576
  104MOL    C3714663   6.524   7.160   3.110 -0.0853 -0.1196 -0.6310
  104MOL    C3814664   6.488   7.246   3.233 -0.7423 -0.5726 -0.2578
  104MOL    O3914665   6.435   7.372   3.190 -0.0871  0.6566 -0.1750
  104MOL    H4014666   6.435   7.175   3.049  0.7747  0.4311 -1.7732
  104MOL    H4114667   6.523   7.055   3.138 -0.6712  0.2905  0.9289
  104MOL    H4214668   6.585   7.256   3.281 -0.8620  1.2867 -0.3824
  104MOL    H4314669   6.441   7.435   3.260  0.7313  1.1440 -0.6748
  104MOL    C4414670   6.380   7.195   3.330 -0.0379 -0.0728  0.1767
  104MOL    C4514671   6.436   7.086   3.431 -0.5156  0.5458  0.1898
  104MOL    O4614672   6.495   7.160   3.538  0.3334  0.3568 -0.2286
  104MOL    H4714673   6.319   7.273   3.376  0.0598 -0.4959  1.0392
  104MOL    H4814674   6.313   7.134   3.270 -0.1912  0.9711 -0.7359
  104MOL    H4914675   6.524   7.042   3.384  0.0564  0.7512  1.0567
  104MOL    H5014676   6.584   7.178   3.510  0.8224 -0.3025  0.8657
  104MOL    C5114677   6.326   6.985   3.478 -0.1186  0.0993 -0.2108
  104MOL    C5214678   6.382   6.889   3.597  0.3141 -0.7739  0.2135
  104MOL    O5314679   6.291   6.806   3.654 -0.0630  0.6923  0.4619
  104MOL    H5414680   6.241   7.041   3.518 -0.2571 -1.5587  1.8859
  104MOL    H5514681   6.291   6.934   3.388  0.1885  0.2052 -0.3930
  104MOL    H5614682   6.418   6.958   3.673  0.0522 -0.0646 -0.2925
  104MOL    H5714683   6.262   6.843   3.736  1.1556  2.5173  0.0981
  104MOL    C5814684   6.505   6.810   3.564 -0.0669 -1.0601  0.6096
  104MOL    C5914685   6.494   6.693   3.467  0.8473  0.6267 -0.4916
  104MOL    O6014686   6.629   6.662   3.435  0.0372  0.3906  0.2006
  104MOL    H6114687   6.576   6.873   3.511 -1.9322  0.6321  0.0695
  104MOL    H6214688   6.551   6.767   3.653 -1.0261 -3.4329  0.0107
  104MOL    H6314689   6.461   6.735   3.372 -1.4198 -0.9913 -0.4420
  104MOL    H6414690   6.617   6.608   3.359 -2.5981  0.6232  0.3980
  104MOL    C6514691   6.426   6.570   3.520 -0.3795 -0.3985 -0.2154
  104MOL    C6614692   6.445   6.526   3.666 -0.1792 -0.0654  0.6231
  104MOL    O6714693   6.341   6.434   3.690  0.0593 -0.6139  0.2194
  104MOL    H6814694   6.320   6.593   3.512  0.1432  1.1767 -3.4818
  104MOL    H6914695   6.448   6.481   3.460 -2.0653 -2.5768  2.2832
  104MOL    H7014696   6.416   6.608   3.732  0.2852  0.5698  0.0494
  104MOL    H7114697   6.268   6.485   3.722 -1.3839 -1.0554 -2.2747
  104MOL    C7214698   6.583   6.465   3.697 -0.4412 -0.0845  0.3226
  104MOL    C7314699   6.637   6.339   3.613  0.5309 -0.1623 -0.5452
  104MOL    O7414700   6.774   6.330   3.659  0.4427  0.1182 -0.0120
  104MOL    H7514701   6.658   6.543   3.684 -1.4326  0.9217  0.5962
  104MOL    H7614702   6.588   6.450   3.805 -0.2378 -1.6050  0.1158
  104MOL    H7714703   6.640   6.362   3.507 -0.4105  0.5042 -0.4248
  104MOL    H7814704   6.830   6.376   3.599  0.2668  0.0501 -0.2283
  104MOL    C7914705   6.558   6.205   3.637 -0.8113 -0.4921  0.0986
  104MOL    C8014706   6.459   6.173   3.521  0.5948 -0.1061 -0.3883
  104MOL    O8114707   6.541   6.133   3.413 -0.0017  0.3861 -0.2170
  104MOL    H8214708   6.625   6.121   3.658  2.2255  2.2622  1.8687
  104MOL    H8314709   6.507   6.225   3.731 -0.9210 -1.1958  0.1946
  104MOL    H8414710   6.400   6.263   3.506 -0.9282 -0.8601  0.8390
  104MOL    H8514711   6.505   6.049   3.391  0.4858  0.7084 -2.3026
  104MOL    C8614712   6.376   6.052   3.557  0.2951  0.0199 -0.3773
  104MOL    C8714713   6.287   6.075   3.678  0.1076  0.0505  0.2844
  104MOL    O8814714   6.174   6.150   3.648 -0.3744 -0.2263 -0.6863
  104MOL    H8914715   6.303   6.032   3.479  0.7422  0.9369 -1.0336
  104MOL    H9014716   6.429   5.956   3.557  1.2760  0.5438 -1.8031
  104MOL    H9114717   6.335   6.123   3.764  0.5839  0.4206 -0.1910
  104MOL    H9214718   6.203   6.239   3.635 -1.7586  0.1547 -1.2009
  104MOL    C9314719   6.240   5.933   3.725 -0.3333 -0.2814  0.4459
  104MOL    C9414720   6.157   5.935   3.853  0.3933 -0.6824 -0.6001
  104MOL    O9514721   6.036   6.003   3.829  0.2167 -0.4703 -0.5508
  104MOL    H9614722   6.194   5.880   3.641 -1.2733  1.1723  0.0355
  104MOL    H9714723   6.332   5.878   3.745  1.3890  2.8918  1.6425
  104MOL    H9814724   6.209   5.990   3.931  1.1165 -2.0506 -0.0858
  104MOL    H9914725   6.056   6.067   3.762 -0.2407  0.3871  0.1173
  104MOL   C10014726   6.124   5.794   3.891  0.4367 -0.0538  0.8700
  104MOL   C10114727   6.073   5.781   4.028  0.2718 -0.2309 -0.4559
  104MOL   O10214728   6.030   5.651   4.050  0.1115 -0.8885  0.8217
  104MOL   H10314729   6.054   5.751   3.820  2.9519  0.6554 -2.1649
  104MOL   H10414730   6.211   5.732   3.869  1.0380  1.1847 -0.3639
  104MOL   H10514731   5.979   5.834   4.042  1.0211  1.5256 -1.9872
  104MOL   H10614732   5.981   5.615   3.978  2.8012 -3.1118  0.0135
  104MOL   C10714733   6.174   5.820   4.143  0.0114  0.5169  0.4504
  104MOL   C10814734   6.125   5.913   4.258 -0.1998  0.2927  0.4531
  104MOL   O10914735   6.110   6.037   4.195  0.0639 -0.5564 -0.1486
  104MOL   H11014736   6.197   5.725   4.191  2.8093  1.2049  0.5341
  104MOL   H11114737   6.265   5.867   4.106  0.8056  2.0228  4.0990
  104MOL   H11214738   6.193   5.932   4.341  0.2387 -0.4355  0.2632
  104MOL   H11314739   6.034   6.040   4.140 -1.2684 -0.7051  1.6501
  104MOL   C11414740   5.996   5.876   4.335  0.3378 -0.5693  0.2374
  104MOL   C11514741   6.002   5.744   4.406  0.0154 -0.6711 -0.1612
  104MOL   O11614742   6.082   5.750   4.524  0.2578  0.0697 -0.3755
  104MOL   H11714743   5.982   5.955   4.409  3.8207 -0.3684  0.7733
  104MOL   H11814744   5.910   5.882   4.268 -0.7482 -0.7270  1.6028
  104MOL   H11914745   6.038   5.662   4.345  1.1669  0.8252 -1.5295
  104MOL   H12014746   6.089   5.667   4.568 -3.9622  0.5194  1.3877
  104MOL   C12114747   5.868   5.696   4.467  0.4181  0.1614 -0.3262
  104MOL   C12214748   5.769   5.651   4.353 -0.8095 -0.0023  0.3428
  104MOL   O12314749   5.802   5.527   4.288 -0.1343 -0.0951 -0.1396
  104MOL   H12414750   5.876   5.615   4.540 -2.0838 -2.2450 -2.6349
  104MOL   H12514751   5.825   5.779   4.523  1.1021  0.2321  0.1067
  104MOL   H12614752   5.769   5.718   4.266 -1.2787 -2.0635 -1.2908
  104MOL   H12714753   5.877   5.544   4.233 -0.6980 -1.5703 -1.4201
  104MOL   C12814754   5.626   5.648   4.408 -0.3613 -0.3817  0.5770
  104MOL   C12914755   5.563   5.790   4.425  0.1483  0.5255  0.3212
  104MOL   O13014756   5.505   5.848   4.312 -0.3947 -1.0786  0.2099
  104MOL   H13114757   5.566   5.591   4.337  0.5685  0.8186 -1.2193
  104MOL   H13214758   5.629   5.594   4.503  2.5350  1.2855  1.5129
  104MOL   H13314759   5.640   5.860   4.455  1.4333 -0.0591 -1.5444
  104MOL   H13414760   5.453   5.923   4.335  1.2308  0.3858 -0.7935
  104MOL   C13514761   5.454   5.797   4.541 -0.6173  0.1066  0.0010
  104MOL   C13614762   5.326   5.719   4.509  0.1103 -0.0524  0.5267
  104MOL   O13714763   5.236   5.713   4.619  0.6470 -0.1314 -0.3015
  104MOL   H13814764   5.498   5.762   4.634  1.9585  0.4715 -1.0403
  104MOL   H13914765   5.421   5.901   4.549 -1.1811 -0.1145  0.5595
  104MOL   H14014766   5.349   5.619   4.472 -1.4142  0.7038 -2.6481
  104MOL   H14114767   5.169   5.780   4.620 -2.4281 -3.0631  1.6240
  104MOL   H14214768   5.268   5.759   4.426  0.4121  0.6674  0.6610
  105MOL     C114769   3.104   5.825   3.691 -0.2625 -0.4438 -0.0202
  105MOL     C214770   3.072   5.937   3.587 -0.5313 -0.3146 -0.7653
  105MOL     O314771   3.005   5.873   3.481 -0.2386 -0.4958  0.0707
  105MOL     H414772   3.203   5.787   3.668 -0.4107 -1.4730  0.9948
  105MOL     H514773   3.036   5.740   3.689 -1.4932  0.5453 -2.6418
  105MOL     H614774   3.173   5.974   3.568  0.2156 -1.0346  1.6512
  105MOL     H714775   3.063   5.875   3.407 -3.1079 -0.1179 -2.2286
  105MOL     H814776   3.112   5.873   3.788  0.8158  0.7185 -0.6744
  105MOL     C914777   2.987   6.049   3.658  0.4644 -0.2100 -0.2805
  105MOL    C1014778   3.069   6.151   3.736  0.3661  0.6986 -0.1723
  105MOL    O1114779   3.131   6.237   3.639 -0.0772 -0.0410 -0.0313
  105MOL    H1214780   2.926   6.110   3.592  0.8870  1.0725  0.4990
  105MOL    H1314781   2.905   6.000   3.713  1.0599  1.0181  1.7608
  105MOL    H1414782   3.151   6.100   3.787  0.4561 -1.3666 -2.2986
  105MOL    H1514783   3.179   6.303   3.687  0.8811 -0.1875 -0.7748
  105MOL    C1614784   2.989   6.226   3.840  0.4914 -1.4569  0.1490
  105MOL    C1714785   2.985   6.171   3.983  0.4496  0.2366  0.3877
  105MOL    O1814786   2.948   6.038   3.984  0.6343  0.7103  0.3047
  105MOL    H1914787   3.006   6.333   3.837 -2.5542 -0.8945  0.7194
  105MOL    H2014788   2.887   6.245   3.807  0.4908 -1.3916  0.1875
  105MOL    H2114789   2.913   6.226   4.044 -0.6481  0.3530 -0.9725
  105MOL    H2214790   2.864   6.029   3.940  1.8599  0.6010 -2.0813
  105MOL    C2314791   3.115   6.188   4.061 -0.7704  0.5060 -0.1218
  105MOL    C2414792   3.107   6.164   4.213 -0.0214  0.1959 -0.2764
  105MOL    O2514793   3.233   6.141   4.258  0.7451  0.1175 -0.0547
  105MOL    H2614794   3.177   6.108   4.019 -3.0187 -0.7479 -1.1686
  105MOL    H2714795   3.166   6.281   4.037 -1.2026  1.3227  2.0286
  105MOL    H2814796   3.051   6.076   4.246  0.9777 -1.0030 -1.7625
  105MOL    H2914797   3.251   6.056   4.222  0.3428 -0.0770  0.2089
  105MOL    C3014798   3.050   6.287   4.289  0.4693  0.4621  0.2489
  105MOL    C3114799   3.012   6.267   4.437 -0.2982 -0.3686 -0.5039
  105MOL    O3214800   3.128   6.233   4.511  0.1342  0.2939 -0.1299
  105MOL    H3314801   3.114   6.371   4.263  2.9431 -0.8771  1.7941
  105MOL    H3414802   2.956   6.303   4.236 -1.0305 -0.9558  2.3830
  105MOL    H3514803   2.923   6.205   4.438  0.6609 -1.7782 -0.4825
  105MOL    H3614804   3.169   6.169   4.454 -0.9832 -0.9512  0.4242
  105MOL    C3714805   2.979   6.403   4.490 -0.7122  0.3681  0.5215
  105MOL    C3814806   2.858   6.476   4.435 -0.5604 -0.3544 -0.0518
  105MOL    O3914807   2.744   6.428   4.494  0.1742  0.4675 -0.7999
  105MOL    H4014808   2.957   6.392   4.596 -0.1737  1.1179  0.7144
  105MOL    H4114809   3.065   6.470   4.487 -1.2874  1.0807 -0.2735
  105MOL    H4214810   2.849   6.481   4.327  1.6534  2.4151 -0.1661
  105MOL    H4314811   2.684   6.453   4.425  1.2062  0.8874 -1.5535
  105MOL    C4414812   2.845   6.624   4.493 -0.2860  0.1795  0.0833
  105MOL    C4514813   2.948   6.726   4.450 -0.4495  0.0810  0.0112
  105MOL    O4614814   2.938   6.748   4.311  0.2965  0.5501 -0.7133
  105MOL    H4714815   2.749   6.666   4.464 -0.5385  0.0404  0.7283
  105MOL    H4814816   2.832   6.630   4.601  1.1944 -1.6489  0.3864
  105MOL    H4914817   3.043   6.674   4.463  0.0073  0.0965 -2.9046
  105MOL    H5014818   3.025   6.759   4.276  0.4028  1.1284 -0.2739
  105MOL    C5114819   2.946   6.858   4.541  0.0812  0.1966 -0.4665
  105MOL    C5214820   3.079   6.869   4.627 -0.4734  0.6851  0.1591
  105MOL    O5314821   3.087   7.004   4.676  0.3021  0.0496 -0.0229
  105MOL    H5414822   2.929   6.935   4.466  0.5318  0.0580 -0.7192
  105MOL    H5514823   2.866   6.862   4.614 -0.3408 -3.2681 -0.6362
  105MOL    H5614824   3.150   6.874   4.544  0.8760 -0.2382  1.2146
  105MOL    H5714825   3.011   7.022   4.729  0.7324  0.4091  0.4712
  105MOL    C5814826   3.126   6.768   4.732  0.9818 -0.0937  0.7475
  105MOL    C5914827   3.280   6.743   4.754  0.4732 -0.0125 -0.5707
  105MOL    O6014828   3.329   6.840   4.844 -0.4962 -0.0267  0.7492
  105MOL    H6114829   3.076   6.780   4.828 -0.2513  0.6682  0.0262
  105MOL    H6214830   3.101   6.675   4.680  1.3577 -1.3139  2.6849
  105MOL    H6314831   3.330   6.760   4.658 -1.7106  1.4902 -1.4764
  105MOL    H6414832   3.324   6.928   4.808 -0.2329  0.7755  2.6102
  105MOL    C6514833   3.319   6.603   4.809 -0.2846  0.5161  0.4030
  105MOL    C6614834   3.323   6.496   4.703  0.5722  0.1586  0.1964
  105MOL    O6714835   3.433   6.517   4.613 -0.1356 -0.5623  0.4499
  105MOL    H6814836   3.416   6.608   4.860 -0.6033  1.4230  0.9216
  105MOL    H6914837   3.247   6.578   4.887 -0.0866 -2.2983 -0.2568
  105MOL    H7014838   3.230   6.501   4.646  0.8767 -0.8649 -0.4062
  105MOL    H7114839   3.434   6.443   4.554  1.0253 -1.1832  1.2229
  105MOL    C7214840   3.342   6.351   4.753 -0.1192  0.4247 -0.0815
  105MOL    C7314841   3.227   6.310   4.852  0.8713  0.3165 -0.7976
  105MOL    O7414842   3.097   6.289   4.789 -0.1769 -0.1583  0.1851
  105MOL    H7514843   3.340   6.278   4.673 -2.3243 -2.5620  2.5471
  105MOL    H7614844   3.435   6.325   4.804  0.1740 -1.0717 -1.3449
  105MOL    H7714845   3.197   6.387   4.923  1.9801  1.4064 -1.5047
  105MOL    H7814846   3.109   6.283   4.696 -2.3600 -0.3446 -0.0965
  105MOL    C7914847   3.280   6.195   4.951 -0.4163 -0.5678  0.0281
  105MOL    C8014848   3.182   6.137   5.052 -0.4369  0.3135  0.5963
  105MOL    O8114849   3.249   6.027   5.114 -0.6467  0.2258  0.4524
  105MOL    H8214850   3.305   6.108   4.890  0.5120 -0.1125 -0.2477
  105MOL    H8314851   3.363   6.231   5.011 -2.8008  0.8041  2.5875
  105MOL    H8414852   3.103   6.106   4.983  1.2351  1.3384 -1.8460
  105MOL    H8514853   3.259   6.059   5.203 -0.7951  0.5496  0.3545
  105MOL    C8614854   3.128   6.232   5.162 -0.5129  0.0081  0.0659
  105MOL    C8714855   3.009   6.169   5.239  0.0849 -0.4849 -0.6976
  105MOL    O8814856   3.049   6.076   5.342 -1.1679  0.3431 -0.2919
  105MOL    H8914857   3.213   6.259   5.226 -1.6205  1.8745  0.7909
  105MOL    H9014858   3.103   6.327   5.115  0.1953  0.0940 -0.1487
  105MOL    H9114859   2.946   6.117   5.167 -1.1156  2.5944 -1.9712
  105MOL    H9214860   3.143   6.065   5.347 -1.3470 -1.1935 -0.0914
  105MOL    C9314861   2.942   6.290   5.318 -0.3053  0.3221 -0.3509
  105MOL    C9414862   2.836   6.362   5.232  0.2630 -0.3375 -0.1062
  105MOL    O9514863   2.714   6.284   5.233 -0.1382 -0.3132 -0.7195
  105MOL    H9614864   2.897   6.255   5.411  0.0048 -2.4274 -1.2171
  105MOL    H9714865   3.025   6.353   5.351  0.4723 -0.3699 -1.0006
  105MOL    H9814866   2.867   6.370   5.127  0.4734  0.3486  0.0039
  105MOL    H9914867   2.658   6.308   5.161 -1.2936  0.5582  0.4437
  105MOL   C10014868   2.799   6.501   5.279  0.2412 -0.2727 -0.2359
  105MOL   C10114869   2.725   6.583   5.161 -0.3407  0.2584  0.2549
  105MOL   O10214870   2.675   6.699   5.213 -0.3673 -0.3407 -0.4184
  105MOL   H10314871   2.726   6.502   5.360 -2.1291  0.2823 -2.3150
  105MOL   H10414872   2.885   6.552   5.322  0.9629 -0.2014 -1.6950
  105MOL   H10514873   2.658   6.508   5.120  2.3782 -1.8301 -0.4891
  105MOL   H10614874   2.599   6.672   5.261 -1.3515  0.4821 -1.4941
  105MOL   C10714875   2.803   6.628   5.032 -0.8060  0.4281  0.0373
  105MOL   C10814876   2.712   6.681   4.927 -0.1572 -0.1344 -0.3598
  105MOL   O10914877   2.784   6.759   4.825 -0.2532  0.2376  0.3479
  105MOL   H11014878   2.876   6.706   5.054 -1.4032  1.3723 -1.2392
  105MOL   H11114879   2.858   6.543   4.991 -2.0333 -0.2486 -0.2639
  105MOL   H11214880   2.647   6.754   4.977  1.4697  0.5454  0.8164
  105MOL   H11314881   2.821   6.839   4.861 -1.5017  0.8042  0.3743
  105MOL   C11414882   2.622   6.578   4.854 -0.9056 -0.2673  0.1086
  105MOL   C11514883   2.499   6.637   4.776  0.0014  0.0499  0.4233
  105MOL   O11614884   2.549   6.733   4.680 -0.7080  0.3184  0.3077
  105MOL   H11714885   2.686   6.528   4.780 -0.8156  0.5733 -0.3910
  105MOL   H11814886   2.598   6.496   4.922  1.8606 -0.5061  0.8732
  105MOL   H11914887   2.422   6.690   4.832 -0.5037  0.0374 -0.2539
  105MOL   H12014888   2.643   6.727   4.686 -0.7139  0.3383  0.4136
  105MOL   C12114889   2.419   6.536   4.693  0.1783  0.4825  0.5002
  105MOL   C12214890   2.321   6.451   4.769  0.2579  0.4427 -0.0074
  105MOL   O12314891   2.223   6.538   4.821 -0.4315  0.2090 -0.3992
  105MOL   H12414892   2.373   6.576   4.603  1.3031 -0.1891 -0.3995
  105MOL   H12514893   2.501   6.470   4.661  0.0280  0.0397  1.0229
  105MOL   H12614894   2.365   6.400   4.855 -1.9705 -0.2650  0.7679
  105MOL   H12714895   2.149   6.481   4.838  0.6241 -0.6195  1.5119
  105MOL   C12814896   2.249   6.345   4.681  0.1590  0.8609  0.3487
  105MOL   C12914897   2.189   6.237   4.766 -0.1645  0.0738 -0.6542
  105MOL   O13014898   2.082   6.279   4.848  0.3853 -0.7033 -0.3725
  105MOL   H13114899   2.174   6.374   4.607  0.3495  0.7192  0.0985
  105MOL   H13214900   2.327   6.312   4.612  0.2851 -0.5376  1.1539
  105MOL   H13314901   2.267   6.197   4.831 -0.8389 -2.4328 -1.3335
  105MOL   H13414902   2.084   6.223   4.924  0.1432 -0.2503 -0.0284
  105MOL   C13514903   2.152   6.118   4.677 -0.4011  0.0304  0.1825
  105MOL   C13614904   2.269   6.039   4.611 -0.1900  0.4544 -0.0105
  105MOL   O13714905   2.229   5.909   4.573  0.3789  0.0795 -0.5092
  105MOL   H13814906   2.103   6.043   4.739  1.1807 -1.3627 -0.1908
  105MOL   H13914907   2.078   6.141   4.600 -0.7882 -1.0407  0.2340
  105MOL   H14014908   2.346   6.027   4.688  0.0155  1.5240 -0.0358
  105MOL   H14114909   2.180   5.918   4.492 -0.0615  1.2483 -0.1344
  105MOL   H14214910   2.314   6.092   4.527 -1.4016  1.2366 -0.1785
  106MOL     C114911   6.756   3.910   6.336 -0.1269  0.0773 -0.1183
  106MOL     C214912   6.839   3.965   6.446 -0.5241 -0.2626  0.6583
  106MOL     O314913   6.970   3.901   6.431  0.9690 -0.3407  0.2519
  106MOL     H414914   6.759   3.801   6.335 -0.2746  0.0397  1.5165
  106MOL     H514915   6.785   3.960   6.244  2.1870 -1.4058 -0.2285
  106MOL     H614916   6.796   3.920   6.535  0.6483 -2.1396  0.3145
  106MOL     H714917   6.955   3.811   6.454  0.8488 -0.2859  0.3907
  106MOL     H814918   6.653   3.932   6.364  0.5566  1.8333  1.1205
  106MOL     C914919   6.849   4.122   6.465 -0.2775  0.2718 -0.0040
  106MOL    C1014920   6.954   4.171   6.561  0.4073 -0.5401 -0.2534
  106MOL    O1114921   6.960   4.314   6.571  0.3766 -0.6002 -0.0560
  106MOL    H1214922   6.867   4.172   6.370  0.9776  1.4054  0.8029
  106MOL    H1314923   6.755   4.168   6.493 -0.7817 -0.3710 -0.6150
  106MOL    H1414924   7.050   4.134   6.528  0.7821  0.3965 -0.2299
  106MOL    H1514925   6.878   4.350   6.599  1.0716  0.6427  0.4423
  106MOL    C1614926   6.944   4.107   6.690  0.4581 -0.0685  0.0636
  106MOL    C1714927   7.077   4.105   6.769 -0.0802 -0.4858 -0.6729
  106MOL    O1814928   7.064   4.072   6.906  0.5111 -0.4124 -0.2319
  106MOL    H1914929   6.857   4.152   6.737 -0.0911 -1.2998  0.2422
  106MOL    H2014930   6.928   3.999   6.686 -1.0770  0.1341  0.4560
  106MOL    H2114931   7.125   4.202   6.759 -0.6675 -0.0064  1.0009
  106MOL    H2214932   7.133   4.128   6.940 -0.2252 -0.2291  0.9876
  106MOL    C2314933   7.180   3.987   6.719  0.4095  0.0575 -0.5366
  106MOL    C2414934   7.287   4.035   6.612  0.2769  0.2140  0.5056
  106MOL    O2514935   7.415   4.035   6.675  0.2872  0.5205  0.3472
  106MOL    H2614936   7.222   3.947   6.811  1.2065  1.9446 -0.0579
  106MOL    H2714937   7.119   3.911   6.670  0.7706 -1.0311  0.7122
  106MOL    H2814938   7.260   4.136   6.581  0.9200 -0.4988 -2.5311
  106MOL    H2914939   7.437   4.120   6.709  1.9973  0.0743  0.4275
  106MOL    C3014940   7.296   3.954   6.474 -0.5463  0.0860  0.4500
  106MOL    C3114941   7.418   3.981   6.387 -0.0117  0.0307 -0.1688
  106MOL    O3214942   7.408   3.887   6.282  0.1070 -0.0976  0.0764
  106MOL    H3314943   7.281   3.847   6.487  1.7063 -0.0292  2.3939
  106MOL    H3414944   7.207   3.984   6.419 -0.7060  1.2743  1.3188
  106MOL    H3514945   7.506   3.947   6.441 -0.1658 -1.4956 -0.8551
  106MOL    H3614946   7.469   3.817   6.298  1.7500  1.2127 -0.2884
  106MOL    C3714947   7.430   4.125   6.336 -0.2526  0.1034  0.5541
  106MOL    C3814948   0.059   4.151   6.312  0.2443  0.2933  0.3685
  106MOL    O3914949   0.086   4.238   6.206 -0.1235  0.0460 -0.2237
  106MOL    H4014950   7.396   4.133   6.232  1.7395  1.3497 -0.0300
  106MOL    H4114951   7.388   4.203   6.400  1.7595  1.3997  0.3538
  106MOL    H4214952   0.105   4.058   6.281 -0.6842  0.0602 -0.3393
  106MOL    H4314953   0.123   4.194   6.132 -1.3406  1.5043 -1.7321
  106MOL    C4414954   0.135   4.195   6.430 -0.7151  0.3376  0.7455
  106MOL    C4514955   0.282   4.186   6.419  0.1201  0.4221 -0.0004
  106MOL    O4614956   0.358   4.276   6.499 -0.7546  0.2853 -0.9455
  106MOL    H4714957   0.117   4.302   6.441 -2.1461  0.2568 -0.7093
  106MOL    H4814958   0.099   4.148   6.522 -0.9273  0.1589  0.5693
  106MOL    H4914959   0.311   4.206   6.315 -0.5138  2.8361  0.2594
  106MOL    H5014960   0.449   4.265   6.476 -0.5097 -0.2150  0.1924
  106MOL    C5114961   0.337   4.045   6.461  0.3130 -0.1118 -0.3688
  106MOL    C5214962   0.488   4.032   6.424 -0.7523  0.4818 -0.2865
  106MOL    O5314963   0.563   4.075   6.540  0.7777 -0.2173  0.1634
  106MOL    H5414964   0.306   4.024   6.563 -1.8182 -0.0869 -0.9707
  106MOL    H5514965   0.281   3.968   6.407  1.8958 -0.6231 -1.3266
  106MOL    H5614966   0.514   4.092   6.338  1.1625 -0.0021 -0.0514
  106MOL    H5714967   0.606   4.154   6.511 -0.6662 -0.0948 -1.6846
  106MOL    C5814968   0.518   3.884   6.386 -0.3083  0.1672  0.0644
  106MOL    C5914969   0.472   3.837   6.246 -0.0558 -0.9085  0.1454
  106MOL    O6014970   0.551   3.914   6.152 -0.3701 -0.3106 -0.4159
  106MOL    H6114971   0.624   3.867   6.403 -0.1765  2.9041  2.3246
  106MOL    H6214972   0.471   3.825   6.464 -1.5337  1.0371 -0.0029
  106MOL    H6314973   0.367   3.858   6.228  0.1597 -0.0828 -0.1882
  106MOL    H6414974   0.635   3.874   6.169 -0.2564 -0.6514 -1.7477
  106MOL    C6514975   0.512   3.693   6.211  0.0583 -0.4477 -0.2553
  106MOL    C6614976   0.442   3.585   6.290  0.2074  0.7895 -0.6250
  106MOL    O6714977   0.312   3.572   6.240 -0.9363 -0.4006  0.2801
  106MOL    H6814978   0.484   3.684   6.106  1.5010  1.1928 -0.7969
  106MOL    H6914979   0.618   3.672   6.214  0.3588  1.0660  0.0564
  106MOL    H7014980   0.424   3.626   6.390  0.1687  0.6406 -0.5710
  106MOL    H7114981   0.312   3.523   6.159 -1.0234  0.3154 -0.1597
  106MOL    C7214982   0.500   3.439   6.300  0.5001  0.0934  1.0200
  106MOL    C7314983   0.625   3.437   6.392  0.5807  0.5158  0.0643
  106MOL    O7414984   0.586   3.457   6.531 -0.1385  0.4245 -0.3707
  106MOL    H7514985   0.419   3.371   6.322 -1.5503  1.5181 -1.7360
  106MOL    H7614986   0.541   3.417   6.201  0.0855 -1.1801  1.1233
  106MOL    H7714987   0.702   3.511   6.370  0.6468  0.6564  0.7633
  106MOL    H7814988   0.633   3.532   6.564  1.8845 -1.1101  0.3820
  106MOL    C7914989   0.699   3.300   6.390  0.5298 -0.1825 -0.7814
  106MOL    C8014990   0.813   3.270   6.484  0.5742 -0.3527  0.2134
  106MOL    O8114991   0.846   3.128   6.472 -0.3759  0.0166 -0.1194
  106MOL    H8214992   0.629   3.217   6.387  2.3934 -1.8955  1.1969
  106MOL    H8314993   0.738   3.288   6.289 -1.3833 -0.6415 -1.4786
  106MOL    H8414994   0.792   3.305   6.585  2.6335  2.0400 -0.1186
  106MOL    H8514995   0.869   3.086   6.553  0.2749 -0.0797 -0.3462
  106MOL    C8614996   0.954   3.327   6.450  0.1271  0.3899 -0.6570
  106MOL    C8714997   0.976   3.474   6.506 -0.1541 -0.5870  0.5395
  106MOL    O8814998   0.994   3.479   6.642  0.3874  0.1883  0.5777
  106MOL    H8914999   1.029   3.269   6.504 -0.3865  1.6720  1.5065
  106MOL    H9015000   0.977   3.321   6.344  1.5446 -1.7990 -0.2712
  106MOL    H9115001   0.888   3.525   6.468  0.4628 -0.1401 -0.3158
  106MOL    H9215002   0.922   3.532   6.674  3.0353  3.0370  2.1142
  106MOL    C9315003   1.081   3.558   6.446 -0.4772  1.8725  0.1159
  106MOL    C9415004   1.088   3.569   6.295 -0.3080  0.3344  0.0500
  106MOL    O9515005   0.963   3.619   6.255  0.3684 -0.5409 -0.0041
  106MOL    H9615006   1.074   3.657   6.491 -3.2948  0.9747  1.8076
  106MOL    H9715007   1.176   3.517   6.481 -1.8006  0.3931  2.0986
  106MOL    H9815008   1.101   3.468   6.258  0.0218 -0.1386  1.4305
  106MOL    H9915009   0.940   3.600   6.165  0.9137  3.3356 -1.0721
  106MOL   C10015010   1.189   3.672   6.240 -0.5096 -0.1006 -0.1880
  106MOL   C10115011   1.341   3.652   6.267 -0.2793  0.0084  0.1648
  106MOL   O10215012   1.392   3.565   6.166  0.3366 -0.3882 -0.0211
  106MOL   H10315013   1.180   3.684   6.132 -1.7449 -2.0828 -0.3440
  106MOL   H10415014   1.163   3.771   6.277  0.6560 -0.0012  0.3772
  106MOL   H10515015   1.356   3.599   6.361  1.2340  0.8611  0.4099
  106MOL   H10615016   1.485   3.561   6.186  0.6745 -0.4616 -1.5679
  106MOL   C10715017   1.414   3.790   6.268 -0.1310  0.2749 -0.2868
  106MOL   C10815018   1.385   3.880   6.395  0.5627 -0.0858 -0.0789
  106MOL   O10915019   1.440   3.814   6.504  0.1031 -0.0324  0.6221
  106MOL   H11015020   1.522   3.779   6.269 -0.0598  0.8575  2.1810
  106MOL   H11115021   1.389   3.843   6.176  0.8105  0.0080 -0.6996
  106MOL   H11215022   1.278   3.895   6.408  0.9270  2.2112  0.6356
  106MOL   H11315023   1.416   3.859   6.584  0.3726 -0.6085  1.0281
  106MOL   C11415024   1.447   4.021   6.388  0.5473  0.0191 -0.3513
  106MOL   C11515025   1.366   4.123   6.288  0.1949 -0.3727 -0.2360
  106MOL   O11615026   1.238   4.147   6.347 -0.2436  0.1057  0.2706
  106MOL   H11715027   1.432   4.065   6.486 -1.1303 -0.1377 -0.5186
  106MOL   H11815028   1.554   4.015   6.370  0.3735 -1.5508 -0.9098
  106MOL   H11915029   1.344   4.083   6.189 -0.7564 -0.1638 -0.1142
  106MOL   H12015030   1.191   4.207   6.290  2.7961 -0.2373 -2.7766
  106MOL   C12115031   1.432   4.264   6.281  0.1558  0.7828  0.2403
  106MOL   C12215032   1.573   4.281   6.218 -0.4122 -0.8494  0.2883
  106MOL   O12315033   1.556   4.264   6.077  0.5825 -0.3565  0.2189
  106MOL   H12415034   1.369   4.326   6.218  0.3836 -0.2559 -1.0365
  106MOL   H12515035   1.435   4.297   6.385 -0.9318 -2.7514  1.4861
  106MOL   H12615036   1.640   4.203   6.256  1.3751  1.3694  1.8274
  106MOL   H12715037   1.523   4.176   6.063  0.2350 -0.2441  0.3304
  106MOL   C12815038   1.629   4.419   6.243 -0.4548 -0.1846  0.5281
  106MOL   C12915039   1.660   4.469   6.385 -0.2498 -0.6336 -0.3341
  106MOL   O13015040   1.540   4.531   6.429  0.3196 -0.0599 -0.2907
  106MOL   H13115041   1.722   4.414   6.186 -2.1942  2.0750 -2.6004
  106MOL   H13215042   1.579   4.494   6.183  1.5216  0.3451 -0.4989
  106MOL   H13315043   1.738   4.544   6.373  1.2001 -1.9598  0.6446
  106MOL   H13415044   1.538   4.532   6.524 -1.3736  2.1304 -0.3254
  106MOL   C13515045   1.713   4.371   6.495  0.1177  0.0929 -0.4508
  106MOL   C13615046   1.852   4.327   6.457  0.1441  0.3818 -0.2103
  106MOL   O13715047   1.911   4.252   6.565 -0.0155  0.1225 -0.1408
  106MOL   H13815048   1.708   4.413   6.596  0.8181  2.0147 -1.1909
  106MOL   H13915049   1.646   4.285   6.501 -1.8902  1.7781  2.5383
  106MOL   H14015050   1.923   4.406   6.432 -0.3632  1.1954  0.8415
  106MOL   H14115051   1.893   4.163   6.542 -1.6039  0.2834  0.3943
  106MOL   H14215052   1.855   4.264   6.369 -1.0053  0.1001 -0.0534
  107MOL     C115053   6.496   1.981   5.912 -0.1448  0.6140 -0.0632
  107MOL     C215054   6.345   1.979   5.881  0.0571  0.3660 -0.8275
  107MOL     O315055   6.310   2.091   5.805 -0.0144  0.0173  0.2018
  107MOL     H415056   6.526   2.069   5.968  0.0305  0.6562 -0.2225
  107MOL     H515057   6.556   1.981   5.820  1.7975 -0.5828  1.1692
  107MOL     H615058   6.289   1.964   5.973 -0.8472  1.3416 -1.2170
  107MOL     H715059   6.221   2.082   5.773 -0.2009  0.0054  0.7149
  107MOL     H815060   6.513   1.906   5.988 -1.6517  0.6009  0.2724
  107MOL     C915061   6.319   1.858   5.789  0.2774 -0.3052 -0.0920
  107MOL    C1015062   6.174   1.810   5.792  0.1070  0.6307  0.1872
  107MOL    O1115063   6.094   1.893   5.716 -0.0255 -0.0204 -0.5507
  107MOL    H1215064   6.367   1.875   5.693  2.3039 -0.9286  0.7779
  107MOL    H1315065   6.378   1.775   5.828 -0.8029 -0.7787  0.5726
  107MOL    H1415066   6.141   1.789   5.894  1.1585  0.2137  0.4541
  107MOL    H1515067   6.055   1.962   5.767  1.3650  0.7735 -0.5414
  107MOL    C1615068   6.139   1.674   5.725  0.3671  0.6413 -0.6511
  107MOL    C1715069   6.172   1.543   5.803  0.2368  0.4794 -0.1994
  107MOL    O1815070   6.063   1.512   5.886  0.1323 -0.6289 -0.0780
  107MOL    H1915071   6.037   1.671   5.687  0.2140  3.7713 -0.5779
  107MOL    H2015072   6.190   1.670   5.629  0.2034 -1.3583 -0.6881
  107MOL    H2115073   6.256   1.559   5.869 -1.2192 -0.5410  1.9501
  107MOL    H2215074   6.061   1.585   5.946 -1.6200 -0.6639 -0.0789
  107MOL    C2315075   6.212   1.426   5.711  0.0432  0.6938 -1.1702
  107MOL    C2415076   6.214   1.284   5.777  0.0157  0.6647 -0.0417
  107MOL    O2515077   6.230   1.185   5.680 -0.2472  0.0718  0.1650
  107MOL    H2615078   6.127   1.427   5.643 -1.3246  0.3066  0.5045
  107MOL    H2715079   6.302   1.457   5.658 -0.0769  1.5152 -0.9153
  107MOL    H2815080   6.117   1.264   5.821  0.5803 -2.0441  0.0587
  107MOL    H2915081   6.169   1.198   5.608 -2.7440  0.2326  2.2490
  107MOL    C3015082   6.329   1.264   5.876 -0.1950  0.5097  0.3354
  107MOL    C3115083   6.328   1.141   5.961 -0.2075  0.8756 -0.2658
  107MOL    O3215084   6.464   1.109   5.966  0.2185  0.1928 -0.2869
  107MOL    H3315085   6.416   1.268   5.811 -0.5729  0.5773 -0.1680
  107MOL    H3415086   6.327   1.343   5.952 -2.6977  1.8713 -1.0634
  107MOL    H3515087   6.276   1.061   5.909  0.9515  1.2158 -1.9957
  107MOL    H3615088   6.495   1.081   5.882  0.8575  1.3719 -0.4495
  107MOL    C3715089   6.276   1.161   6.113  0.0458 -0.3939  0.1677
  107MOL    C3815090   6.136   1.101   6.155  0.5172  0.0893 -0.4597
  107MOL    O3915091   6.140   1.107   6.297  0.7560 -0.2414 -0.3180
  107MOL    H4015092   6.342   1.105   6.180  0.3149 -2.0090 -1.3843
  107MOL    H4115093   6.290   1.263   6.147  0.0072  0.1099 -1.2696
  107MOL    H4215094   6.137   0.995   6.130  0.3718 -0.1368  0.4839
  107MOL    H4315095   6.200   1.172   6.330 -0.2024  0.2039  0.5675
  107MOL    C4415096   6.019   1.175   6.090 -0.2419 -0.2754  0.5233
  107MOL    C4515097   5.881   1.126   6.145 -0.3794 -0.7575  0.4299
  107MOL    O4615098   5.788   1.170   6.046  0.4215 -0.4701  0.0406
  107MOL    H4715099   6.040   1.278   6.121  2.1640 -0.3663 -0.6827
  107MOL    H4815100   6.020   1.161   5.981  1.5305 -1.7508  0.7118
  107MOL    H4915101   5.854   1.186   6.232  2.3276  2.1827 -0.6523
  107MOL    H5015102   5.790   1.264   6.040  2.0570 -0.4412  0.9693
  107MOL    C5115103   5.850   0.973   6.175 -0.4875 -0.2548  0.3989
  107MOL    C5215104   5.789   0.939   6.315  0.7686  0.2529 -0.0523
  107MOL    O5315105   5.755   0.801   6.319 -0.8037  0.1628  0.3934
  107MOL    H5415106   5.778   0.937   6.102 -0.4077 -0.2865  0.3364
  107MOL    H5515107   5.935   0.905   6.165 -0.4843 -0.4251  1.5047
  107MOL    H5615108   5.692   0.988   6.323  0.7045  0.1828 -0.4243
  107MOL    H5715109   5.831   0.746   6.318 -1.3643 -0.6200  0.4605
  107MOL    C5815110   5.881   0.961   6.444 -0.1096 -0.3892 -0.5538
  107MOL    C5915111   5.877   1.110   6.500  0.8417 -0.8473  0.1689
  107MOL    O6015112   5.741   1.152   6.518  0.3818 -0.3008 -0.0985
  107MOL    H6115113   5.856   0.884   6.517 -0.0018 -1.4525 -1.6373
  107MOL    H6215114   5.983   0.933   6.421 -0.3805 -0.1612 -2.1030
  107MOL    H6315115   5.919   1.179   6.427  2.0319 -2.0484 -0.3162
  107MOL    H6415116   5.744   1.237   6.475  0.1582 -0.3609 -0.2298
  107MOL    C6515117   5.958   1.118   6.620  0.5110 -0.0755  0.1264
  107MOL    C6615118   5.950   1.260   6.695  0.0498  0.2660  0.2325
  107MOL    O6715119   6.009   1.244   6.826 -0.1301 -0.3155  0.2677
  107MOL    H6815120   5.925   1.047   6.696  1.4421  0.5284  1.1181
  107MOL    H6915121   6.058   1.089   6.590  1.1581  0.0858  2.0323
  107MOL    H7015122   5.847   1.294   6.706 -0.3094 -0.7982  0.1976
  107MOL    H7115123   5.950   1.187   6.874 -0.5993 -0.5153 -0.5378
  107MOL    C7215124   6.045   1.358   6.626 -0.8078 -0.1253 -0.7548
  107MOL    C7315125   6.057   1.501   6.682 -0.0495 -0.2849 -0.2352
  107MOL    O7415126   6.151   1.566   6.598  0.4894  0.1080 -0.0718
  107MOL    H7515127   6.148   1.320   6.629 -0.4333  0.8821 -0.5887
  107MOL    H7615128   6.017   1.382   6.524 -1.7941 -0.7260 -0.6271
  107MOL    H7715129   6.091   1.488   6.785  2.2320  3.0373 -0.4770
  107MOL    H7815130   6.189   1.639   6.643  0.9906  0.7743 -1.5480
  107MOL    C7915131   5.922   1.580   6.672 -0.1001  0.2878 -0.6731
  107MOL    C8015132   5.908   1.688   6.779 -0.8879 -0.6034  0.5877
  107MOL    O8115133   6.000   1.792   6.734  0.6509  0.2608 -0.3154
  107MOL    H8215134   5.909   1.622   6.572 -0.1295  1.1095 -0.3281
  107MOL    H8315135   5.836   1.514   6.689 -1.1241  1.0609 -2.7045
  107MOL    H8415136   5.920   1.652   6.882 -1.5665 -0.4036  0.7391
  107MOL    H8515137   6.049   1.816   6.811 -2.7429 -1.9246  2.7510
  107MOL    C8615138   5.768   1.740   6.785  0.2619 -0.3601 -0.6538
  107MOL    C8715139   5.744   1.875   6.858 -0.5845  0.0823 -0.0361
  107MOL    O8815140   5.610   1.910   6.844  0.7551  0.1825  0.0035
  107MOL    H8915141   5.739   1.757   6.681  0.7098  0.9519 -0.5726
  107MOL    H9015142   5.703   1.664   6.828  2.4876 -0.7515  2.1797
  107MOL    H9115143   5.792   1.944   6.789  0.9854 -2.0097 -1.1039
  107MOL    H9215144   5.593   1.889   6.754  3.6493 -0.7859 -0.3937
  107MOL    C9315145   5.794   1.891   7.003 -0.0603 -0.3161 -0.1457
  107MOL    C9415146   5.785   2.034   7.052 -0.6515 -0.0203  0.0670
  107MOL    O9515147   5.729   2.039   7.181 -0.2903  0.6015 -0.0579
  107MOL    H9615148   5.742   1.821   7.068 -2.6721  1.1863 -0.5520
  107MOL    H9715149   5.897   1.855   7.013  0.5128  1.3264 -0.0320
  107MOL    H9815150   5.730   2.087   6.975 -1.6082 -3.4726 -1.7123
  107MOL    H9915151   5.639   2.013   7.167 -1.1821  3.2069  0.6497
  107MOL   C10015152   5.918   2.111   7.075 -1.1397 -0.5763  0.1513
  107MOL   C10115153   5.913   2.270   7.096  0.5115  0.6429 -0.1066
  107MOL   O10215154   6.034   2.316   7.135  0.0884 -0.1500  0.0181
  107MOL   H10315155   5.957   2.057   7.161 -0.6198 -0.5988 -0.1001
  107MOL   H10415156   5.987   2.095   6.991 -1.1394 -0.1526  0.0682
  107MOL   H10515157   5.850   2.284   7.184 -1.0521 -1.4605 -0.8332
  107MOL   H10615158   6.082   2.319   7.054 -0.8605  0.2116 -0.5400
  107MOL   C10715159   5.858   2.341   6.973  0.4704 -0.3493  0.4952
  107MOL   C10815160   5.834   2.496   6.958  0.0367 -0.8383 -0.8382
  107MOL   O10915161   5.750   2.520   6.853  0.3740 -0.1205 -0.4476
  107MOL   H11015162   5.909   2.310   6.882  0.1289  1.2068 -0.2361
  107MOL   H11115163   5.758   2.299   6.962  0.0476  0.7665 -0.0063
  107MOL   H11215164   5.926   2.545   6.927 -0.4455  0.4351 -0.2884
  107MOL   H11315165   5.707   2.602   6.874  1.5755  0.3925  0.1037
  107MOL   C11415166   5.777   2.571   7.078  0.5133 -0.1461  0.0543
  107MOL   C11515167   5.760   2.725   7.053 -0.5466 -0.5072 -0.9524
  107MOL   O11615168   5.655   2.752   6.961 -0.1083 -0.1695  0.0813
  107MOL   H11715169   5.680   2.525   7.096 -0.1951  0.9769 -0.8798
  107MOL   H11815170   5.838   2.552   7.166  1.4813  1.3735 -0.2702
  107MOL   H11915171   5.846   2.762   6.997  1.7060 -1.7060  1.5705
  107MOL   H12015172   5.688   2.826   6.913 -0.5271 -0.4452 -0.6264
  107MOL   C12115173   5.741   2.820   7.174 -0.4379 -0.3499  0.2564
  107MOL   C12215174   5.835   2.812   7.296 -0.1157 -0.1460  0.2192
  107MOL   O12315175   5.973   2.800   7.250 -0.3403  0.4575 -0.5715
  107MOL   H12415176   5.729   2.917   7.126 -0.1948 -1.1477 -1.4499
  107MOL   H12515177   5.642   2.802   7.216  0.4609 -0.8339  2.2358
  107MOL   H12615178   5.813   2.719   7.348  2.1321 -1.7343 -1.5829
  107MOL   H12715179   6.027   2.820   7.325 -1.0676  1.6156 -0.3438
  107MOL   C12815180   5.810   2.934   7.384  0.6944 -0.2461  0.1613
  107MOL   C12915181   5.855   2.920   0.012  0.1814 -0.0039  0.5243
  107MOL   O13015182   5.998   2.901   0.022 -0.4123  0.2229  0.1987
  107MOL   H13115183   5.857   3.027   7.352  0.8494 -0.4467 -0.2001
  107MOL   H13215184   5.703   2.957   7.380  0.7170 -0.2234 -0.3737
  107MOL   H13315185   5.803   2.833   0.052 -1.2270 -0.5398 -2.3561
  107MOL   H13415186   6.014   2.816   0.060  0.7491  0.2245 -0.2684
  107MOL   C13515187   5.828   3.036   0.108  0.2342 -0.3282 -0.4244
  107MOL   C13615188   5.673   3.064   0.118  0.5814  0.5628  0.2234
  107MOL   O13715189   5.631   3.123   0.243 -0.4097  0.5076  0.9518
  107MOL   H13815190   5.848   3.011   0.213 -3.1770  0.1848  0.4032
  107MOL   H13915191   5.884   3.129   0.100 -2.7867  1.7586  1.6020
  107MOL   H14015192   5.612   2.975   0.102  3.5281 -1.8327  1.8897
  107MOL   H14115193   5.538   3.130   0.235 -0.5167 -1.2182  0.4579
  107MOL   H14215194   5.641   3.135   0.041  3.7642  0.6225 -1.1110
  108MOL     C115195   5.105   2.242   5.091  0.3309 -0.2621 -0.6337
  108MOL     C215196   5.035   2.372   5.144 -0.1843  0.5212  0.0102
  108MOL     O315197   5.005   2.448   5.027  0.1428  0.0828 -0.1855
  108MOL     H415198   5.186   2.274   5.025  2.2961  0.3998  2.0458
  108MOL     H515199   5.030   2.174   5.049  1.1281 -2.0133  0.7367
  108MOL     H615200   5.112   2.429   5.196  0.2114  0.3177 -0.3443
  108MOL     H715201   4.913   2.466   5.018  0.1790  0.2985 -0.1439
  108MOL     H815202   5.151   2.193   5.176 -0.6325 -2.2617 -1.2396
  108MOL     C915203   4.908   2.348   5.215 -0.2127  0.2001 -0.3160
  108MOL    C1015204   4.927   2.288   5.354  1.0702 -0.2499 -0.1770
  108MOL    O1115205   4.812   2.330   5.432  0.1423 -0.0994 -0.1822
  108MOL    H1215206   4.853   2.443   5.216 -0.5187  0.0772 -2.8679
  108MOL    H1315207   4.851   2.277   5.156  1.8131 -0.4693 -1.4926
  108MOL    H1415208   5.015   2.332   5.399  2.1137 -2.5777  0.1641
  108MOL    H1515209   4.829   2.414   5.472  2.5617 -0.0438 -1.2061
  108MOL    C1615210   4.938   2.135   5.376  0.1660  0.0113  0.3555
  108MOL    C1715211   4.956   2.082   5.519  0.3476 -0.4357 -0.1785
  108MOL    O1815212   4.890   1.954   5.541 -0.0773  0.4386  0.5461
  108MOL    H1915213   4.846   2.102   5.328  0.8444 -0.1150 -0.8766
  108MOL    H2015214   5.019   2.090   5.318 -0.2212 -1.9067  1.2994
  108MOL    H2115215   4.920   2.154   5.593 -1.0585  0.1427 -1.3947
  108MOL    H2215216   4.922   1.898   5.473  1.0478 -1.1189  2.3090
  108MOL    C2315217   5.104   2.063   5.546  0.5961  0.0647 -0.6695
  108MOL    C2415218   5.149   2.013   5.689  0.8432  0.3143  0.2006
  108MOL    O2515219   5.283   1.968   5.674  0.0623  0.2103  0.3355
  108MOL    H2615220   5.148   1.984   5.485 -0.6155 -0.2512 -1.1350
  108MOL    H2715221   5.147   2.162   5.528  0.3256  0.3063  0.0093
  108MOL    H2815222   5.082   1.930   5.709  0.8290  0.2533 -0.0980
  108MOL    H2915223   5.297   1.963   5.580 -1.6500 -2.6975  0.1435
  108MOL    C3015224   5.128   2.125   5.802  0.0427  0.5697 -0.0659
  108MOL    C3115225   5.205   2.114   5.941  0.1529  0.0427  0.1246
  108MOL    O3215226   5.186   2.232   6.011  0.1749  0.5635  0.1169
  108MOL    H3315227   5.163   2.219   5.760  3.5501 -0.8623 -0.5115
  108MOL    H3415228   5.021   2.124   5.826  0.2676 -1.1233  0.9382
  108MOL    H3515229   5.310   2.096   5.919  0.2242 -0.2246  0.6651
  108MOL    H3615230   5.093   2.244   6.015  0.3314  1.8572  0.0060
  108MOL    C3715231   5.144   2.003   6.022  0.5729  0.0140  0.4892
  108MOL    C3815232   5.197   1.963   6.162 -0.0141  0.1513 -0.4170
  108MOL    O3915233   5.121   1.853   6.208 -0.0528 -0.3924  0.3194
  108MOL    H4015234   5.037   2.022   6.024  0.4456 -0.6729  0.2678
  108MOL    H4115235   5.162   1.911   5.966 -0.9449 -0.2005  0.3558
  108MOL    H4215236   5.180   2.051   6.224  0.7848 -0.8251  1.2258
  108MOL    H4315237   5.137   1.778   6.153  0.0806 -1.3030  1.5756
  108MOL    C4415238   5.347   1.923   6.170  0.0747 -0.0811  0.5241
  108MOL    C4515239   5.407   1.914   6.310  0.5273 -0.1261 -0.5087
  108MOL    O4615240   5.523   1.834   6.302 -0.1195 -0.3567  0.7697
  108MOL    H4715241   5.360   1.836   6.106  0.0136  1.8734 -2.2256
  108MOL    H4815242   5.411   1.986   6.109 -0.5121  0.0177  0.0086
  108MOL    H4915243   5.333   1.867   6.375  0.6146  0.3658 -0.0481
  108MOL    H5015244   5.566   1.863   6.223 -0.8574 -0.9483  0.1302
  108MOL    C5115245   5.441   2.047   6.376  0.2791 -0.1411 -0.0581
  108MOL    C5215246   5.500   2.033   6.523  0.7222 -0.5603  0.2967
  108MOL    O5315247   5.620   1.955   6.513 -0.0542  0.0447 -0.3212
  108MOL    H5415248   5.518   2.098   6.318  0.5513  0.0103  0.4323
  108MOL    H5515249   5.349   2.104   6.386  0.6350  0.3180  0.6483
  108MOL    H5615250   5.438   1.965   6.582  1.9449 -0.6212  1.5311
  108MOL    H5715251   5.612   1.888   6.448  0.5588 -2.4508  2.0688
  108MOL    C5815252   5.536   2.164   6.595  0.3601  0.3289  0.8131
  108MOL    C5915253   5.427   2.273   6.608 -0.2054 -0.3071  0.3911
  108MOL    O6015254   5.324   2.230   6.695 -0.2270  0.2611 -0.0346
  108MOL    H6115255   5.564   2.134   6.696  1.7668  0.3670  0.4430
  108MOL    H6215256   5.622   2.203   6.541  1.5714 -2.7755  0.4083
  108MOL    H6315257   5.384   2.289   6.509  3.2516 -1.9237 -1.4432
  108MOL    H6415258   5.244   2.270   6.663 -1.9424 -3.9319 -1.2338
  108MOL    C6515259   5.477   2.412   6.641  0.1411  0.5959  0.1664
  108MOL    C6615260   5.589   2.477   6.552  0.2891 -0.1172 -0.3092
  108MOL    O6715261   5.713   2.434   6.594  0.0578  0.6532 -0.3880
  108MOL    H6815262   5.391   2.479   6.638 -1.2260 -1.1389  0.3618
  108MOL    H6915263   5.517   2.408   6.742  0.9587 -0.0182 -0.1750
  108MOL    H7015264   5.591   2.583   6.578 -0.3946 -0.0884 -0.3600
  108MOL    H7115265   5.723   2.459   6.685  0.9254 -1.6632  0.2029
  108MOL    C7215266   5.569   2.468   6.394 -0.1666  0.5277  0.4405
  108MOL    C7315267   5.431   2.497   6.333  0.4712  0.0123  0.1250
  108MOL    O7415268   5.392   2.620   6.387  0.0677 -0.6125  0.7402
  108MOL    H7515269   5.647   2.533   6.356 -1.5087  1.3897 -0.8950
  108MOL    H7615270   5.591   2.363   6.372  0.0544  0.5391  0.6162
  108MOL    H7715271   5.361   2.418   6.360 -0.7897  1.5274  1.4196
  108MOL    H7815272   5.307   2.633   6.348  0.7501 -1.3767 -1.0497
  108MOL    C7915273   5.439   2.512   6.180 -0.3266  0.0513 -0.3072
  108MOL    C8015274   5.481   2.387   6.100  0.3192 -0.5655  0.6063
  108MOL    O8115275   5.400   2.283   6.148  0.6685  0.0462 -0.7110
  108MOL    H8215276   5.338   2.547   6.159 -1.1719 -0.5579  2.5607
  108MOL    H8315277   5.508   2.595   6.164 -1.3093  0.8820 -0.2308
  108MOL    H8415278   5.582   2.356   6.126  0.1868 -2.6346 -1.2449
  108MOL    H8515279   5.322   2.268   6.097  0.3149 -0.0959 -0.1350
  108MOL    C8615280   5.449   2.406   5.952 -0.5768 -0.4553  0.0855
  108MOL    C8715281   5.522   2.531   5.893 -0.2358  0.2187  0.7732
  108MOL    O8815282   5.662   2.508   5.902  0.3090 -0.1086  0.0266
  108MOL    H8915283   5.476   2.319   5.894 -2.1849 -0.0807 -1.2735
  108MOL    H9015284   5.341   2.414   5.943 -0.3367 -0.0998 -2.8284
  108MOL    H9115285   5.512   2.618   5.958 -1.1070 -0.3646  1.4256
  108MOL    H9215286   5.704   2.461   5.831  1.6209 -0.1328  0.8120
  108MOL    C9315287   5.470   2.573   5.758 -0.1796  0.7124  0.1150
  108MOL    C9415288   5.328   2.648   5.762 -0.0145  0.7134 -0.0056
  108MOL    O9515289   5.357   2.786   5.792 -0.1745  0.6716  0.0443
  108MOL    H9615290   5.545   2.630   5.703 -0.4167  0.4329 -0.5063
  108MOL    H9715291   5.466   2.480   5.700 -1.8139  1.6710 -1.3703
  108MOL    H9815292   5.257   2.609   5.834  0.6912  0.7991  0.7491
  108MOL    H9915293   5.327   2.802   5.880 -0.8908  0.9124 -0.2395
  108MOL   C10015294   5.256   2.648   5.628 -0.4738  0.4115  0.4139
  108MOL   C10115295   5.178   2.517   5.599 -0.1515  0.2927 -0.0349
  108MOL   O10215296   5.262   2.408   5.605 -0.3474 -0.2360 -0.1624
  108MOL   H10315297   5.194   2.737   5.630 -0.2796  0.5936 -0.9924
  108MOL   H10415298   5.324   2.674   5.547 -0.0864  0.1417  0.6510
  108MOL   H10515299   5.143   2.532   5.497  0.0447  1.2782  0.0434
  108MOL   H10615300   5.286   2.377   5.519  0.8123  2.4361 -0.8718
  108MOL   C10715301   5.047   2.492   5.675  0.4621 -0.6400 -0.9613
  108MOL   C10815302   4.942   2.600   5.650  0.4207 -0.0037 -1.2409
  108MOL   O10915303   4.899   2.583   5.513  0.1496 -0.1254  0.3968
  108MOL   H11015304   4.992   2.400   5.655 -2.4759  1.2013 -1.6340
  108MOL   H11115305   5.066   2.493   5.782 -1.4680 -1.2190 -0.5889
  108MOL   H11215306   5.003   2.688   5.672  1.2779 -1.5779  3.2111
  108MOL   H11315307   4.923   2.661   5.466  0.9199 -1.6324 -1.7957
  108MOL   C11415308   4.813   2.590   5.742 -0.4781  0.6028  0.1447
  108MOL   C11515309   4.721   2.705   5.751 -0.2519  0.0238  0.0256
  108MOL   O11615310   4.586   2.653   5.759 -0.3151 -0.3232  0.3421
  108MOL   H11715311   4.749   2.513   5.700 -2.0347  0.1694  3.1487
  108MOL   H11815312   4.838   2.556   5.843  1.1884  1.5387  0.0649
  108MOL   H11915313   4.717   2.758   5.656 -0.6106 -1.7791 -0.9958
  108MOL   H12015314   4.565   2.663   5.851  0.7936  0.6782  0.4978
  108MOL   C12115315   4.744   2.808   5.865  0.0326  0.2494 -0.6244
  108MOL   C12215316   4.879   2.876   5.869 -0.6980  0.0136  0.1566
  108MOL   O12315317   4.970   2.776   5.913  0.7584 -0.2156  0.1148
  108MOL   H12415318   4.670   2.887   5.861  1.0137  1.1906 -0.3251
  108MOL   H12515319   4.728   2.753   5.958 -3.4846 -0.3471 -1.5014
  108MOL   H12615320   4.880   2.948   5.951  0.4721 -2.6041  2.5188
  108MOL   H12715321   5.027   2.817   5.977  1.4117 -1.0662  0.0927
  108MOL   C12815322   4.934   2.958   5.743 -0.0619 -0.4719 -0.0623
  108MOL   C12915323   4.833   3.057   5.696 -0.0393 -0.3752 -0.2509
  108MOL   O13015324   4.829   3.151   5.805  0.0342  0.3076  0.5646
  108MOL   H13115325   5.032   3.001   5.766 -0.5068  1.3911 -1.5005
  108MOL   H13215326   4.927   2.894   5.655 -3.1565 -0.5418  0.1809
  108MOL   H13315327   4.738   3.003   5.688  0.2650 -0.8359 -0.7978
  108MOL   H13415328   4.914   3.180   5.833  0.2731  0.6672 -0.5072
  108MOL   C13515329   4.861   3.138   5.565  0.5001 -0.6457  0.2953
  108MOL   C13615330   4.750   3.229   5.519  0.2230 -0.0336 -0.6868
  108MOL   O13715331   4.778   3.275   5.390 -0.0138  0.4663 -0.1026
  108MOL   H13815332   4.952   3.197   5.580 -0.1009  0.5357 -0.6124
  108MOL   H13915333   4.889   3.074   5.481  0.2529 -0.0745 -0.2213
  108MOL   H14015334   4.744   3.315   5.586 -2.1511 -2.3255  2.1409
  108MOL   H14115335   4.728   3.233   5.322  2.5669 -0.9065 -1.2162
  108MOL   H14215336   4.661   3.169   5.534  0.1608  0.0718 -0.6285
  109MOL     C115337   7.208   1.232   3.317  0.2381 -0.6807  0.7343
  109MOL     C215338   7.078   1.285   3.265  0.0812 -0.5504  0.4445
  109MOL     O315339   6.995   1.180   3.215  0.0073 -0.1485 -0.2158
  109MOL     H415340   7.203   1.166   3.404  1.8469 -2.1303 -0.2351
  109MOL     H515341   7.266   1.318   3.350 -0.3209  0.4372 -1.0894
  109MOL     H615342   7.093   1.353   3.181 -0.7311 -0.2695  0.5242
  109MOL     H715343   7.035   1.116   3.157 -1.6270 -0.6857 -0.7940
  109MOL     H815344   7.274   1.193   3.239  1.5085  1.0364  0.9120
  109MOL     C915345   6.988   1.370   3.355  0.1102 -0.7779  0.5950
  109MOL    C1015346   6.854   1.412   3.293  0.4479  0.3759  0.5303
  109MOL    O1115347   6.787   1.508   3.375 -0.6985 -0.5218 -0.3608
  109MOL    H1215348   6.972   1.317   3.449 -1.0035 -2.8748 -0.7448
  109MOL    H1315349   7.055   1.453   3.377  1.1944 -1.1527 -1.2228
  109MOL    H1415350   6.790   1.325   3.282 -2.6761  2.8094 -1.6938
  109MOL    H1515351   6.706   1.463   3.396 -1.8029  1.2449 -0.6980
  109MOL    C1615352   6.863   1.487   3.155  0.6533  0.5755 -0.5029
  109MOL    C1715353   6.728   1.558   3.112  0.0431  0.6671 -0.4087
  109MOL    O1815354   6.744   1.619   2.984 -0.1575 -0.1385  0.1144
  109MOL    H1915355   6.933   1.569   3.170  0.3304  0.5213  1.3785
  109MOL    H2015356   6.896   1.417   3.078 -0.9944  1.0851 -1.7042
  109MOL    H2115357   6.705   1.636   3.184  1.0206  2.6085 -2.1300
  109MOL    H2215358   6.671   1.676   2.966  0.2424 -0.5018 -2.8542
  109MOL    C2315359   6.612   1.457   3.098 -0.1727 -0.1903  0.5113
  109MOL    C2415360   6.482   1.522   3.050  0.3443 -0.8820  0.0819
  109MOL    O2515361   6.384   1.430   3.045 -0.4619  0.6321  0.6910
  109MOL    H2615362   6.637   1.385   3.021 -1.1539  0.8881 -0.8450
  109MOL    H2715363   6.604   1.399   3.190 -1.3352 -1.3041 -0.2781
  109MOL    H2815364   6.501   1.561   2.949 -0.3283  0.8037  0.5877
  109MOL    H2915365   6.306   1.469   3.009 -1.1287 -1.6040 -0.3768
  109MOL    C3015366   6.431   1.649   3.129 -0.1218 -0.0690  0.1900
  109MOL    C3115367   6.367   1.627   3.266 -0.0419  0.5519  0.5405
  109MOL    O3215368   6.465   1.583   3.357 -0.4192  0.2702  0.5366
  109MOL    H3315369   6.510   1.722   3.146 -1.4062  1.3571  0.2098
  109MOL    H3415370   6.355   1.686   3.060 -0.9390 -1.9506  0.0709
  109MOL    H3515371   6.303   1.539   3.266 -0.7093  1.0348  0.7016
  109MOL    H3615372   6.456   1.629   3.439  1.6132  2.4611 -0.4057
  109MOL    C3715373   6.301   1.750   3.322  0.3571 -0.7605 -0.4574
  109MOL    C3815374   6.179   1.811   3.246 -0.0645 -0.1141 -0.1728
  109MOL    O3915375   6.072   1.719   3.249 -0.5512 -0.3561  0.2400
  109MOL    H4015376   6.251   1.732   3.417  3.5349 -1.0744  1.2243
  109MOL    H4115377   6.376   1.821   3.357 -1.0409 -0.3344  1.8224
  109MOL    H4215378   6.204   1.825   3.141  0.0356 -1.3054 -0.3130
  109MOL    H4315379   6.053   1.697   3.339 -3.5574 -1.3041 -0.5668
  109MOL    C4415380   6.150   1.948   3.309 -0.2930  0.9501  0.4099
  109MOL    C4515381   6.027   2.018   3.249  0.0143  0.4271 -0.1614
  109MOL    O4615382   5.972   2.109   3.342  1.0486  0.0548  0.6545
  109MOL    H4715383   6.132   1.924   3.414 -0.4302 -1.2828 -0.0918
  109MOL    H4815384   6.243   2.004   3.304  0.2326 -0.0871 -2.5578
  109MOL    H4915385   5.951   1.940   3.237  1.1708 -0.6476 -0.5893
  109MOL    H5015386   5.915   2.164   3.291  2.0845 -0.0882 -0.6990
  109MOL    C5115387   6.046   2.102   3.118 -0.2077 -0.4229  0.2062
  109MOL    C5215388   5.909   2.132   3.057  0.2167  0.5039 -0.0655
  109MOL    O5315389   5.822   2.206   3.141  0.1187 -0.8381 -0.6548
  109MOL    H5415390   6.117   2.183   3.138  0.0553 -0.7344  0.5463
  109MOL    H5515391   6.095   2.037   3.045 -2.4286  1.2656 -2.8754
  109MOL    H5615392   5.855   2.038   3.042 -0.5282  0.8952  0.1725
  109MOL    H5715393   5.741   2.220   3.096 -0.0434  0.0838 -0.0877
  109MOL    C5815394   5.920   2.211   2.923  0.4099  0.3462 -0.3979
  109MOL    C5915395   5.998   2.148   2.811 -0.8144  0.0818 -0.5922
  109MOL    O6015396   5.957   2.021   2.776  0.3077  0.1592 -0.2021
  109MOL    H6115397   5.819   2.236   2.890 -0.5201 -0.8456  1.4394
  109MOL    H6215398   5.963   2.307   2.952  0.5990  0.3720 -0.7734
  109MOL    H6315399   6.093   2.125   2.859 -1.5272  0.7738  1.1909
  109MOL    H6415400   6.037   1.972   2.762  0.7146  1.3852 -2.4160
  109MOL    C6515401   6.026   2.231   2.685 -0.4025  0.2229  0.2731
  109MOL    C6615402   6.065   2.386   2.699 -0.7258 -0.5021  0.6706
  109MOL    O6715403   6.164   2.388   2.794 -0.0892  0.1297 -0.1997
  109MOL    H6815404   6.093   2.177   2.618 -0.8820 -2.0580  1.5981
  109MOL    H6915405   5.931   2.226   2.631  0.0525  0.8357 -0.5932
  109MOL    H7015406   5.986   2.444   2.745 -2.2436 -3.0525  1.3603
  109MOL    H7115407   6.146   2.469   2.840 -0.6662  0.2408 -0.6143
  109MOL    C7215408   6.113   2.462   2.575  0.1865  0.3880 -0.8083
  109MOL    C7315409   6.002   2.475   2.466 -0.0461  0.2955 -1.2522
  109MOL    O7415410   6.035   2.593   2.391  0.0067 -0.2861  0.9200
  109MOL    H7515411   6.134   2.560   2.618  0.1888 -0.6561  1.6515
  109MOL    H7615412   6.207   2.429   2.531  1.6910  0.1503  2.4310
  109MOL    H7715413   5.905   2.480   2.514  0.3178  1.7104 -0.6277
  109MOL    H7815414   6.115   2.572   2.346  0.2109  0.9079  0.7142
  109MOL    C7915415   6.003   2.353   2.367  0.6685 -0.3280 -0.0196
  109MOL    C8015416   5.881   2.334   2.272  0.2052 -0.5414 -0.6762
  109MOL    O8115417   5.876   2.438   2.174  0.0529  0.4142  0.1598
  109MOL    H8215418   6.100   2.359   2.317 -0.5858  1.8209 -2.2782
  109MOL    H8315419   6.002   2.260   2.425 -2.0425 -0.7998 -0.7720
  109MOL    H8415420   5.789   2.339   2.332  0.2447 -3.3017 -0.3298
  109MOL    H8515421   5.892   2.522   2.214 -1.5242  1.3299 -1.0714
  109MOL    C8615422   5.878   2.203   2.192  0.3318  0.0708 -0.5625
  109MOL    C8715423   5.760   2.172   2.112  0.0778  0.3285 -0.0093
  109MOL    O8815424   5.801   2.067   2.022  0.2010  0.3095  0.1264
  109MOL    H8915425   5.965   2.216   2.127  2.3074 -1.5864  1.6275
  109MOL    H9015426   5.904   2.118   2.255  1.1203  1.7969  1.5141
  109MOL    H9115427   5.745   2.265   2.057  1.7054  0.7246  0.2152
  109MOL    H9215428   5.758   1.991   2.058 -2.2123  0.5515 -2.1095
  109MOL    C9315429   5.630   2.152   2.182  0.4358  0.5873 -0.0119
  109MOL    C9415430   5.516   2.115   2.095  0.0267  0.0115  0.5686
  109MOL    O9515431   5.410   2.068   2.176  0.0512  0.1664 -0.1844
  109MOL    H9615432   5.651   2.068   2.248 -1.5259  0.0519 -0.0248
  109MOL    H9715433   5.611   2.223   2.261 -0.8292 -0.1877  0.4020
  109MOL    H9815434   5.543   2.036   2.025 -0.5725 -0.9438  1.4100
  109MOL    H9915435   5.438   2.067   2.266  0.5831  0.8079 -0.3449
  109MOL   C10015436   5.445   2.227   2.014 -0.3248  0.2967 -0.4005
  109MOL   C10115437   5.341   2.171   1.912 -0.0589 -0.7314 -0.5538
  109MOL   O10215438   5.280   2.294   1.881 -0.1776 -0.5570  0.4829
  109MOL   H10315439   5.396   2.286   2.091  1.3370 -0.7072  1.4888
  109MOL   H10415440   5.526   2.282   1.965  0.0075  1.9344  1.9582
  109MOL   H10515441   5.276   2.101   1.964 -2.4379  1.0186 -1.0991
  109MOL   H10615442   5.262   2.340   1.962 -1.9709 -0.5608  0.0984
  109MOL   C10715443   5.409   2.111   1.788  1.0131 -0.3864  0.8425
  109MOL   C10815444   5.316   2.011   1.714 -0.4306  0.1024  0.1870
  109MOL   O10915445   5.372   1.999   1.584 -0.0490  0.0292 -0.0092
  109MOL   H11015446   5.418   2.197   1.721  1.3855  1.2916  2.9779
  109MOL   H11115447   5.504   2.060   1.800  0.2298 -1.4631  2.6524
  109MOL   H11215448   5.218   2.058   1.708  0.5827  2.5043  1.6959
  109MOL   H11315449   5.342   1.915   1.553 -1.7366  0.0150  1.5614
  109MOL   C11415450   5.300   1.876   1.781 -0.8839 -0.2528  0.1700
  109MOL   C11515451   5.198   1.782   1.714 -0.5556 -0.5094 -1.1961
  109MOL   O11615452   5.226   1.768   1.578 -0.7839  0.4964  0.9126
  109MOL   H11715453   5.394   1.820   1.790 -1.8370 -2.0146 -0.5796
  109MOL   H11815454   5.263   1.892   1.883 -1.4005 -2.9189  0.4541
  109MOL   H11915455   5.103   1.833   1.732 -0.1257 -0.1480  0.1001
  109MOL   H12015456   5.150   1.735   1.534 -0.4996 -0.8830  1.4223
  109MOL   C12115457   5.189   1.635   1.762  0.5927 -0.5163 -0.6091
  109MOL   C12215458   5.184   1.621   1.917 -0.2935 -0.2644 -0.1391
  109MOL   O12315459   5.063   1.677   1.954  0.1672 -0.0365 -0.1158
  109MOL   H12415460   5.102   1.588   1.715 -2.9949  3.7368  1.3846
  109MOL   H12515461   5.278   1.583   1.728  0.8892 -1.8113  1.9874
  109MOL   H12615462   5.261   1.676   1.970 -2.1841  1.2783  1.0699
  109MOL   H12715463   5.050   1.671   2.048  0.6341 -0.8485 -0.1009
  109MOL   C12815464   5.190   1.486   1.975  0.2796  1.0084 -0.2162
  109MOL   C12915465   5.309   1.391   1.932  0.3486 -0.4297 -0.2002
  109MOL   O13015466   5.431   1.453   1.971  0.5949 -0.0132  0.0515
  109MOL   H13115467   5.187   1.481   2.084  2.0714  0.1987 -0.1735
  109MOL   H13215468   5.098   1.443   1.936  0.3716  1.9172 -1.4553
  109MOL   H13315469   5.311   1.380   1.823  3.0075  3.2940 -0.6374
  109MOL   H13415470   5.421   1.519   2.038  1.6400  0.9083 -0.6612
  109MOL   C13515471   5.308   1.254   2.007  0.3529  0.4942 -0.7763
  109MOL   C13615472   5.184   1.162   1.971  0.2104 -0.4286 -0.2824
  109MOL   O13715473   5.203   1.032   2.028 -0.1558 -0.1804  0.4290
  109MOL   H13815474   5.404   1.207   1.983  0.1686 -1.0095  1.2827
  109MOL   H13915475   5.314   1.270   2.114 -0.8259  2.5311 -1.0010
  109MOL   H14015476   5.176   1.145   1.864 -3.9704 -0.2091 -0.1116
  109MOL   H14115477   5.197   0.970   1.957 -0.0094  0.2339  0.0548
  109MOL   H14215478   5.087   1.201   2.004  1.0321  0.4302  1.1769
  110MOL     C115479   4.790   6.273   1.173  1.0408  0.3043  0.0344
  110MOL     C215480   4.876   6.217   1.288  1.0074  0.1956 -0.1131
  110MOL     O315481   4.802   6.244   1.408  0.4348  0.7141  0.1504
  110MOL     H415482   4.796   6.219   1.079 -1.7745  0.7081 -0.4118
  110MOL     H515483   4.804   6.380   1.153  0.3885  0.3501 -0.1624
  110MOL     H615484   4.969   6.274   1.287  0.5076  1.0449  1.0472
  110MOL     H715485   4.729   6.302   1.394 -0.9065 -0.6789  1.3404
  110MOL     H815486   4.686   6.263   1.202  1.2113  0.3120  0.6495
  110MOL     C915487   4.918   6.071   1.270 -0.3335 -0.2930 -0.9955
  110MOL    C1015488   5.008   6.020   1.379 -0.1478  0.2614  0.4771
  110MOL    O1115489   4.919   6.001   1.488  0.3159 -0.6479  0.2547
  110MOL    H1215490   4.828   6.010   1.262  0.6164 -1.8536  0.0220
  110MOL    H1315491   4.980   6.066   1.180 -1.2561  0.5964 -1.6960
  110MOL    H1415492   5.082   6.097   1.401  1.1793 -0.9196  0.2763
  110MOL    H1515493   4.877   6.085   1.494  1.0491 -0.0559 -2.3164
  110MOL    C1615494   5.064   5.883   1.337 -0.4790 -0.8840  0.5169
  110MOL    C1715495   5.151   5.821   1.445  0.0073  0.3358  0.5066
  110MOL    O1815496   5.149   5.681   1.431 -0.6911  0.1568  0.2467
  110MOL    H1915497   4.979   5.816   1.327 -0.6114 -0.8646  1.4719
  110MOL    H2015498   5.114   5.893   1.241 -0.5500  0.4852  0.6148
  110MOL    H2115499   5.107   5.843   1.543 -1.3664  1.2132 -0.2899
  110MOL    H2215500   5.098   5.664   1.353 -0.2567  1.1872 -0.2647
  110MOL    C2315501   5.298   5.878   1.436 -0.5973 -0.3200 -0.3654
  110MOL    C2415502   5.390   5.851   1.558 -0.9284 -0.2934 -0.3666
  110MOL    O2515503   5.518   5.874   1.505 -0.4156  0.2514 -0.3270
  110MOL    H2615504   5.324   5.834   1.340 -1.3905  0.8557 -1.1188
  110MOL    H2715505   5.300   5.986   1.421  0.4424  0.4350  4.3055
  110MOL    H2815506   5.365   5.751   1.593 -1.0003 -0.2184 -0.2037
  110MOL    H2915507   5.570   5.895   1.582 -0.7341 -1.2996  0.3460
  110MOL    C3015508   5.363   5.919   1.694  0.1349  0.1270  0.1551
  110MOL    C3115509   5.453   5.876   1.806  0.2737  0.0438  0.7347
  110MOL    O3215510   5.590   5.905   1.767  0.3241 -0.3479 -0.6017
  110MOL    H3315511   5.374   6.025   1.673  2.2077 -0.1149 -0.1155
  110MOL    H3415512   5.258   5.898   1.713 -0.1911  0.6639 -0.9716
  110MOL    H3515513   5.447   5.769   1.827  3.0071 -0.4419 -0.6794
  110MOL    H3615514   5.629   5.897   1.853 -2.7631  0.6031  0.9489
  110MOL    C3715515   5.431   5.947   1.938  0.3042  0.0720  0.5163
  110MOL    C3815516   5.487   5.866   2.061 -0.1845 -0.0291 -0.3648
  110MOL    O3915517   5.625   5.897   2.063  0.1354  0.7864 -0.0326
  110MOL    H4015518   5.463   6.051   1.936 -0.8029  0.5161  3.5175
  110MOL    H4115519   5.324   5.957   1.958  0.0575 -2.1164  0.3682
  110MOL    H4215520   5.477   5.760   2.037 -1.0779 -0.4241  1.7043
  110MOL    H4315521   5.664   5.846   2.132  1.3589 -0.1608 -1.3750
  110MOL    C4415522   5.411   5.904   2.187  0.2290  0.3348  0.1369
  110MOL    C4515523   5.265   5.846   2.199 -0.1566  0.1245 -0.0832
  110MOL    O4615524   5.279   5.705   2.215 -0.0954  0.3540  0.3760
  110MOL    H4715525   5.478   5.863   2.263  1.3157  0.3012 -0.8137
  110MOL    H4815526   5.412   6.012   2.199 -1.7356  0.4804 -0.8381
  110MOL    H4915527   5.201   5.863   2.112  0.5344  0.3220 -0.5571
  110MOL    H5015528   5.206   5.665   2.171 -0.3781  1.1732  0.1018
  110MOL    C5115529   5.183   5.896   2.323 -0.4042 -0.1721  0.6078
  110MOL    C5215530   5.161   6.051   2.328 -0.0747  0.0474 -0.2840
  110MOL    O5315531   5.032   6.074   2.370  0.1051 -0.2988 -0.3707
  110MOL    H5415532   5.088   5.843   2.316 -0.4469  0.2153 -2.5513
  110MOL    H5515533   5.238   5.882   2.416 -1.8228  1.8321  1.7912
  110MOL    H5615534   5.162   6.080   2.223  1.2439 -0.2736 -0.3730
  110MOL    H5715535   5.020   6.025   2.450 -2.3198 -1.3068 -1.2852
  110MOL    C5815536   5.249   6.126   2.426 -0.3316  0.1600  0.7309
  110MOL    C5915537   5.248   6.281   2.397  0.5735 -0.4557  0.7414
  110MOL    O6015538   5.282   6.352   2.518 -0.3882  0.0256  0.1811
  110MOL    H6115539   5.230   6.101   2.530 -0.1404 -2.3924  0.1884
  110MOL    H6215540   5.345   6.085   2.395 -1.6440 -3.1628  0.8443
  110MOL    H6315541   5.145   6.302   2.367  0.7580  0.6107  0.8458
  110MOL    H6415542   5.376   6.342   2.523 -0.3454 -0.1455 -0.8286
  110MOL    C6515543   5.339   6.316   2.281 -0.0529 -0.2296  0.1364
  110MOL    C6615544   5.334   6.473   2.244  0.1884  0.1229 -0.5217
  110MOL    O6715545   5.463   6.522   2.214  0.2991 -0.3729  0.5136
  110MOL    H6815546   5.436   6.287   2.322  0.4938  0.9185 -0.3430
  110MOL    H6915547   5.331   6.258   2.189 -0.8716 -0.1120  0.1261
  110MOL    H7015548   5.297   6.523   2.333 -1.0036 -0.1393 -0.8592
  110MOL    H7115549   5.450   6.612   2.188 -0.5700 -0.5047  0.4667
  110MOL    C7215550   5.254   6.494   2.119  0.2615 -0.0620 -0.5521
  110MOL    C7315551   5.102   6.490   2.148 -0.0285 -0.4308  0.4409
  110MOL    O7415552   5.063   6.614   2.209  0.0364  0.3498  0.5200
  110MOL    H7515553   5.273   6.587   2.067  2.6536 -1.1982 -1.8259
  110MOL    H7615554   5.276   6.409   2.054  0.0683 -1.2833  0.9487
  110MOL    H7715555   5.065   6.401   2.200  0.8824 -1.9142 -1.3620
  110MOL    H7815556   4.981   6.607   2.254 -0.4023  0.1657 -0.2942
  110MOL    C7915557   5.025   6.485   2.009 -0.4537 -0.1806  0.0822
  110MOL    C8015558   5.045   6.355   1.933 -0.2728  0.0579  0.1713
  110MOL    O8115559   4.950   6.257   1.982  0.0390  0.4040  0.0755
  110MOL    H8215560   4.916   6.493   2.015 -0.4358 -0.0239  0.1922
  110MOL    H8315561   5.064   6.566   1.947 -3.6587  0.9340 -0.5580
  110MOL    H8415562   5.143   6.309   1.944  0.5205  0.7461 -3.2711
  110MOL    H8515563   4.991   6.173   1.964  1.7032  1.3720 -0.7664
  110MOL    C8615564   5.024   6.382   1.781 -0.1318  0.2721 -0.1339
  110MOL    C8715565   5.132   6.469   1.712 -0.4198 -0.1097  0.5328
  110MOL    O8815566   5.259   6.432   1.755 -0.1175  0.1624  0.3126
  110MOL    H8915567   5.018   6.288   1.726  2.3096 -0.1406  0.2437
  110MOL    H9015568   4.924   6.411   1.751 -0.8863 -1.2296  0.9063
  110MOL    H9115569   5.113   6.571   1.745 -1.2350  0.1333 -0.6679
  110MOL    H9215570   5.305   6.510   1.782 -2.6661  1.6016  0.6892
  110MOL    C9315571   5.125   6.464   1.557  0.0571  0.4662 -0.1327
  110MOL    C9415572   5.224   6.565   1.499  0.3499  0.4778  0.2747
  110MOL    O9515573   5.232   6.539   1.360  0.2667 -0.7011  0.2961
  110MOL    H9615574   5.143   6.364   1.517  0.1236  0.4871 -0.1541
  110MOL    H9715575   5.027   6.494   1.518 -0.1761  0.5650  0.5193
  110MOL    H9815576   5.325   6.550   1.536  0.1040 -1.3703  0.2543
  110MOL    H9915577   5.308   6.483   1.356 -0.1004 -1.3025  1.7164
  110MOL   C10015578   5.180   6.708   1.516  0.3244  0.3752 -0.2966
  110MOL   C10115579   5.237   6.801   1.406 -0.4066 -0.2649  0.4596
  110MOL   O10215580   5.192   6.927   1.438 -0.2128 -0.0495 -0.2180
  110MOL   H10315581   5.074   6.716   1.539 -0.1552 -2.5300 -1.2537
  110MOL   H10415582   5.242   6.742   1.599 -0.1789  2.4651 -0.7456
  110MOL   H10515583   5.183   6.783   1.313  2.3702  0.4696 -1.3732
  110MOL   H10615584   5.199   6.934   1.532  1.3203  1.6479 -0.4230
  110MOL   C10715585   5.387   6.795   1.385  0.4984 -0.9715  0.2351
  110MOL   C10815586   5.446   6.878   1.275  0.5450  0.7493 -0.4251
  110MOL   O10915587   5.588   6.895   1.305  1.1518 -0.1382  0.7998
  110MOL   H11015588   5.437   6.821   1.478  3.7787 -3.9828 -0.5708
  110MOL   H11115589   5.423   6.692   1.373  0.7426 -1.1940  2.5876
  110MOL   H11215590   5.396   6.975   1.279 -1.2306 -0.2122  2.6269
  110MOL   H11315591   5.597   6.953   1.379  2.4941 -0.6720  1.0600
  110MOL   C11415592   5.429   6.806   1.136 -0.3447 -0.0227  0.0668
  110MOL   C11515593   5.476   6.891   1.016 -0.3968 -0.7902  0.1567
  110MOL   O11615594   5.478   6.804   0.904 -0.1543 -0.2207  0.3696
  110MOL   H11715595   5.485   6.714   1.147 -0.4150  0.2045  2.6968
  110MOL   H11815596   5.324   6.780   1.120  0.2918 -0.5791 -3.7336
  110MOL   H11915597   5.571   6.929   1.054 -0.0319 -0.9891 -0.5606
  110MOL   H12015598   5.568   6.802   0.874  0.1740  1.3862  1.1984
  110MOL   C12115599   5.390   7.012   0.977 -0.2374  0.0559 -0.6147
  110MOL   C12215600   5.469   7.117   0.890  0.6541 -0.1656 -0.0430
  110MOL   O12315601   5.505   7.072   0.759  0.3890 -0.6701 -0.7318
  110MOL   H12415602   5.290   6.989   0.938 -0.3902  1.7946 -1.3011
  110MOL   H12515603   5.369   7.068   1.068  1.6030  2.5312 -1.6662
  110MOL   H12615604   5.563   7.142   0.937 -0.2605  0.8944  1.2524
  110MOL   H12715605   5.569   7.003   0.772 -0.4312 -1.1597  0.8234
  110MOL   C12815606   5.387   7.247   0.869  0.1781 -0.6686  0.0599
  110MOL   C12915607   5.454   7.354   0.786  0.1076 -0.2737 -0.0755
  110MOL   O13015608   5.390   7.479   0.808 -0.5991  0.2065 -0.4410
  110MOL   H13115609   5.282   7.231   0.847 -0.4608  1.7221  1.3176
  110MOL   H13215610   5.382   7.286   0.970  2.1278  0.5288 -0.2937
  110MOL   H13315611   5.444   7.331   0.680 -1.6261  1.9674 -0.4224
  110MOL   H13415612   5.298   7.458   0.801 -1.0173  0.9750  2.4071
  110MOL   C13515613   5.602   7.390   0.824  0.3668 -0.3405 -0.4270
  110MOL   C13615614   5.667   7.498   0.741  0.0830 -0.0983  0.1213
  110MOL   O13715615   5.797   0.007   0.798 -0.6810 -0.0078  0.3929
  110MOL   H13815616   5.603   7.408   0.931 -2.3211 -2.9181  0.1026
  110MOL   H13915617   5.668   7.304   0.812  1.1812  0.0571  1.0579
  110MOL   H14015618   5.599   0.063   0.736  0.0197 -0.1105  0.7501
  110MOL   H14115619   5.833   0.081   0.752 -2.9087  0.5913 -0.4528
  110MOL   H14215620   5.679   7.467   0.637  0.2729 -0.5335  0.2679
  111MOL     C115621   1.875   4.705   7.503  0.4497  0.5966 -0.5249
  111MOL     C215622   1.913   4.700   7.360 -0.4527  0.5961 -1.0394
  111MOL     O315623   1.941   4.561   7.329  0.4977 -0.7421 -0.4857
  111MOL     H415624   1.849   4.800   0.032  0.5395  0.2918  0.1370
  111MOL     H515625   1.950   4.668   0.054 -2.5149 -0.3511  2.2599
  111MOL     H615626   2.006   4.757   7.357 -1.2109  1.8998 -0.0299
  111MOL     H715627   1.941   4.521   7.414 -2.5586  0.2914  0.0858
  111MOL     H815628   1.785   4.647   0.001  0.1587  0.9132 -0.9638
  111MOL     C915629   1.813   4.746   7.256  0.8754 -0.5346  0.0706
  111MOL    C1015630   1.768   4.892   7.273 -0.0263  0.0758 -0.8599
  111MOL    O1115631   1.867   4.988   7.252 -0.5344  0.4170 -0.9569
  111MOL    H1215632   1.853   4.724   7.157  2.6272 -2.3076  1.1277
  111MOL    H1315633   1.735   4.673   7.277  2.5106 -2.9647 -2.0231
  111MOL    H1415634   1.738   4.911   7.376 -0.9254  1.6911 -1.4021
  111MOL    H1515635   1.938   4.986   7.314  0.2584 -1.1182 -1.8815
  111MOL    C1615636   1.655   4.923   7.181 -0.0136  0.3271 -0.3261
  111MOL    C1715637   1.527   4.828   7.178 -0.9599 -0.4392  0.1193
  111MOL    O1815638   1.442   4.873   7.281  0.0432 -0.4628  0.2639
  111MOL    H1915639   1.616   5.022   7.208  0.7573  0.5309  0.0415
  111MOL    H2015640   1.689   4.929   7.077  0.4433 -0.5834 -0.2278
  111MOL    H2115641   1.547   4.722   7.194  1.7738  0.2127  1.2344
  111MOL    H2215642   1.449   4.967   7.285 -0.9926 -0.1820 -2.7760
  111MOL    C2315643   1.450   4.813   7.046 -0.3268  0.1839 -0.7864
  111MOL    C2415644   1.543   4.746   6.934 -0.1061 -0.3198 -0.1905
  111MOL    O2515645   1.494   4.612   6.911 -0.2793 -0.3301  0.5524
  111MOL    H2615646   1.349   4.772   7.050  0.9446 -2.9600  1.0089
  111MOL    H2715647   1.424   4.915   7.017 -1.9932 -0.4085 -1.4232
  111MOL    H2815648   1.646   4.744   6.969 -1.3510  1.0128  3.7236
  111MOL    H2915649   1.550   4.549   6.953  0.6350  0.8886  1.2128
  111MOL    C3015650   1.530   4.826   6.803  1.0999  0.3819  0.5398
  111MOL    C3115651   1.620   4.806   6.681  0.4504 -0.0977  0.4704
  111MOL    O3215652   1.575   4.904   6.590  0.0617 -0.0205  0.0065
  111MOL    H3315653   1.428   4.820   6.766  1.1063 -1.2131  0.7239
  111MOL    H3415654   1.540   4.930   6.833 -0.0390  0.3379  1.1097
  111MOL    H3515655   1.607   4.710   6.631  0.5210  0.7859 -1.2910
  111MOL    H3615656   1.490   4.881   6.557 -0.1518 -2.6119  2.1677
  111MOL    C3715657   1.766   4.846   6.710 -1.1150  0.3419  0.1046
  111MOL    C3815658   1.863   4.732   6.742  0.8017  0.9216  0.3591
  111MOL    O3915659   1.866   4.637   6.637  0.0372 -0.3656 -0.6807
  111MOL    H4015660   1.808   4.894   6.622  1.5810 -0.3632  0.9601
  111MOL    H4115661   1.768   4.917   6.792 -2.2924  1.4569 -0.8214
  111MOL    H4215662   1.831   4.669   6.825  3.6592  0.1490  0.9345
  111MOL    H4315663   1.907   4.558   6.670  1.4489  0.5325 -0.2157
  111MOL    C4415664   1.997   4.795   6.780 -0.6881  0.1237  0.4174
  111MOL    C4515665   2.100   4.692   6.823 -0.8192  0.2098  0.0465
  111MOL    O4615666   2.226   4.743   6.785 -0.1762  0.0019 -0.4830
  111MOL    H4715667   2.032   4.851   6.694 -0.1681 -3.1622 -1.6242
  111MOL    H4815668   1.980   4.876   6.850 -1.2000 -1.4161  2.1298
  111MOL    H4915669   2.087   4.602   6.762 -1.1127 -1.0304  1.8991
  111MOL    H5015670   2.236   4.827   6.827  0.4772  0.1493 -0.9234
  111MOL    C5115671   2.088   4.654   6.976  0.3507 -0.1059 -0.6876
  111MOL    C5215672   2.188   4.552   7.038 -0.3894  0.5452  0.9794
  111MOL    O5315673   2.181   4.553   7.176  0.0293  0.4655  0.4544
  111MOL    H5415674   2.085   4.742   7.041  1.2482 -0.3543 -0.3015
  111MOL    H5515675   1.989   4.613   6.997  0.5605  0.1669  0.9610
  111MOL    H5615676   2.284   4.582   6.995 -0.5825 -0.4993 -0.2072
  111MOL    H5715677   2.097   4.524   7.209 -0.3239 -1.7812 -2.2935
  111MOL    C5815678   2.166   4.407   6.997  0.3982  1.0389  0.2219
  111MOL    C5915679   2.291   4.322   7.012 -0.4150 -0.0855 -0.1876
  111MOL    O6015680   2.343   4.328   7.147  0.3447  0.2384  0.2412
  111MOL    H6115681   2.086   4.364   7.058  0.6997 -2.5615 -1.7892
  111MOL    H6215682   2.136   4.400   6.892  1.0320 -0.1043  0.1082
  111MOL    H6315683   2.365   4.354   6.939 -1.9401 -0.4644 -1.9328
  111MOL    H6415684   2.339   4.418   7.175 -0.1292  1.1172 -2.5272
  111MOL    C6515685   2.268   4.168   6.979 -0.6940 -0.2778 -0.1917
  111MOL    C6615686   2.261   4.129   6.824 -0.9186  0.2044  0.3099
  111MOL    O6715687   2.389   4.094   6.769  0.5122  0.1547 -0.0696
  111MOL    H6815688   2.355   4.119   7.024 -2.0393 -0.6063  2.1438
  111MOL    H6915689   2.186   4.132   7.041  0.2211  0.4315  1.4542
  111MOL    H7015690   2.236   4.214   6.760 -0.2078 -0.3433 -0.7171
  111MOL    H7115691   2.443   4.171   6.776  1.5213 -0.4379 -1.2831
  111MOL    C7215692   2.152   4.022   6.798 -0.5936 -0.6310 -0.2418
  111MOL    C7315693   2.116   3.983   6.656 -0.4624  0.1815  0.8498
  111MOL    O7415694   2.242   3.949   6.599 -0.0953 -0.1118 -0.2013
  111MOL    H7515695   2.175   3.934   6.859 -0.3876 -0.6732 -0.3819
  111MOL    H7615696   2.063   4.053   6.853 -0.9866 -2.7827  0.4070
  111MOL    H7715697   2.074   4.072   6.610 -0.7526 -0.8111 -0.8191
  111MOL    H7815698   2.308   3.995   6.648  0.4950  1.4544 -2.4002
  111MOL    C7915699   2.020   3.864   6.630 -0.6155  0.3724 -0.1633
  111MOL    C8015700   1.871   3.890   6.671  0.0457 -0.2456  0.1362
  111MOL    O8115701   1.812   3.989   6.590  0.0201 -0.3766 -0.1549
  111MOL    H8215702   2.018   3.840   6.524  4.3491 -2.8102  0.2598
  111MOL    H8315703   2.062   3.767   6.658  0.2044  0.2212 -1.8679
  111MOL    H8415704   1.855   3.921   6.775  1.3564 -1.0209  0.5855
  111MOL    H8515705   1.724   3.995   6.624  0.1340  1.3491 -0.1045
  111MOL    C8615706   1.774   3.774   6.646  0.1514 -0.2221  0.0409
  111MOL    C8715707   1.747   3.687   6.766 -0.2282 -0.3517  0.7054
  111MOL    O8815708   1.693   3.765   6.873  0.4289  0.1326 -0.4576
  111MOL    H8915709   1.677   3.810   6.612 -0.0772 -0.7385  0.1370
  111MOL    H9015710   1.812   3.719   6.560  0.8063  1.9056 -1.0582
  111MOL    H9115711   1.846   3.650   6.793  0.1367 -0.2553 -0.4799
  111MOL    H9215712   1.615   3.804   6.837 -0.4653 -0.4254  0.8258
  111MOL    C9315713   1.657   3.568   6.733 -0.0186 -0.5344  0.3467
  111MOL    C9415714   1.711   3.447   6.645  0.2896 -0.0404  0.1486
  111MOL    O9515715   1.809   3.373   6.714  0.9945 -0.3187 -0.1565
  111MOL    H9615716   1.622   3.524   6.827 -3.1387 -1.1498 -1.0571
  111MOL    H9715717   1.570   3.602   6.678  1.3726  1.2510 -0.8204
  111MOL    H9815718   1.751   3.487   6.552 -2.2984 -1.3900 -1.6271
  111MOL    H9915719   1.838   3.430   6.784 -2.2969  0.7906  0.4130
  111MOL   C10015720   1.600   3.341   6.601  0.6472 -0.1382  0.1151
  111MOL   C10115721   1.642   3.231   6.506 -0.4546 -0.7358 -0.1081
  111MOL   O10215722   1.744   3.148   6.563 -0.4098  0.0362  0.2853
  111MOL   H10315723   1.542   3.298   6.683 -0.4878 -1.3188 -1.2850
  111MOL   H10415724   1.530   3.399   6.541  0.3463 -0.5371  0.0837
  111MOL   H10515725   1.696   3.281   6.426 -0.4253 -0.9940 -0.2490
  111MOL   H10615726   1.796   3.214   6.608 -2.4505  1.6407  0.3827
  111MOL   C10715727   1.527   3.154   6.445 -0.0865  0.3874 -1.0180
  111MOL   C10815728   1.545   3.122   6.295  0.0397  0.1613 -0.6616
  111MOL   O10915729   1.666   3.060   6.250 -0.2035  0.6137 -0.2405
  111MOL   H11015730   1.522   3.060   6.499  0.2762  1.0883  0.2391
  111MOL   H11115731   1.431   3.198   6.472 -1.4757 -2.1209 -1.7191
  111MOL   H11215732   1.543   3.210   6.230 -1.7197  0.7963  0.2057
  111MOL   H11315733   1.729   3.128   6.231  0.9434 -0.1605  0.7512
  111MOL   C11415734   1.438   3.026   6.248  0.2819 -0.2925  0.6496
  111MOL   C11515735   1.287   3.052   6.278 -0.2050  0.5932 -0.2671
  111MOL   O11615736   1.242   3.174   6.222 -0.1329  0.8988  0.0056
  111MOL   H11715737   1.448   3.009   6.141 -0.2325 -1.3383  0.7639
  111MOL   H11815738   1.464   2.931   6.293 -1.9398 -1.4335 -0.4141
  111MOL   H11915739   1.271   3.062   6.386 -2.5379 -0.8241 -0.4553
  111MOL   H12015740   1.147   3.171   6.223 -0.0979 -0.0838  0.3451
  111MOL   C12115741   1.196   2.939   6.234  0.0712  0.3414 -0.0544
  111MOL   C12215742   1.053   2.940   6.300 -0.1507 -0.8279  0.0821
  111MOL   O12315743   0.990   3.058   6.245 -0.0013 -0.3556  0.3538
  111MOL   H12415744   1.187   2.935   6.125 -0.6475  1.2173 -0.0359
  111MOL   H12515745   1.254   2.851   6.262 -1.3596 -1.0048 -1.1987
  111MOL   H12615746   1.053   2.951   6.408  0.5845 -1.0326  0.1065
  111MOL   H12715747   0.934   3.093   6.312  2.1304  3.6274  0.2251
  111MOL   C12815748   0.967   2.817   6.260 -0.6753 -0.5042  1.4341
  111MOL   C12915749   0.819   2.824   6.299  0.1105  0.2352 -0.1041
  111MOL   O13015750   0.763   2.714   6.231  0.4577 -0.6513 -0.0416
  111MOL   H13115751   0.961   2.808   6.152  2.0145 -0.0222  1.2163
  111MOL   H13215752   1.012   2.722   6.287  0.7359  0.3263  2.0302
  111MOL   H13315753   0.772   2.916   6.264 -0.8058 -0.5361 -0.9486
  111MOL   H13415754   0.751   2.747   6.144  2.0744  1.8873  0.6295
  111MOL   C13515755   0.792   2.795   6.447  0.4169  0.0005 -0.1075
  111MOL   C13615756   0.645   2.818   6.481  0.3754  0.6111 -0.0073
  111MOL   O13715757   0.623   2.804   6.619 -0.1025 -0.7145 -0.0739
  111MOL   H13815758   0.826   2.692   6.456  0.4051 -0.0544 -0.6819
  111MOL   H13915759   0.859   2.861   6.502  0.7928 -0.0087 -0.5463
  111MOL   H14015760   0.573   2.753   6.430  0.9925 -0.2013  0.1397
  111MOL   H14115761   0.700   2.774   6.665  0.8288  2.4367  0.5295
  111MOL   H14215762   0.614   2.914   6.441 -1.7895 -1.2457 -3.0184
  112MOL     C115763   1.859   1.152   2.658  0.2931  0.1456  0.0882
  112MOL     C215764   1.733   1.095   2.599  0.2944 -0.0007  0.3447
  112MOL     O315765   1.716   1.131   2.469  0.6164 -0.5186  0.3937
  112MOL     H415766   1.866   1.256   2.626  0.7068  0.2483  0.4974
  112MOL     H515767   1.947   1.105   2.614  0.7644  0.8413  0.2682
  112MOL     H615768   1.648   1.143   2.648 -0.8841 -0.3884 -1.2670
  112MOL     H715769   1.696   1.223   2.478  0.1821 -0.3920 -1.6056
  112MOL     H815770   1.864   1.138   2.766 -1.5180 -0.3668  0.1245
  112MOL     C915771   1.720   0.939   2.613  1.1504 -0.0346  0.2787
  112MOL    C1015772   1.748   0.886   2.761  0.0638  0.1861  0.1065
  112MOL    O1115773   1.671   0.967   2.856 -0.3061 -1.4448 -0.1284
  112MOL    H1215774   1.617   0.913   2.586  1.1798  2.3001 -2.3027
  112MOL    H1315775   1.779   0.882   2.542  0.9405  1.8556 -1.4651
  112MOL    H1415776   1.854   0.889   2.788 -0.0039  0.7819  0.3112
  112MOL    H1515777   1.726   0.965   2.932  0.5912  0.1015 -0.7094
  112MOL    C1615778   1.708   0.747   2.784  0.0166  0.4177 -0.1501
  112MOL    C1715779   1.812   0.647   2.725 -0.0229  0.0668 -1.1494
  112MOL    O1815780   1.926   0.635   2.807 -0.6093 -0.3709  0.0505
  112MOL    H1915781   1.697   0.711   2.887  0.0474 -3.2723 -1.3822
  112MOL    H2015782   1.619   0.727   2.725  1.2373 -1.4920 -1.4079
  112MOL    H2115783   1.839   0.681   2.625 -0.6068 -0.0212 -1.3382
  112MOL    H2215784   1.968   0.718   2.821  1.5836 -1.0451 -2.2159
  112MOL    C2315785   1.757   0.504   2.710  0.3168  0.9266  0.5757
  112MOL    C2415786   1.646   0.483   2.602  0.2324 -0.2795  0.3515
  112MOL    O2515787   1.694   0.541   2.484 -0.6170 -0.0649 -0.2862
  112MOL    H2615788   1.839   0.438   2.683  1.1127  2.5361 -0.9909
  112MOL    H2715789   1.726   0.472   2.810 -0.4957 -0.6109 -0.1508
  112MOL    H2815790   1.558   0.531   2.643 -0.2219  0.7501 -1.7468
  112MOL    H2915791   1.783   0.520   2.460 -0.7730 -1.8158  0.5729
  112MOL    C3015792   1.618   0.339   2.557  0.1423 -0.2435 -0.3627
  112MOL    C3115793   1.489   0.312   2.468 -0.1705 -0.0842 -0.1227
  112MOL    O3215794   1.524   0.372   2.343 -0.5326 -0.8437  0.7837
  112MOL    H3315795   1.705   0.304   2.502 -0.6437 -3.3612  0.2739
  112MOL    H3415796   1.612   0.271   2.643 -3.6204 -0.1334 -0.4598
  112MOL    H3515797   1.409   0.357   2.526  0.1988 -0.5182  0.7262
  112MOL    H3615798   1.570   0.449   2.371  0.9890 -2.2199  2.2288
  112MOL    C3715799   1.462   0.168   2.440 -0.1915  0.1168 -0.3829
  112MOL    C3815800   1.317   0.114   2.414  0.0427 -0.0789  0.0654
  112MOL    O3915801   1.226   0.141   2.517  0.0903  0.3311  0.0800
  112MOL    H4015802   1.527   0.129   2.362 -0.1002  1.5018 -1.0178
  112MOL    H4115803   1.497   0.099   2.516 -2.8922 -0.2555  0.5760
  112MOL    H4215804   1.325   0.005   2.414  3.2202  0.0906  1.2106
  112MOL    H4315805   1.198   0.230   2.509 -1.3801 -0.0423  0.9388
  112MOL    C4415806   1.256   0.164   2.280 -0.3036 -0.7390 -0.3623
  112MOL    C4515807   1.329   0.125   2.152  0.7909  0.3117 -0.6157
  112MOL    O4615808   1.350   7.504   2.154  0.6333  0.2438  0.3548
  112MOL    H4715809   1.152   0.133   2.271  0.1575 -2.6163  0.5756
  112MOL    H4815810   1.248   0.273   2.288 -1.0975 -0.9747  2.1782
  112MOL    H4915811   1.427   0.173   2.160  0.7424  0.3413 -0.1890
  112MOL    H5015812   1.436   7.485   2.190  0.9066 -2.4682 -1.6544
  112MOL    C5115813   1.248   0.150   2.020 -1.1849  0.3029  0.3615
  112MOL    C5215814   1.205   0.291   1.994 -0.1378 -0.1463 -0.1975
  112MOL    O5315815   1.300   0.345   1.899 -0.0183 -0.2773 -0.3536
  112MOL    H5415816   1.296   0.104   1.934 -1.7733  1.2157 -0.4592
  112MOL    H5515817   1.157   0.090   2.032 -0.1720 -1.2738  0.3115
  112MOL    H5615818   1.201   0.340   2.091  0.4185 -0.2907 -0.1008
  112MOL    H5715819   1.383   0.366   1.939  0.0577 -0.7773 -0.2528
  112MOL    C5815820   1.075   0.296   1.916 -0.4792  0.5195 -0.4578
  112MOL    C5915821   0.953   0.289   2.002  0.6141  0.3085 -0.0740
  112MOL    O6015822   0.944   0.399   2.080  0.3548 -0.4653 -0.0074
  112MOL    H6115823   1.067   0.381   1.848 -0.8965  0.0091 -1.0539
  112MOL    H6215824   1.074   0.214   1.844  2.2562 -1.8069  1.9931
  112MOL    H6315825   0.962   0.203   2.068 -0.1798  0.0305 -0.3162
  112MOL    H6415826   0.930   0.472   2.022 -2.5159 -1.3678 -0.5384
  112MOL    C6515827   0.826   0.268   1.918 -0.0207  0.3191  0.6296
  112MOL    C6615828   0.697   0.241   2.005 -0.3166 -0.3705 -0.2901
  112MOL    O6715829   0.584   0.253   1.914 -0.5024 -0.2174 -0.7731
  112MOL    H6815830   0.818   0.367   1.875 -1.2074 -0.3925 -0.8098
  112MOL    H6915831   0.838   0.193   1.840  0.1060 -0.2785  1.2142
  112MOL    H7015832   0.688   0.308   2.090 -0.4189 -0.4563 -0.2338
  112MOL    H7115833   0.545   0.337   1.931 -0.0551 -0.0384 -0.6511
  112MOL    C7215834   0.701   0.102   2.068  0.3468 -0.4728  0.6386
  112MOL    C7315835   0.566   0.048   2.119 -0.0038 -0.2015  0.5321
  112MOL    O7415836   0.491   7.513   2.006  0.3998 -0.2801  0.2661
  112MOL    H7515837   0.758   0.028   2.012  0.3683  0.8393 -1.0946
  112MOL    H7615838   0.768   0.119   2.152  0.8542  1.0960 -0.0778
  112MOL    H7715839   0.509   0.118   2.181  1.0108  0.1846  1.0438
  112MOL    H7815840   0.502   0.056   1.935 -3.3414 -0.7587 -0.8363
  112MOL    C7915841   0.588   7.453   2.214  0.1851  0.4831  0.3033
  112MOL    C8015842   0.677   7.336   2.174 -0.5675 -0.7562 -0.2570
  112MOL    O8115843   0.689   7.251   2.289  0.1758 -0.3020  0.3884
  112MOL    H8215844   0.635   7.505   2.297 -0.2336 -1.6876  1.9529
  112MOL    H8315845   0.493   7.411   2.249  0.2948 -1.0845 -1.2326
  112MOL    H8415846   0.780   7.370   2.163 -1.0458  0.7840 -0.1678
  112MOL    H8515847   0.745   7.306   2.340  0.1309  0.3513 -0.2644
  112MOL    C8615848   0.656   7.259   2.048  0.2968  0.1144 -0.5334
  112MOL    C8715849   0.743   7.127   2.038 -0.1795 -0.0804 -0.5374
  112MOL    O8815850   0.704   7.028   2.133 -0.3011 -0.6463 -0.2740
  112MOL    H8915851   0.549   7.242   2.034 -0.1685  1.1540  1.6055
  112MOL    H9015852   0.678   7.319   1.960 -1.2136 -0.7576 -1.5196
  112MOL    H9115853   0.844   7.146   2.073 -0.3830 -2.1864  1.3005
  112MOL    H9215854   0.668   7.077   2.205 -1.5312 -2.5169  0.4388
  112MOL    C9315855   0.761   7.075   1.887  0.4333  0.2027  0.1446
  112MOL    C9415856   0.830   6.940   1.877  0.1545 -0.2326 -0.6248
  112MOL    O9515857   0.759   6.826   1.934  0.3363 -0.3488 -0.6934
  112MOL    H9615858   0.664   7.069   1.837  0.2947 -1.0434  0.5311
  112MOL    H9715859   0.822   7.143   1.828  0.0405 -0.4896 -1.0890
  112MOL    H9815860   0.925   6.956   1.929 -0.1760  0.1989 -0.1489
  112MOL    H9915861   0.742   6.843   2.025 -1.3818  0.1017 -1.0817
  112MOL   C10015862   0.873   6.902   1.734  0.1794  0.4058  0.7081
  112MOL   C10115863   1.001   6.827   1.708  0.1055  0.3984  0.2830
  112MOL   O10215864   0.986   6.700   1.760  0.0517  0.1883  0.1553
  112MOL   H10315865   0.783   6.863   1.686  0.4220  1.2903 -0.4716
  112MOL   H10415866   0.876   6.995   1.677  0.3407 -0.6501 -1.0351
  112MOL   H10515867   1.069   6.866   1.784 -0.5473 -2.7921  2.6208
  112MOL   H10615868   1.040   6.695   1.838  1.0972 -2.7768 -0.6902
  112MOL   C10715869   1.063   6.845   1.572 -0.0579  0.0452  0.3990
  112MOL   C10815870   1.131   6.980   1.547  0.0882  0.1891 -0.3678
  112MOL   O10915871   1.261   6.962   1.599  0.3058  0.3741  0.0125
  112MOL   H11015872   1.132   6.764   1.549  0.2172 -0.1124  1.7032
  112MOL   H11115873   0.985   6.826   1.499 -0.0451  3.4212 -0.5346
  112MOL   H11215874   1.074   7.058   1.597  0.0079 -1.0806  1.5651
  112MOL   H11315875   1.250   6.954   1.692 -1.4813  1.8457 -0.0541
  112MOL   C11415876   1.140   7.007   1.397  0.4753  0.9924 -0.0418
  112MOL   C11515877   1.143   7.155   1.354  0.0093 -0.4110 -0.9186
  112MOL   O11615878   1.052   7.244   1.403  0.1178  0.5468 -0.1518
  112MOL   H11715879   1.220   6.947   1.354  1.0617  1.4552  0.3882
  112MOL   H11815880   1.051   6.969   1.348  0.0721  1.0947  0.5995
  112MOL   H11915881   1.131   7.164   1.246  0.8517 -0.3664 -1.0180
  112MOL   H12015882   0.966   7.204   1.404 -1.0708  3.0330  0.6576
  112MOL   C12115883   1.279   7.219   1.376 -0.3587  0.2450  0.0665
  112MOL   C12215884   1.389   7.183   1.277 -0.5120  0.2278  0.0813
  112MOL   O12315885   1.356   7.227   1.145 -0.3187 -0.2953  0.5945
  112MOL   H12415886   1.274   7.325   1.351  3.3045  0.5218  0.2901
  112MOL   H12515887   1.288   7.188   1.480  3.0806  0.8146 -0.0092
  112MOL   H12615888   1.398   7.074   1.278 -3.1607 -0.0085  0.5953
  112MOL   H12715889   1.314   7.157   1.098 -0.9422  1.0673 -0.9299
  112MOL   C12815890   1.523   7.230   1.332  0.2761 -0.5365 -0.1155
  112MOL   C12915891   1.646   7.176   1.257 -0.2933  0.5249 -0.2410
  112MOL   O13015892   1.698   7.266   1.174  0.3857 -0.1077  0.0058
  112MOL   H13115893   1.542   7.337   1.331 -1.1012 -0.2831 -1.1014
  112MOL   H13215894   1.533   7.190   1.433 -2.9408  0.0969  0.5121
  112MOL   H13315895   1.618   7.085   1.204  3.0364 -1.4816  1.2801
  112MOL   H13415896   1.718   7.342   1.227 -1.2149 -0.8147  1.6633
  112MOL   C13515897   1.767   7.147   1.348 -0.0295 -0.7868 -0.0564
  112MOL   C13615898   1.883   7.094   1.277 -0.1285  0.7814 -0.1668
  112MOL   O13715899   1.982   7.066   1.369 -0.1552 -0.1701 -0.1606
  112MOL   H13815900   1.801   7.235   1.402 -0.4556 -0.1205 -0.8580
  112MOL   H13915901   1.727   7.079   1.423 -1.6408  1.2648  0.9809
  112MOL   H14015902   1.923   7.158   1.199 -1.3812  3.3393  1.2230
  112MOL   H14115903   2.023   6.988   1.335 -0.2008  0.1448 -0.9615
  112MOL   H14215904   1.850   7.003   1.227 -0.9685 -0.7082  2.9367
  113MOL     C115905   5.875   7.041   4.362 -0.0014 -0.2799 -0.6186
  113MOL     C215906   5.935   7.168   4.305  0.5367  0.5125  0.1909
  113MOL     O315907   5.946   7.253   4.424 -0.2821 -0.2469  0.5751
  113MOL     H415908   5.945   6.993   4.430 -0.0377 -1.1866 -1.2189
  113MOL     H515909   5.857   6.974   4.279  0.1623 -1.0979  0.0030
  113MOL     H615910   5.859   7.211   4.240 -0.8791 -1.2133  0.6656
  113MOL     H715911   5.859   7.256   4.462  0.2771 -1.4759  1.9922
  113MOL     H815912   5.777   7.055   4.408 -0.5931 -2.4638 -1.1837
  113MOL     C915913   6.078   7.148   4.255  0.1739  0.5315  0.5681
  113MOL    C1015914   6.104   7.029   4.152  0.8179  0.8216  0.0524
  113MOL    O1115915   6.033   7.054   4.036  0.1618  0.2124  0.3925
  113MOL    H1215916   6.105   7.245   4.212 -0.5706  0.7078  0.4878
  113MOL    H1315917   6.135   7.131   4.346 -0.1244  0.9559  0.8318
  113MOL    H1415918   6.078   6.932   4.195 -0.6923  0.3263 -1.9651
  113MOL    H1515919   6.034   7.148   4.027  2.0169  0.1508 -0.2944
  113MOL    C1615920   6.249   7.005   4.103 -0.8347 -0.0791 -0.4239
  113MOL    C1715921   6.282   6.882   4.011 -0.7711 -0.2787 -0.8732
  113MOL    O1815922   6.223   6.899   3.887 -0.3812  0.1266 -0.0241
  113MOL    H1915923   6.280   7.098   4.055 -0.4399 -0.0413 -0.0953
  113MOL    H2015924   6.314   6.992   4.190 -0.8818 -3.8248 -0.8957
  113MOL    H2115925   6.233   6.796   4.057  0.3962 -0.9510 -0.8690
  113MOL    H2215926   6.142   6.945   3.902 -1.5543 -1.8528 -0.1038
  113MOL    C2315927   6.429   6.851   3.988  0.0990  0.5906 -0.2021
  113MOL    C2415928   6.511   6.782   4.105 -0.0673  0.7476 -0.2332
  113MOL    O2515929   6.431   6.705   4.198  0.1231  0.1266 -0.5604
  113MOL    H2615930   6.438   6.791   3.898 -0.5538  0.2336 -0.0337
  113MOL    H2715931   6.464   6.952   3.967  0.3042  1.3865  3.6531
  113MOL    H2815932   6.528   6.862   4.176 -2.7814  0.2858  1.0135
  113MOL    H2915933   6.496   6.672   4.257  0.0678 -1.2256 -1.2469
  113MOL    C3015934   6.646   6.715   4.060  0.9248 -0.5848 -0.4847
  113MOL    C3115935   6.748   6.794   3.968  0.0315  0.0452 -0.4304
  113MOL    O3215936   6.804   6.899   4.042 -0.1254  0.2182 -0.2965
  113MOL    H3315937   6.694   6.663   4.143  4.5384  1.5830 -1.1107
  113MOL    H3415938   6.607   6.635   3.996  0.6128 -0.4698 -0.4337
  113MOL    H3515939   6.703   6.837   3.878  0.0863  0.7014 -0.1464
  113MOL    H3615940   6.853   6.875   4.119  1.5587  1.6270 -0.8886
  113MOL    C3715941   6.859   6.698   3.924 -0.1409 -0.4293 -0.1098
  113MOL    C3815942   6.974   6.738   3.835 -0.9413  0.2139 -0.5739
  113MOL    O3915943   7.043   6.626   3.789  0.0965 -0.4435  0.2143
  113MOL    H4015944   6.895   6.649   4.014 -0.7397  1.2536  1.0696
  113MOL    H4115945   6.810   6.619   3.867  1.7655 -0.5513 -1.6103
  113MOL    H4215946   7.041   6.805   3.889 -1.1834  0.4660 -0.5805
  113MOL    H4315947   7.029   6.557   3.853  0.7348 -1.7300 -0.9928
  113MOL    C4415948   6.924   6.804   3.707 -0.7563 -0.1688 -0.9483
  113MOL    C4515949   6.922   6.958   3.723 -0.3194  0.8994 -0.3338
  113MOL    O4615950   7.054   7.008   3.718  0.0387 -0.0253  0.1390
  113MOL    H4715951   6.989   6.775   3.624  0.9209 -1.7428  0.8499
  113MOL    H4815952   6.825   6.770   3.677 -0.5710 -1.9604  0.3715
  113MOL    H4915953   6.895   6.982   3.826  1.2073  1.7537 -0.1263
  113MOL    H5015954   7.072   7.048   3.802 -0.6390 -1.1921  0.8397
  113MOL    C5115955   6.845   7.025   3.606 -0.1256  0.2956 -0.1673
  113MOL    C5215956   6.847   7.176   3.586 -0.1025  0.4353 -0.5908
  113MOL    O5315957   6.778   7.219   3.474  0.7064 -0.2165  0.2188
  113MOL    H5415958   6.890   6.979   3.518  1.2621  1.1991  0.0380
  113MOL    H5515959   6.738   7.008   3.610 -0.5401  2.4053 -1.5568
  113MOL    H5615960   6.953   7.203   3.590 -0.2316  0.6712  2.1607
  113MOL    H5715961   6.828   7.196   3.397 -1.5320 -1.3037 -0.9469
  113MOL    C5815962   6.772   7.248   3.704 -0.0056 -1.0403 -0.3919
  113MOL    C5915963   6.775   7.406   3.704 -0.7120 -0.1417 -0.1061
  113MOL    O6015964   6.720   7.450   3.583  0.1568 -0.2675  0.3587
  113MOL    H6115965   6.667   7.219   3.709 -0.0639 -0.9085 -0.8201
  113MOL    H6215966   6.822   7.225   3.798  1.9092 -2.2528 -1.6560
  113MOL    H6315967   6.879   7.436   3.700 -0.5158 -0.4695  2.0023
  113MOL    H6415968   6.722   7.376   3.524 -1.3891 -0.5329  0.6344
  113MOL    C6515969   6.701   7.463   3.823  0.6532 -0.2385 -0.1020
  113MOL    C6615970   6.776   7.474   3.950 -0.0346 -0.1029 -0.0689
  113MOL    O6715971   6.812   0.087   3.979 -0.0050 -0.0336 -0.3717
  113MOL    H6815972   6.666   0.043   3.794  1.1328 -0.0831 -0.1566
  113MOL    H6915973   6.611   7.404   3.836  0.8642 -0.7381 -0.8635
  113MOL    H7015974   6.870   7.419   3.935 -0.7683 -1.9198  1.8271
  113MOL    H7115975   6.879   0.115   3.919  0.0396  2.7985  0.8969
  113MOL    C7215976   6.692   7.417   4.067 -0.5128  0.2423  0.1459
  113MOL    C7315977   6.665   7.268   4.058  0.0471  0.3058  0.8772
  113MOL    O7415978   6.789   7.201   4.074  0.7076  0.1028 -0.1419
  113MOL    H7515979   6.744   7.446   4.158  0.4494  2.4869 -1.0689
  113MOL    H7615980   6.600   7.476   4.063 -0.9446 -0.3643  1.0000
  113MOL    H7715981   6.634   7.236   3.958  0.1955  1.1669  0.5538
  113MOL    H7815982   6.772   7.108   4.077  1.0736  0.0863  1.3513
  113MOL    C7915983   6.554   7.218   4.150  0.3260 -0.5079  0.2518
  113MOL    C8015984   6.573   7.262   4.290 -0.9019 -0.4888 -0.6824
  113MOL    O8115985   6.443   7.242   4.332 -0.4072 -0.5552  0.0177
  113MOL    H8215986   6.462   7.258   4.108  0.3233 -1.3124 -0.5357
  113MOL    H8315987   6.539   7.110   4.146  1.6536 -0.7279  0.9976
  113MOL    H8415988   6.590   7.368   4.308 -2.7949 -0.5067  1.3488
  113MOL    H8515989   6.427   7.284   4.415  0.7309  1.5725 -0.8166
  113MOL    C8615990   6.675   7.173   4.367  0.4004  0.1306  0.3470
  113MOL    C8715991   6.786   7.257   4.428  0.3098 -0.0886 -0.3511
  113MOL    O8815992   6.737   7.362   4.514 -0.1667 -0.1745 -0.3128
  113MOL    H8915993   6.615   7.121   4.442 -1.3304  2.4360  0.6089
  113MOL    H9015994   6.717   7.104   4.295 -1.1336 -0.4667 -0.0021
  113MOL    H9115995   6.848   7.309   4.354  0.0591  2.6033  1.2672
  113MOL    H9215996   6.812   7.416   4.534  0.9865 -1.7025 -0.4075
  113MOL    C9315997   6.878   7.178   4.522 -0.6474  0.0944 -0.0868
  113MOL    C9415998   7.005   7.108   4.467  0.5050 -0.8766  0.0873
  113MOL    O9515999   7.044   7.025   4.578 -0.0988 -0.2900  0.0182
  113MOL    H9616000   6.919   7.248   4.596 -0.9205 -0.1210  0.2692
  113MOL    H9716001   6.817   7.110   4.582 -1.5886  0.5991 -0.4605
  113MOL    H9816002   7.084   7.174   4.432  0.7450 -1.1336  0.1386
  113MOL    H9916003   7.088   7.085   4.636  1.0740 -0.9405 -0.1771
  113MOL   C10016004   6.972   7.015   4.343  0.4827 -0.4307 -0.0526
  113MOL   C10116005   7.070   6.906   4.302  0.1248  0.2818 -0.3119
  113MOL   O10216006   6.986   6.812   4.233  0.1463  0.0763 -0.9606
  113MOL   H10316007   6.876   6.972   4.372  0.0324  0.5125 -0.0931
  113MOL   H10416008   6.964   7.089   4.264  1.3379  0.5735  0.7805
  113MOL   H10516009   7.117   6.859   4.389  1.3846  1.0123 -0.5859
  113MOL   H10616010   7.051   6.766   4.183  0.0191 -2.0382  0.7577
  113MOL   C10716011   7.177   6.946   4.199  0.4832  0.0751 -0.2497
  113MOL   C10816012   7.287   6.848   4.166 -0.0727 -0.0505  0.0334
  113MOL   O10916013   7.230   6.733   4.111  0.6906  0.0364 -0.6294
  113MOL   H11016014   7.125   6.979   4.109 -0.0244 -0.8873 -0.3215
  113MOL   H11116015   7.222   7.042   4.223  2.4756 -0.8462 -0.2153
  113MOL   H11216016   7.345   6.826   4.256  0.4506 -3.5115 -1.0580
  113MOL   H11316017   7.287   6.665   4.144  0.8858 -0.4284 -1.8773
  113MOL   C11416018   7.396   6.899   4.067  0.3191 -0.0680 -0.3110
  113MOL   C11516019   7.507   6.801   4.042 -0.6929  0.4527 -0.1245
  113MOL   O11616020   0.047   6.867   3.934 -0.0397  0.5540  0.8356
  113MOL   H11716021   7.352   6.939   3.976 -0.2894 -0.5209 -0.2187
  113MOL   H11816022   7.449   6.978   4.121 -1.3141  1.2845 -0.6685
  113MOL   H11916023   7.465   6.706   4.009  4.8489 -3.0626  2.2723
  113MOL   H12016024   7.511   6.848   3.859  1.5498 -0.7541 -0.0492
  113MOL   C12116025   0.084   6.757   4.164  0.3589 -0.3635 -0.2535
  113MOL   C12216026   0.125   6.857   4.269  0.4282  0.2871 -0.1101
  113MOL   O12316027   0.035   6.869   4.378 -0.6393  0.1585 -0.1160
  113MOL   H12416028   0.043   6.678   4.228  1.5991 -1.3397 -0.6523
  113MOL   H12516029   0.171   6.716   4.113 -0.1983 -2.2222  0.2473
  113MOL   H12616030   0.135   6.956   4.226  2.4608  0.9222  1.7709
  113MOL   H12716031   0.053   6.947   4.428  0.5717  0.0985 -0.4246
  113MOL   C12816032   0.267   6.827   4.324 -0.1111 -0.0986  0.1116
  113MOL   C12916033   0.383   6.843   4.223 -0.3143  0.1487  0.8920
  113MOL   O13016034   0.382   6.968   4.158 -0.0006 -0.2232 -0.0656
  113MOL   H13116035   0.288   6.895   4.406 -0.8632  1.2554 -0.7900
  113MOL   H13216036   0.276   6.724   4.357  1.2454 -0.1703 -0.4381
  113MOL   H13316037   0.371   6.769   4.144 -0.4546  1.9325 -0.7947
  113MOL   H13416038   0.368   6.950   4.066  2.5761  1.6665 -0.8683
  113MOL   C13516039   0.521   6.834   4.287  0.7910 -0.7472 -0.3728
  113MOL   C13616040   0.590   6.699   4.274 -0.6566  0.4283  0.0594
  113MOL   O13716041   0.691   6.686   4.373 -0.5310  0.2558  0.4323
  113MOL   H13816042   0.589   6.912   4.253  0.5256  0.2137  1.2233
  113MOL   H13916043   0.516   6.857   4.393 -1.3999  0.3092 -0.6862
  113MOL   H14016044   0.617   6.675   4.171  1.3117 -0.4951  0.7492
  113MOL   H14116045   0.771   6.662   4.329 -0.1212  2.9059 -0.3549
  113MOL   H14216046   0.523   6.619   4.305 -0.4522  0.4167  0.4781
  114MOL     C116047   3.864   0.418   4.022  0.4239 -0.2628 -0.3361
  114MOL     C216048   3.947   0.343   4.119 -0.0404  0.0351 -0.4245
  114MOL     O316049   3.884   0.356   4.240  0.6839  0.7002 -0.2640
  114MOL     H416050   3.836   0.516   4.060 -0.6862 -0.1705 -1.3672
  114MOL     H516051   3.769   0.371   3.997  0.4000  0.3128 -1.3473
  114MOL     H616052   4.045   0.387   4.137  0.6584 -1.6629  0.0378
  114MOL     H716053   3.790   0.352   4.237  0.6108  2.7848 -2.3699
  114MOL     H816054   3.928   0.447   3.939  1.3824 -1.4375 -0.0280
  114MOL     C916055   3.963   0.193   4.079 -0.0717 -1.1667  0.4111
  114MOL    C1016056   4.058   0.178   3.959 -0.1078  0.2548  0.0689
  114MOL    O1116057   4.184   0.250   3.977 -0.2191 -0.6241 -0.0335
  114MOL    H1216058   4.007   0.135   4.160 -0.9077  0.3150  1.9489
  114MOL    H1316059   3.865   0.148   4.063 -0.2904 -1.4539  2.4054
  114MOL    H1416060   4.012   0.207   3.865  1.4616 -0.9517 -1.1031
  114MOL    H1516061   4.232   0.210   4.047  0.5304  2.4698  1.2811
  114MOL    C1616062   4.097   0.030   3.932 -0.6825 -0.6118  0.1547
  114MOL    C1716063   3.982   7.444   3.923 -0.1082  0.6082 -0.0628
  114MOL    O1816064   3.896   7.478   3.814 -0.3507  0.0677 -0.1348
  114MOL    H1916065   4.143   0.021   3.833 -0.1746 -1.5874  0.4665
  114MOL    H2016066   4.175   0.003   4.004  0.1820  1.2078 -0.0791
  114MOL    H2116067   3.929   7.460   4.017  0.5088 -1.7642  0.7160
  114MOL    H2216068   3.846   0.037   3.833 -1.8483 -0.2443 -2.5406
  114MOL    C2316069   4.023   7.298   3.905 -0.1408 -0.7185  0.3684
  114MOL    C2416070   4.127   7.243   4.010 -0.1454  0.2420 -0.2429
  114MOL    O2516071   4.047   7.235   4.129  0.1517 -0.4393 -0.4766
  114MOL    H2616072   3.935   7.234   3.902 -1.1527  0.6669  0.2301
  114MOL    H2716073   4.065   7.292   3.804  0.8336 -1.9711  0.8328
  114MOL    H2816074   4.210   7.312   4.028 -0.6980  0.7214  0.5046
  114MOL    H2916075   4.109   7.222   4.199 -0.2937  0.2168  0.0475
  114MOL    C3016076   4.188   7.103   3.982  0.4594  0.8476  0.0135
  114MOL    C3116077   4.320   7.080   3.907 -0.6024 -0.1177  0.5350
  114MOL    O3216078   4.363   6.942   3.905  0.6719  0.3744  0.5095
  114MOL    H3316079   4.227   7.075   4.080  1.3247 -1.9274 -1.0864
  114MOL    H3416080   4.111   7.037   3.941  2.4864 -2.0466  0.7215
  114MOL    H3516081   4.404   7.138   3.945 -0.5014 -0.6385  1.0984
  114MOL    H3616082   4.284   6.891   3.915  0.7787  0.1080 -0.0078
  114MOL    C3716083   4.290   7.110   3.757  0.5554  0.2857  0.2475
  114MOL    C3816084   4.387   7.049   3.655 -0.4432 -0.3837 -0.6334
  114MOL    O3916085   4.345   7.078   3.518 -0.0353  0.1181 -0.3162
  114MOL    H4016086   4.188   7.087   3.728  0.4276  1.6941 -0.4618
  114MOL    H4116087   4.291   7.219   3.749  1.6212  0.3028  0.4980
  114MOL    H4216088   4.385   6.941   3.669 -3.2492 -0.2480  0.1850
  114MOL    H4316089   4.251   7.068   3.514  0.0187  0.4020 -3.2508
  114MOL    C4416090   4.536   7.094   3.674  0.1794  0.0965 -0.1693
  114MOL    C4516091   4.648   7.019   3.599 -0.1830 -0.7762  0.1532
  114MOL    O4616092   4.599   7.032   3.469  0.4437 -0.0358 -0.0327
  114MOL    H4716093   4.540   7.201   3.654 -3.7691  0.3874  0.0985
  114MOL    H4816094   4.569   7.100   3.777 -2.3146 -0.4935  0.6897
  114MOL    H4916095   4.640   6.914   3.628  1.8209 -0.9740  0.1100
  114MOL    H5016096   4.505   7.031   3.475  0.2981  2.2496 -1.3231
  114MOL    C5116097   4.790   7.072   3.623  0.1739 -0.0221  0.3102
  114MOL    C5216098   4.908   6.992   3.553 -0.3758  0.2422 -0.2360
  114MOL    O5316099   5.023   7.077   3.541 -0.6346 -0.4315 -0.1745
  114MOL    H5416100   4.790   7.176   3.590 -1.7417 -0.5758 -1.5835
  114MOL    H5516101   4.812   7.076   3.730  1.2576 -0.5182  0.1135
  114MOL    H5616102   4.872   6.960   3.456  2.0577 -0.1452 -1.0228
  114MOL    H5716103   5.043   7.100   3.631 -2.2209 -0.9295  0.3196
  114MOL    C5816104   4.957   6.870   3.638 -0.2688 -0.2796  0.3803
  114MOL    C5916105   4.884   6.739   3.639  0.1128  0.6332 -0.0924
  114MOL    O6016106   4.887   6.699   3.500 -0.0400 -0.5754 -0.2577
  114MOL    H6116107   5.063   6.850   3.624 -0.6131 -0.6487 -1.9873
  114MOL    H6216108   4.952   6.906   3.740 -0.5764  1.9855 -0.4001
  114MOL    H6316109   4.781   6.747   3.674  0.6429  1.5570  1.2639
  114MOL    H6416110   4.972   6.712   3.462 -0.7476 -0.3229 -1.8296
  114MOL    C6516111   4.951   6.630   3.727 -0.7162  0.6911 -0.4341
  114MOL    C6616112   4.866   6.502   3.726 -0.1145  0.0721  0.0096
  114MOL    O6716113   4.887   6.429   3.603 -0.0357  0.4148  0.2739
  114MOL    H6816114   5.054   6.606   3.702 -0.3201 -0.9538  2.4740
  114MOL    H6916115   4.958   6.674   3.827  0.5906  1.4192 -0.8538
  114MOL    H7016116   4.763   6.531   3.748 -0.1938  1.1129 -1.6511
  114MOL    H7116117   4.840   6.475   3.534 -1.5593 -1.9187 -0.3115
  114MOL    C7216118   4.930   6.411   3.834  0.1770 -0.1367  0.3143
  114MOL    C7316119   4.866   6.266   3.844  0.1252 -0.5125  0.1850
  114MOL    O7416120   4.944   6.200   3.945  0.5681  0.2557 -0.5875
  114MOL    H7516121   5.034   6.400   3.802  0.1001 -1.4418  0.5255
  114MOL    H7616122   4.945   6.463   3.929  1.0458 -0.2400  0.2436
  114MOL    H7716123   4.868   6.223   3.744  1.2188  3.3494 -1.5422
  114MOL    H7816124   5.014   6.156   3.900  0.3262 -0.7074 -0.0325
  114MOL    C7916125   4.719   6.275   3.895 -0.3269  0.0095 -1.0845
  114MOL    C8016126   4.601   6.246   3.798 -0.1624  0.1761 -0.5492
  114MOL    O8116127   4.561   6.370   3.732 -0.3705  0.0900  0.5045
  114MOL    H8216128   4.701   6.201   3.973  0.1238  0.2897 -0.7129
  114MOL    H8316129   4.714   6.375   3.939 -0.3557 -0.8515  0.9591
  114MOL    H8416130   4.512   6.225   3.856 -0.0511  0.1982 -0.3689
  114MOL    H8516131   4.502   6.350   3.661 -0.1677  0.8847  0.1044
  114MOL    C8616132   4.618   6.141   3.693 -0.1975  0.3393  0.5641
  114MOL    C8716133   4.639   5.999   3.757  0.2224 -0.5977 -0.7613
  114MOL    O8816134   4.512   5.959   3.798 -0.1606 -0.2815 -0.7198
  114MOL    H8916135   4.526   6.145   3.635  1.4703  0.1514 -2.1873
  114MOL    H9016136   4.698   6.183   3.632  0.7506  0.1990  1.6765
  114MOL    H9116137   4.708   6.005   3.841 -2.1366 -0.9560  1.2647
  114MOL    H9216138   4.480   6.038   3.837  0.8479  1.3072 -2.9428
  114MOL    C9316139   4.689   5.890   3.648 -0.8127 -0.4757 -0.6512
  114MOL    C9416140   4.835   5.920   3.603  0.4318  0.5983 -0.0966
  114MOL    O9516141   4.936   5.919   3.709  0.4457  0.7836 -0.1365
  114MOL    H9616142   4.687   5.790   3.692  3.2095  0.4034  1.7374
  114MOL    H9716143   4.624   5.901   3.561 -2.1255 -0.5659  0.2903
  114MOL    H9816144   4.840   6.018   3.555 -0.9418  0.1559 -1.1666
  114MOL    H9916145   4.893   5.893   3.789 -0.1261 -0.5818 -0.8690
  114MOL   C10016146   4.883   5.816   3.495  0.1421 -0.4029 -0.2018
  114MOL   C10116147   4.814   5.835   3.355  0.2936  0.1377 -0.4833
  114MOL   O10216148   4.821   5.966   3.293  0.3726  0.5979 -0.2589
  114MOL   H10316149   4.989   5.814   3.472  0.3378 -1.4289  0.7451
  114MOL   H10416150   4.864   5.716   3.534  0.6743  0.1814  1.6237
  114MOL   H10516151   4.713   5.796   3.353  0.3037  0.1350 -0.8409
  114MOL   H10616152   4.732   5.987   3.270 -0.2715  2.3809  3.3835
  114MOL   C10716153   4.885   5.737   3.258  0.1405  0.2325  0.0073
  114MOL   C10816154   4.862   5.590   3.275 -0.0082  0.6171  0.9719
  114MOL   O10916155   4.726   5.550   3.294 -0.3271 -0.5218 -0.7200
  114MOL   H11016156   4.843   5.765   3.161  0.8495 -1.6495 -0.8531
  114MOL   H11116157   4.990   5.761   3.245  1.2873 -4.6679 -0.3979
  114MOL   H11216158   4.906   5.558   3.370  0.3330  0.8398  0.8906
  114MOL   H11316159   4.708   5.462   3.323  0.4408 -0.6345 -0.5807
  114MOL   C11416160   4.922   5.494   3.162 -0.1922  0.0319 -0.0057
  114MOL   C11516161   5.075   5.474   3.152 -1.1902  0.2590 -1.0087
  114MOL   O11616162   5.119   5.427   3.275  0.5960  1.0854  0.0207
  114MOL   H11716163   4.885   5.392   3.170  2.9632 -1.0458  1.3609
  114MOL   H11816164   4.879   5.530   3.069 -1.8130 -0.1987  0.6347
  114MOL   H11916165   5.124   5.566   3.122 -0.9610  0.6577  0.5447
  114MOL   H12016166   5.203   5.460   3.302 -0.4664  1.6775  2.8365
  114MOL   C12116167   5.117   5.364   3.051  1.0268 -0.2962  0.2558
  114MOL   C12216168   5.262   5.363   2.995  0.1282  0.0295  0.7671
  114MOL   O12316169   5.285   5.230   2.947 -0.2555 -0.1381  0.4513
  114MOL   H12416170   5.082   5.268   3.087  1.0827 -0.3963  0.0409
  114MOL   H12516171   5.044   5.383   2.972 -1.0347  3.0543  2.8274
  114MOL   H12616172   5.329   5.379   3.079  0.7601  2.1194 -0.0832
  114MOL   H12716173   5.357   5.250   2.889 -0.6629  1.4650  0.4711
  114MOL   C12816174   5.288   5.467   2.887  0.1263 -0.2389 -0.3830
  114MOL   C12916175   5.438   5.471   2.831 -0.0074  0.2031 -0.4958
  114MOL   O13016176   5.461   5.366   2.748 -0.2047 -0.0870  0.1010
  114MOL   H13116177   5.223   5.444   2.803 -0.6510 -0.9570  0.4181
  114MOL   H13216178   5.267   5.569   2.920  0.6082 -1.0509  2.5075
  114MOL   H13316179   5.495   5.463   2.924 -1.6519  2.1717  0.7167
  114MOL   H13416180   5.550   5.388   2.724 -0.7976 -0.7100 -2.7985
  114MOL   C13516181   5.479   5.594   2.756  0.1548  0.7803 -0.5655
  114MOL   C13616182   5.392   5.641   2.635 -0.1916  0.2702 -0.3201
  114MOL   O13716183   5.395   5.783   2.625  0.1328 -0.1971 -0.8432
  114MOL   H13816184   5.502   5.677   2.822  1.2416 -0.0943  0.1610
  114MOL   H13916185   5.576   5.576   2.710 -0.6421  0.5017 -2.1741
  114MOL   H14016186   5.289   5.620   2.661  0.0132  1.1414  1.2447
  114MOL   H14116187   5.355   5.808   2.707  1.1007  0.0567 -0.4414
  114MOL   H14216188   5.411   5.576   2.550  0.3511  1.4126 -1.0877
  115MOL     C116189   7.474   2.575   3.408 -0.6823 -0.7057 -0.2765
  115MOL     C216190   0.095   2.562   3.343 -0.5638  0.8286 -0.0399
  115MOL     O316191   0.162   2.473   3.434 -0.2852 -1.1131 -0.0829
  115MOL     H416192   7.479   2.603   3.513 -2.7362  1.7327 -0.7566
  115MOL     H516193   7.421   2.480   3.401 -0.6778 -0.6893 -0.5305
  115MOL     H616194   0.143   2.659   3.347 -2.2067  1.5906  2.2352
  115MOL     H716195   0.165   2.514   3.519  0.1319  0.7298 -0.9611
  115MOL     H816196   7.418   2.657   3.362 -2.6264 -2.2762 -0.8286
  115MOL     C916197   0.093   2.509   3.195  0.4165  0.0724 -0.3688
  115MOL    C1016198   0.231   2.523   3.123  0.8196  0.0939  0.3250
  115MOL    O1116199   0.316   2.430   3.187  0.6090 -0.1212 -0.4936
  115MOL    H1216200   0.049   2.410   3.186 -2.3787  1.1559  0.8752
  115MOL    H1316201   0.022   2.573   3.142 -0.2556 -0.1251  0.2991
  115MOL    H1416202   0.255   2.626   3.148 -1.2330  0.7521 -0.3537
  115MOL    H1516203   0.307   2.450   3.279  0.0511  0.7591 -0.7270
  115MOL    C1616204   0.225   2.509   2.972 -0.3264  1.2819 -0.3004
  115MOL    C1716205   0.185   2.633   2.885 -0.0050  0.6384 -0.5485
  115MOL    O1816206   0.296   2.722   2.860  0.4408 -0.2778 -1.0700
  115MOL    H1916207   0.322   2.477   2.935  0.1706  1.1786  1.0357
  115MOL    H2016208   0.163   2.422   2.951  1.2829 -0.2033  1.0228
  115MOL    H2116209   0.110   2.689   2.941 -1.9673 -1.6152 -0.8281
  115MOL    H2216210   0.360   2.719   2.930 -2.1766 -1.8381  1.3676
  115MOL    C2316211   0.112   2.603   2.754  0.0021  0.1039  0.5180
  115MOL    C2416212   0.051   2.732   2.689  0.3346 -0.1773  0.3658
  115MOL    O2516213   0.037   2.714   2.546 -0.3399  0.6629 -0.0481
  115MOL    H2616214   0.191   2.571   2.687 -0.7472  0.4697 -0.5526
  115MOL    H2716215   0.044   2.522   2.783 -1.5834  0.1763 -2.7090
  115MOL    H2816216   0.111   2.822   2.700 -0.1100 -0.0634  1.8940
  115MOL    H2916217   0.085   2.776   2.493 -2.1142  1.1262 -1.1164
  115MOL    C3016218   7.427   2.763   2.736 -0.0669  0.9481 -0.0381
  115MOL    C3116219   7.386   2.917   2.741 -0.8127  0.8697 -0.4984
  115MOL    O3216220   7.350   2.963   2.614 -0.6683 -0.0956 -0.2045
  115MOL    H3316221   7.357   2.700   2.680 -0.5983  1.8627 -0.4216
  115MOL    H3416222   7.429   2.722   2.837 -0.5497 -0.0722 -0.4351
  115MOL    H3516223   7.480   2.973   2.749  0.8609 -2.2002  2.2849
  115MOL    H3616224   7.278   2.908   2.589 -0.8143  0.2239 -0.4864
  115MOL    C3716225   7.281   2.966   2.842  0.0997 -0.1631 -0.3736
  115MOL    C3816226   7.334   3.023   2.975  0.2077  0.2526  0.0983
  115MOL    O3916227   7.398   3.149   2.953  0.2578  0.2905 -0.3483
  115MOL    H4016228   7.218   3.040   2.793  2.7323  2.0427 -0.5704
  115MOL    H4116229   7.217   2.879   2.854 -0.7889  0.1197 -2.7996
  115MOL    H4216230   7.415   2.969   3.025 -1.7426 -0.1907  2.8973
  115MOL    H4316231   7.329   3.204   2.921  1.0553  1.5255  0.0162
  115MOL    C4416232   7.224   3.046   3.085  0.2062 -0.5656  0.3500
  115MOL    C4516233   7.160   2.912   3.141  0.4294 -0.1197  0.3289
  115MOL    O4616234   7.258   2.848   3.221  0.3963 -0.0498  0.4509
  115MOL    H4716235   7.259   3.112   3.164  0.4546  1.1723 -1.1873
  115MOL    H4816236   7.141   3.101   3.040  0.4284 -1.4906 -1.2147
  115MOL    H4916237   7.136   2.849   3.055 -0.8180  1.0453 -0.1989
  115MOL    H5016238   7.208   2.779   3.261  0.7058 -0.7336 -0.3540
  115MOL    C5116239   7.033   2.953   3.224  0.4653 -0.2976 -0.9254
  115MOL    C5216240   6.900   2.967   3.147  0.2210 -0.4260  0.9321
  115MOL    O5316241   6.863   2.833   3.113 -0.4469 -0.2262 -0.0777
  115MOL    H5416242   7.010   2.879   3.301  1.1540  2.1545  1.7126
  115MOL    H5516243   7.054   3.044   3.280  0.9574 -0.1292 -1.3851
  115MOL    H5616244   6.917   3.024   3.055 -0.5180 -1.1348  0.3459
  115MOL    H5716245   6.785   2.833   3.060  0.2370 -1.6946 -1.1443
  115MOL    C5816246   6.790   3.015   3.239 -0.0018  0.6983 -0.1269
  115MOL    C5916247   6.785   3.169   3.262  0.8526 -0.2959  0.0246
  115MOL    O6016248   6.716   3.210   3.145 -0.1525  0.6756 -0.2532
  115MOL    H6116249   6.694   2.986   3.196  0.3934 -3.0172  1.3636
  115MOL    H6216250   6.793   2.958   3.332  1.2283  0.9179 -0.0256
  115MOL    H6316251   6.886   3.212   3.256  0.3496  1.0731  1.0813
  115MOL    H6416252   6.743   3.300   3.131  1.0896  0.5439  1.1850
  115MOL    C6516253   6.718   3.201   3.399 -0.5089  0.3588  0.3784
  115MOL    C6616254   6.727   3.340   3.461  0.4459 -0.4220 -0.6289
  115MOL    O6716255   6.856   3.352   3.514 -0.0339 -0.2213  0.3045
  115MOL    H6816256   6.615   3.172   3.381 -0.0426 -0.2680 -1.3762
  115MOL    H6916257   6.750   3.128   3.474 -1.9791  1.5330  2.1867
  115MOL    H7016258   6.652   3.337   3.540  0.5319 -0.0451 -0.5331
  115MOL    H7116259   6.880   3.274   3.561  3.1606  0.8094  0.4819
  115MOL    C7216260   6.679   3.466   3.383  0.4309  0.3193  0.3278
  115MOL    C7316261   6.533   3.467   3.341  0.5883  0.1114  0.0175
  115MOL    O7416262   6.462   3.505   3.459 -0.1662  0.1674  0.0146
  115MOL    H7516263   6.706   3.558   3.436  0.6105  1.2186 -1.2984
  115MOL    H7616264   6.739   3.482   3.293 -1.4177 -1.3500 -1.2551
  115MOL    H7716265   6.504   3.365   3.315 -1.4364  0.3950  1.0581
  115MOL    H7816266   6.488   3.593   3.483  3.5272 -0.2909 -1.8784
  115MOL    C7916267   6.506   3.566   3.228 -0.4085 -0.0469 -0.0210
  115MOL    C8016268   6.361   3.576   3.187  0.5739  0.6206 -0.1670
  115MOL    O8116269   6.347   3.696   3.124  0.6028  0.3211  0.4031
  115MOL    H8216270   6.522   3.664   3.272  0.4503 -0.4022  0.4750
  115MOL    H8316271   6.579   3.559   3.147  0.4776  0.0650  0.7548
  115MOL    H8416272   6.304   3.561   3.279  2.4913  0.8103  1.0914
  115MOL    H8516273   6.329   3.755   3.195 -1.5915 -0.6712  0.7105
  115MOL    C8616274   6.327   3.466   3.095 -0.1576  0.3286  0.2323
  115MOL    C8716275   6.193   3.467   3.019  0.3080  0.1309 -0.1533
  115MOL    O8816276   6.186   3.362   2.929 -0.4767  0.1220  0.1095
  115MOL    H8916277   6.408   3.455   3.023 -0.4156  0.1270 -0.0269
  115MOL    H9016278   6.319   3.374   3.152  1.9132  0.9269  1.5396
  115MOL    H9116279   6.191   3.566   2.973 -0.7033  0.4689  0.6233
  115MOL    H9216280   6.203   3.285   2.981  0.5380  0.9222  0.9927
  115MOL    C9316281   6.071   3.461   3.115  0.3785 -0.0874 -0.0860
  115MOL    C9416282   5.932   3.468   3.032  0.4181 -0.9639  0.5418
  115MOL    O9516283   5.823   3.410   3.109 -0.3633 -0.1058  0.3654
  115MOL    H9616284   6.080   3.371   3.175  2.2999 -0.0528 -0.2808
  115MOL    H9716285   6.070   3.539   3.191 -0.4840  2.2551 -2.4357
  115MOL    H9816286   5.931   3.403   2.945 -1.7433  0.2330 -0.3645
  115MOL    H9916287   5.789   3.351   3.044 -0.2445  2.5224 -2.1659
  115MOL   C10016288   5.898   3.610   2.985 -0.9125  0.2738 -0.4326
  115MOL   C10116289   5.869   3.717   3.098 -0.4028 -0.1276  0.1362
  115MOL   O10216290   5.963   3.824   3.095  0.5868  0.1389  0.5919
  115MOL   H10316291   5.965   3.646   2.906  2.1285  0.1563  1.9852
  115MOL   H10416292   5.800   3.608   2.938 -1.0772 -0.7876 -0.0477
  115MOL   H10516293   5.864   3.667   3.195 -1.6641  1.5615  0.9787
  115MOL   H10616294   5.934   3.903   3.139  0.7877  0.3821  0.2871
  115MOL   C10716295   5.725   3.784   3.087  0.1268 -0.6785 -0.2603
  115MOL   C10816296   5.605   3.693   3.118  0.9441  0.4161  0.0170
  115MOL   O10916297   5.598   3.673   3.258  0.0998  0.6091 -0.3457
  115MOL   H11016298   5.716   3.870   3.153 -1.3007 -1.7860  1.0245
  115MOL   H11116299   5.717   3.814   2.983  2.4288  2.3533  0.3837
  115MOL   H11216300   5.621   3.601   3.060 -0.6358  1.4475 -2.1247
  115MOL   H11316301   5.609   3.583   3.283 -1.6328 -0.1687 -2.2739
  115MOL   C11416302   5.470   3.767   3.069  0.4361  0.5631 -0.0622
  115MOL   C11516303   5.339   3.687   3.080 -0.3558  0.3358  0.8293
  115MOL   O11616304   5.302   3.663   3.211 -0.4506  0.0536  0.0443
  115MOL   H11716305   5.464   3.864   3.118  0.4581  0.3231  0.4254
  115MOL   H11816306   5.487   3.796   2.966  0.5600  2.2457  0.4220
  115MOL   H11916307   5.364   3.593   3.032 -0.0066  0.1423  1.3763
  115MOL   H12016308   5.370   3.692   3.270 -0.3782  0.7090 -0.3536
  115MOL   C12116309   5.227   3.762   3.005 -0.1218  0.7072 -0.3400
  115MOL   C12216310   5.087   3.700   2.998 -0.0682 -0.1738 -0.3170
  115MOL   O12316311   5.011   3.802   2.933 -0.7223  0.0270  0.5961
  115MOL   H12416312   5.219   3.857   3.059 -0.2376  0.5614 -0.0992
  115MOL   H12516313   5.255   3.806   2.909  0.3633  1.2153  0.0304
  115MOL   H12616314   5.034   3.723   3.090  3.2988  3.2150  0.9037
  115MOL   H12716315   4.937   3.832   2.984 -2.4590 -0.4415 -1.5870
  115MOL   C12816316   5.056   3.563   2.929 -0.1617  0.4599 -0.1433
  115MOL   C12916317   5.055   3.445   3.026  0.2543 -0.2225  0.5693
  115MOL   O13016318   4.955   3.459   3.124 -0.0993  0.0263 -0.0917
  115MOL   H13116319   4.953   3.566   2.892  0.1688  0.7718 -1.0372
  115MOL   H13216320   5.112   3.542   2.838 -1.3785 -1.6627 -0.4372
  115MOL   H13316321   5.155   3.445   3.069  1.4394 -0.8358 -2.0731
  115MOL   H13416322   4.960   3.378   3.172  2.9093  0.2255 -0.0256
  115MOL   C13516323   5.019   3.309   2.952  0.7358 -1.0208  0.6897
  115MOL   C13616324   5.030   3.198   3.051 -0.3051  0.3655 -0.3272
  115MOL   O13716325   5.000   3.076   2.985  0.0343  0.1171 -0.2057
  115MOL   H13816326   4.920   3.314   2.907  1.0629 -0.3956  0.0386
  115MOL   H13916327   5.099   3.301   2.879 -0.2130  0.2841 -0.5263
  115MOL   H14016328   4.954   3.201   3.129 -1.7058  1.9292 -1.7140
  115MOL   H14116329   5.067   3.057   2.921 -1.1725  2.9936 -2.4408
  115MOL   H14216330   5.123   3.195   3.107 -0.6799 -0.1688  0.2768
  116MOL     C116331   3.649   3.312   5.838 -0.3241  0.4698 -0.7167
  116MOL     C216332   3.604   3.417   5.934  0.1388  0.4091 -0.1848
  116MOL     O316333   3.470   3.461   5.904  0.1414  0.3223  0.0828
  116MOL     H416334   3.756   3.298   5.853 -0.4800 -1.0418 -0.9753
  116MOL     H516335   3.624   3.351   5.740 -1.6784 -0.0527 -0.5898
  116MOL     H616336   3.662   3.505   5.906 -0.9671  0.9851 -0.6972
  116MOL     H716337   3.457   3.479   5.813 -1.0107 -1.3695 -0.1119
  116MOL     H816338   3.600   3.215   5.845  0.9892 -0.2004 -0.7295
  116MOL     C916339   3.620   3.367   6.083  0.0031  0.0375 -0.5309
  116MOL    C1016340   3.575   3.469   6.183 -0.0900 -0.2186 -0.3242
  116MOL    O1116341   3.431   3.496   6.163 -0.3962  0.3091  0.2339
  116MOL    H1216342   3.569   3.271   6.096  0.0266  0.2758  1.3903
  116MOL    H1316343   3.725   3.352   6.107  0.2999 -0.0321 -1.8082
  116MOL    H1416344   3.631   3.561   6.165  1.4121 -0.8526  0.9777
  116MOL    H1516345   3.407   3.517   6.074  1.4114  0.9331 -0.1272
  116MOL    C1616346   3.608   3.447   6.335 -1.0178  0.5949 -0.0923
  116MOL    C1716347   3.539   3.527   6.449 -0.8416 -0.3434  0.3336
  116MOL    O1816348   3.592   3.478   6.572  0.5367 -0.1749 -0.6316
  116MOL    H1916349   3.589   3.340   6.345 -1.3501  0.8938  2.8686
  116MOL    H2016350   3.715   3.458   6.353 -1.3598 -0.6272  2.9465
  116MOL    H2116351   3.441   3.482   6.435 -1.0669  0.2053  0.1260
  116MOL    H2216352   3.540   3.406   6.604  0.0192 -0.0552 -1.1798
  116MOL    C2316353   3.536   3.676   6.446 -0.4313 -0.3173 -0.3341
  116MOL    C2416354   3.411   3.722   6.525 -0.4872 -0.5007  0.5125
  116MOL    O2516355   3.426   3.863   6.544 -0.0683 -0.3429  0.0074
  116MOL    H2616356   3.633   3.707   6.486 -0.4511  1.7767 -1.8179
  116MOL    H2716357   3.530   3.713   6.344 -1.8501  0.7726  0.1381
  116MOL    H2816358   3.414   3.667   6.619  1.7768  0.6815  1.1699
  116MOL    H2916359   3.376   3.882   6.622 -0.9148 -2.5474  0.0482
  116MOL    C3016360   3.278   3.689   6.458 -0.5600 -0.7799  0.2066
  116MOL    C3116361   3.256   3.749   6.319  0.4028 -0.0201 -0.3238
  116MOL    O3216362   3.173   3.658   6.254  0.3258  0.3148 -0.3007
  116MOL    H3316363   3.275   3.580   6.454  0.3868 -0.7924 -0.3912
  116MOL    H3416364   3.198   3.724   6.523 -1.1426 -1.7823  0.0559
  116MOL    H3516365   3.342   3.748   6.253  2.7819 -1.8920  2.6384
  116MOL    H3616366   3.233   3.596   6.215  1.7817  1.7342 -0.4035
  116MOL    C3716367   3.194   3.894   6.319 -0.2936 -0.4687  0.4308
  116MOL    C3816368   3.281   4.002   6.248 -0.3480  0.3118 -0.2810
  116MOL    O3916369   3.403   4.023   6.314  0.1141  0.1699 -0.5296
  116MOL    H4016370   3.099   3.890   6.267 -0.2443 -0.0931  0.3111
  116MOL    H4116371   3.161   3.933   6.415  0.7655  0.0921  0.5840
  116MOL    H4216372   3.220   4.091   6.253  1.1704  1.3815 -0.4015
  116MOL    H4316373   3.402   3.966   6.389 -0.9442  1.1142  0.1810
  116MOL    C4416374   3.311   3.980   6.093 -0.3011 -0.1648  0.7127
  116MOL    C4516375   3.185   3.950   6.004  0.1977  0.4694  0.4529
  116MOL    O4616376   3.095   4.054   6.007  0.0712 -0.4328  0.7603
  116MOL    H4716377   3.365   4.065   6.051 -1.2518 -0.3411 -0.9213
  116MOL    H4816378   3.385   3.900   6.085 -0.4794 -0.3015  0.3800
  116MOL    H4916379   3.138   3.856   6.032  1.7323 -0.1204  1.1124
  116MOL    H5016380   3.032   4.028   6.072 -1.0346 -0.7638 -0.4214
  116MOL    C5116381   3.229   3.923   5.862 -0.0441 -0.3068  0.8309
  116MOL    C5216382   3.325   3.805   5.838 -0.6119  0.5097  0.4859
  116MOL    O5316383   3.283   3.682   5.900 -0.1625 -0.2468 -0.5375
  116MOL    H5416384   3.143   3.908   5.796 -0.4898  0.5970  1.1976
  116MOL    H5516385   3.273   4.017   5.829  2.1708 -1.9797 -1.1304
  116MOL    H5616386   3.419   3.835   5.883  0.0499 -0.6426 -0.1173
  116MOL    H5716387   3.338   3.610   5.876  0.2809 -1.1625  2.8711
  116MOL    C5816388   3.360   3.791   5.681  0.4456 -0.8104  0.1448
  116MOL    C5916389   3.502   3.759   5.631  0.0598  0.1244  0.8489
  116MOL    O6016390   3.536   3.625   5.654 -0.0498  0.5029 -0.2040
  116MOL    H6116391   3.302   3.719   5.623  0.6050  0.4919 -1.7016
  116MOL    H6216392   3.341   3.887   5.633  1.6642 -0.8366 -0.4340
  116MOL    H6316393   3.571   3.829   5.677 -1.1574  2.4181 -0.7123
  116MOL    H6416394   3.626   3.617   5.681 -0.9204 -1.5686  2.2777
  116MOL    C6516395   3.520   3.776   5.470 -0.0622  0.0610 -0.5166
  116MOL    C6616396   3.539   3.922   5.434  0.2848  0.6184 -0.2346
  116MOL    O6716397   3.675   3.938   5.386  0.4895  0.4627 -0.7657
  116MOL    H6816398   3.612   3.722   5.446 -0.7402 -0.1640 -2.6947
  116MOL    H6916399   3.452   3.717   5.409  1.2481 -0.1798 -1.7793
  116MOL    H7016400   3.515   3.987   5.518  0.3988 -0.6733  0.8340
  116MOL    H7116401   3.684   4.031   5.373  0.6040  0.9720  2.5025
  116MOL    C7216402   3.443   3.951   5.320 -0.9136  0.5370  0.3021
  116MOL    C7316403   3.403   4.097   5.302 -0.2272 -0.6347 -0.4858
  116MOL    O7416404   3.420   4.125   5.167 -0.2578 -0.1392  0.3794
  116MOL    H7516405   3.484   3.908   5.228  1.3961 -0.4076  1.7482
  116MOL    H7616406   3.354   3.889   5.323 -0.1227 -0.8111 -2.3421
  116MOL    H7716407   3.477   4.159   5.354 -1.3101 -0.8248  1.3485
  116MOL    H7816408   3.378   4.067   5.106 -1.9050 -1.2058  2.4783
  116MOL    C7916409   3.260   4.130   5.333 -0.1011 -0.6268  0.1169
  116MOL    C8016410   3.216   4.073   5.469  0.1084  0.5026 -0.0092
  116MOL    O8116411   3.289   4.138   5.572  0.1509  0.3516 -0.1827
  116MOL    H8216412   3.238   4.237   5.329 -1.0122 -0.8250 -0.4821
  116MOL    H8316413   3.201   4.085   5.253  1.5395  0.3028 -1.6309
  116MOL    H8416414   3.228   3.965   5.469 -1.4871  0.2980  1.9687
  116MOL    H8516415   3.257   4.226   5.586 -3.1175 -0.5350 -1.7204
  116MOL    C8616416   3.072   4.106   5.513  0.1514 -0.2693 -0.8018
  116MOL    C8716417   2.959   4.047   5.426  0.4925  0.0814 -0.4024
  116MOL    O8816418   2.845   4.040   5.511 -0.3249  0.0828  0.0418
  116MOL    H8916419   3.052   4.069   5.614  0.3895  1.3395 -0.1437
  116MOL    H9016420   3.057   4.214   5.522  0.9611 -0.0214 -2.4051
  116MOL    H9116421   2.985   3.943   5.407  0.9257  0.4182 -1.7436
  116MOL    H9216422   2.875   4.014   5.596 -3.9987  0.1412  1.4545
  116MOL    C9316423   2.926   4.124   5.294  0.4449  0.4158  0.0602
  116MOL    C9416424   2.871   4.053   5.169  0.5873 -0.4190  0.1309
  116MOL    O9516425   2.838   4.153   5.072 -0.1966 -0.3678  0.1480
  116MOL    H9616426   2.858   4.206   5.317  0.6731  0.1109  1.8330
  116MOL    H9716427   3.017   4.173   5.258 -1.5305  2.1717 -2.8024
  116MOL    H9816428   2.787   3.995   5.206 -0.2068 -0.4197 -1.6044
  116MOL    H9916429   2.907   4.217   5.063  0.0009 -0.3546  1.6840
  116MOL   C10016430   2.976   3.953   5.095  0.0361 -0.0924  0.0274
  116MOL   C10116431   2.915   3.870   4.978  0.3769  0.2230  0.2223
  116MOL   O10216432   3.035   3.806   4.923 -0.0031 -0.1769 -0.0261
  116MOL   H10316433   3.051   4.016   5.047 -0.8148  0.5782 -0.4490
  116MOL   H10416434   3.020   3.882   5.164 -0.7959 -1.5043 -0.8568
  116MOL   H10516435   2.869   3.934   4.903  0.0767  1.3684  1.3664
  116MOL   H10616436   3.078   3.867   4.865 -0.0551 -0.6979 -0.6093
  116MOL   C10716437   2.815   3.749   5.021 -0.6667 -0.3660 -0.6067
  116MOL   C10816438   2.766   3.664   4.899 -0.0115 -0.0148 -0.5051
  116MOL   O10916439   2.867   3.573   4.856  0.4526  0.0825  0.1831
  116MOL   H11016440   2.867   3.681   5.088 -1.2477 -2.2823 -2.0321
  116MOL   H11116441   2.734   3.790   5.080 -0.6212  1.2336 -1.6450
  116MOL   H11216442   2.747   3.732   4.816  1.8542  0.8906 -0.2105
  116MOL   H11316443   2.944   3.621   4.828  2.1408 -2.2226  0.6798
  116MOL   C11416444   2.637   3.591   4.932  0.1723 -0.1905 -0.3512
  116MOL   C11516445   2.646   3.499   5.056  0.4312  0.0621  0.4357
  116MOL   O11616446   2.621   3.576   5.168 -0.4813 -0.1603 -0.2196
  116MOL   H11716447   2.558   3.665   4.944 -0.3936 -0.9715  0.8140
  116MOL   H11816448   2.611   3.539   4.839  2.6526 -2.2635  0.0516
  116MOL   H11916449   2.746   3.456   5.060  0.7051  0.8746  2.7763
  116MOL   H12016450   2.530   3.597   5.155 -1.0947 -2.1703  0.5592
  116MOL   C12116451   2.546   3.382   5.037  0.1453 -0.0440  0.5003
  116MOL   C12216452   2.553   3.258   5.132 -0.1122  0.2484  0.2739
  116MOL   O12316453   2.516   3.290   5.260 -0.3068 -0.1449  0.3453
  116MOL   H12416454   2.444   3.419   5.026  0.0311 -0.6407 -0.5389
  116MOL   H12516455   2.567   3.338   4.940 -0.3650  1.1142 -0.1339
  116MOL   H12616456   2.660   3.235   5.139  0.3117  1.2940 -2.2370
  116MOL   H12716457   2.565   3.366   5.288  0.7194 -1.4181  2.1076
  116MOL   C12816458   2.466   3.128   5.100 -0.1793 -0.4641  0.2253
  116MOL   C12916459   2.498   3.055   4.968 -0.5943 -0.3866  0.2710
  116MOL   O13016460   2.634   3.025   4.936  0.4441 -0.0611 -0.4295
  116MOL   H13116461   2.481   3.056   5.181  3.2402  0.9193  0.9245
  116MOL   H13216462   2.363   3.164   5.101  0.3762  1.2909 -1.7425
  116MOL   H13316463   2.467   3.117   4.884  0.6732  0.6018  0.5122
  116MOL   H13416464   2.643   3.006   4.844 -0.4859  1.6178 -0.8958
  116MOL   C13516465   2.406   2.929   4.965 -0.1059 -0.3825  0.2117
  116MOL   C13616466   2.379   2.859   4.829  0.1790 -0.5965 -0.4176
  116MOL   O13716467   2.325   2.731   4.831  0.4520  0.4014 -0.4637
  116MOL   H13816468   2.451   2.849   5.024 -0.1621 -1.0528 -0.6453
  116MOL   H13916469   2.309   2.940   5.014  0.5245  1.5429  1.0955
  116MOL   H14016470   2.468   2.862   4.766  0.5071 -1.2886  0.0094
  116MOL   H14116471   2.296   2.716   4.920  0.9201  1.2948 -0.1490
  116MOL   H14216472   2.318   2.930   4.772 -1.5661 -0.7546  1.2256
  117MOL     C116473   7.102   4.582   4.498  0.4601 -0.1112 -0.3384
  117MOL     C216474   7.181   4.595   4.631  0.0987  1.0745  0.7910
  117MOL     O316475   7.317   4.598   4.591  0.6233 -0.1949 -1.0399
  117MOL     H416476   6.995   4.583   4.518  0.7836  2.8160  1.5459
  117MOL     H516477   7.121   4.496   4.434 -1.0623 -1.3210  0.8070
  117MOL     H616478   7.161   4.510   4.697 -0.8157  0.1070 -0.6950
  117MOL     H716479   7.346   4.509   4.575 -2.1424 -1.4706  0.6165
  117MOL     H816480   7.106   4.661   4.423 -2.2114 -0.4660 -0.9190
  117MOL     C916481   7.150   4.729   4.713 -0.5695 -0.2851 -0.2302
  117MOL    C1016482   7.240   4.750   4.842 -0.3674  0.0048  0.4600
  117MOL    O1116483   7.293   4.878   4.819  0.1538 -0.5994  0.0199
  117MOL    H1216484   7.160   4.807   4.638 -2.6435  1.5214  1.3280
  117MOL    H1316485   7.049   4.724   4.753 -0.3319 -3.4185  0.1242
  117MOL    H1416486   7.305   4.663   4.850 -2.1814 -1.4594 -0.2989
  117MOL    H1516487   7.329   4.863   4.733 -0.7422 -0.2755 -0.4175
  117MOL    C1616488   7.155   4.759   4.978 -0.2776  0.7114  0.0101
  117MOL    C1716489   7.111   4.624   5.035  0.6066 -0.5188  0.0621
  117MOL    O1816490   7.219   4.544   5.086  0.7319  0.2814 -0.2449
  117MOL    H1916491   7.217   4.800   5.057  2.2533 -0.8332 -1.1407
  117MOL    H2016492   7.083   4.841   4.967  0.1262  0.9966 -0.5286
  117MOL    H2116493   7.063   4.567   4.955 -0.8179  0.4524  0.1948
  117MOL    H2216494   7.246   4.482   5.020 -0.1360  1.0975 -1.4041
  117MOL    C2316495   7.011   4.632   5.146  0.6089  0.2494 -0.0368
  117MOL    C2416496   6.881   4.718   5.131  0.1929 -0.9439  0.0044
  117MOL    O2516497   6.816   4.684   5.008 -0.0349 -0.3507 -0.0482
  117MOL    H2616498   6.989   4.527   5.162  3.9654 -0.3392  1.3136
  117MOL    H2716499   7.060   4.666   5.238 -0.1139  2.4970 -0.4555
  117MOL    H2816500   6.907   4.823   5.121 -0.9173 -0.6260  0.3935
  117MOL    H2916501   6.737   4.735   5.005  0.2787  0.2050  1.0453
  117MOL    C3016502   6.775   4.699   5.244  0.1064  1.0144 -0.5218
  117MOL    C3116503   6.774   4.818   5.345 -0.3610  0.1446  0.1661
  117MOL    O3216504   6.694   4.917   5.295  0.1871  0.0558  0.0639
  117MOL    H3316505   6.675   4.675   5.209  0.2820 -1.7763  0.8058
  117MOL    H3416506   6.805   4.611   5.301 -2.2570 -0.6601 -1.7765
  117MOL    H3516507   6.873   4.863   5.348  0.2876 -0.8233 -3.6788
  117MOL    H3616508   6.750   4.992   5.288  0.0999 -0.0120 -1.5003
  117MOL    C3716509   6.725   4.780   5.482 -0.1885 -0.4019  0.1345
  117MOL    C3816510   6.808   4.666   5.557  0.4456 -0.0568  0.2938
  117MOL    O3916511   6.943   4.707   5.549  0.0691 -0.3689 -0.1991
  117MOL    H4016512   6.714   4.869   5.545  1.0993 -0.3112  0.2498
  117MOL    H4116513   6.621   4.751   5.472 -1.1181  2.5988  0.6428
  117MOL    H4216514   6.821   4.573   5.501  0.8451  0.1618  0.0198
  117MOL    H4316515   7.002   4.634   5.538  0.1015 -0.3200 -0.3465
  117MOL    C4416516   6.767   4.639   5.698 -0.2267  0.1331 -0.4822
  117MOL    C4516517   6.639   4.540   5.716 -0.1212 -0.4154 -0.2329
  117MOL    O4616518   6.640   4.485   5.848  0.5302 -0.4585 -0.0264
  117MOL    H4716519   6.849   4.604   5.760  0.4114  2.5514  0.0983
  117MOL    H4816520   6.740   4.737   5.736 -0.3199  0.5936 -1.7056
  117MOL    H4916521   6.644   4.461   5.640  1.8637 -4.3297  3.7630
  117MOL    H5016522   6.725   4.449   5.864  1.6337  2.3492  0.7456
  117MOL    C5116523   6.501   4.620   5.714  0.0039  0.7499 -0.3097
  117MOL    C5216524   6.396   4.518   5.659  0.3001 -0.3215  0.5314
  117MOL    O5316525   6.380   4.416   5.762  0.3037  0.2716  0.0734
  117MOL    H5416526   6.471   4.647   5.815  1.3933  1.0595  0.0353
  117MOL    H5516527   6.494   4.718   5.666 -1.1562 -0.2431 -2.1984
  117MOL    H5616528   6.431   4.481   5.562 -0.4395 -0.8748  0.4618
  117MOL    H5716529   6.460   4.418   5.813  1.1747  2.9077 -1.3334
  117MOL    C5816530   6.266   4.597   5.641 -0.4498  0.4844  0.1700
  117MOL    C5916531   6.279   4.691   5.517  0.4244  0.1212 -0.6905
  117MOL    O6016532   6.261   4.604   5.406  0.0997 -0.1280  0.0792
  117MOL    H6116533   6.184   4.532   5.610  1.4045 -2.9115  2.0977
  117MOL    H6216534   6.239   4.647   5.734 -0.1028 -0.5241  0.8117
  117MOL    H6316535   6.372   4.742   5.493  0.8968  0.2457  1.2839
  117MOL    H6416536   6.168   4.597   5.391  0.3268 -2.6355 -0.3165
  117MOL    C6516537   6.174   4.804   5.508 -0.0571 -0.1137  0.3640
  117MOL    C6616538   6.236   4.953   5.506 -0.6016  0.0568  0.3227
  117MOL    O6716539   6.308   4.981   5.625 -0.5446  0.3846  0.4646
  117MOL    H6816540   6.101   4.786   5.429  0.3081 -0.5245  0.1149
  117MOL    H6916541   6.111   4.811   5.596 -0.6609  0.2832 -0.0909
  117MOL    H7016542   6.153   5.023   5.494 -0.8419 -0.3448 -0.3812
  117MOL    H7116543   6.368   5.049   5.598 -0.7534 -0.7495 -3.1591
  117MOL    C7216544   6.318   4.984   5.376  0.4289  0.1952 -0.7167
  117MOL    C7316545   6.363   5.135   5.351  0.3501 -0.6575  0.4149
  117MOL    O7416546   6.452   5.155   5.459 -0.0916 -0.3820  0.0029
  117MOL    H7516547   6.393   4.905   5.372 -0.9750 -1.1486 -0.8763
  117MOL    H7616548   6.253   4.958   5.292  0.0476 -0.8260 -0.1111
  117MOL    H7716549   6.271   5.190   5.369  0.7438 -0.6852  2.6787
  117MOL    H7816550   6.469   5.248   5.457 -0.4588 -0.3168 -0.1081
  117MOL    C7916551   6.413   5.176   5.213 -0.2841 -0.3582  0.3680
  117MOL    C8016552   6.401   5.326   5.179 -0.0616  0.0144 -0.1218
  117MOL    O8116553   6.494   5.363   5.085  0.4456  0.2787 -0.0267
  117MOL    H8216554   6.520   5.153   5.220 -0.0900  0.4694  0.1334
  117MOL    H8316555   6.369   5.120   5.130  0.0783 -0.2305  0.0885
  117MOL    H8416556   6.422   5.378   5.272 -0.3051 -1.2898  0.6674
  117MOL    H8516557   6.517   5.451   5.113 -1.0149  0.5864  0.2125
  117MOL    C8616558   6.265   5.363   5.121  0.0385 -0.4725 -0.0077
  117MOL    C8716559   6.230   5.511   5.155  0.5314 -1.0723  0.4732
  117MOL    O8816560   6.297   5.608   5.072 -0.0416 -0.5030  0.4226
  117MOL    H8916561   6.256   5.337   5.015 -0.3476  1.0919 -0.3743
  117MOL    H9016562   6.191   5.292   5.156 -0.9186  0.3699 -0.2855
  117MOL    H9116563   6.255   5.528   5.260 -0.2906  0.3183  0.4570
  117MOL    H9216564   6.378   5.573   5.038 -1.4597 -2.0555 -1.4592
  117MOL    C9316565   6.083   5.544   5.136  0.9855 -0.6404  0.2641
  117MOL    C9416566   6.028   5.664   5.208  0.0004  0.3214 -0.5550
  117MOL    O9516567   6.077   5.766   5.129  0.1406 -0.5661 -0.3006
  117MOL    H9616568   6.056   5.556   5.031  0.4813 -2.4053  0.1757
  117MOL    H9716569   6.024   5.458   5.168  0.8828 -0.9412 -0.6987
  117MOL    H9816570   6.065   5.661   5.311 -0.4610 -0.1628 -0.4020
  117MOL    H9916571   6.148   5.728   5.080  0.2892 -0.1100 -0.4377
  117MOL   C10016572   5.872   5.663   5.194 -0.1629 -0.1472 -0.1245
  117MOL   C10116573   5.798   5.787   5.257 -0.2031  0.3142 -0.8882
  117MOL   O10216574   5.662   5.771   5.215 -0.6049 -0.0016 -0.3019
  117MOL   H10316575   5.830   5.643   5.096 -3.7073  2.3538  0.7830
  117MOL   H10416576   5.841   5.572   5.246  1.9066 -0.9984 -0.2963
  117MOL   H10516577   5.832   5.878   5.209  0.6051  0.9050  0.7755
  117MOL   H10616578   5.624   5.857   5.211  1.1116  0.7046 -2.1057
  117MOL   C10716579   5.800   5.799   5.410 -0.3262 -0.3364 -0.5226
  117MOL   C10816580   5.759   5.932   5.472  0.0805  0.1745  0.2514
  117MOL   O10916581   5.732   5.906   5.606 -0.2413  0.5142  0.1748
  117MOL   H11016582   5.749   5.712   5.450 -1.2279  0.3012 -0.2760
  117MOL   H11116583   5.905   5.793   5.439 -0.3431  0.4064 -0.3012
  117MOL   H11216584   5.681   5.979   5.412  1.6865  0.0590 -2.0300
  117MOL   H11316585   5.696   5.819   5.602  0.2144  0.3319 -0.0144
  117MOL   C11416586   5.873   6.031   5.475 -0.5445 -0.4832  0.0678
  117MOL   C11516587   5.831   6.171   5.506  0.3650 -0.0104 -0.1649
  117MOL   O11616588   5.943   6.255   5.537 -0.0936 -0.1659  0.6179
  117MOL   H11716589   5.957   6.006   5.540  1.1039  1.2229 -1.3589
  117MOL   H11816590   5.917   6.035   5.376  1.1107  0.4803  0.8276
  117MOL   H11916591   5.770   6.180   5.595  0.4679  1.1552 -0.2073
  117MOL   H12016592   5.908   6.342   5.525  0.1481 -0.1049  0.3564
  117MOL   C12116593   5.736   6.235   5.391  0.3921  0.1802 -0.9460
  117MOL   C12216594   5.785   6.237   5.247 -0.2268  0.4568 -0.4614
  117MOL   O12316595   5.755   6.116   5.179 -0.4001 -0.3276 -0.0637
  117MOL   H12416596   5.640   6.184   5.403  1.3846 -1.1289  1.9294
  117MOL   H12516597   5.705   6.337   5.412  1.4374  0.5568 -1.1990
  117MOL   H12616598   5.893   6.244   5.251 -0.2488  0.8184 -0.5482
  117MOL   H12716599   5.832   6.088   5.131  0.4529  0.4592  0.8194
  117MOL   C12816600   5.738   6.347   5.156  0.5881  0.1002 -0.1801
  117MOL   C12916601   5.792   6.490   5.188  0.0227  0.5416  0.2732
  117MOL   O13016602   5.872   6.519   5.077  0.1369 -0.0731  0.6912
  117MOL   H13116603   5.755   6.310   5.055  2.9353 -0.4347  0.3860
  117MOL   H13216604   5.631   6.339   5.171  0.8656 -4.4834 -0.0667
  117MOL   H13316605   5.849   6.503   5.281 -2.7290  3.8758  1.5791
  117MOL   H13416606   5.813   6.517   5.003  2.2307 -0.4516 -1.0249
  117MOL   C13516607   5.685   6.604   5.200  0.1759  0.1694 -0.1504
  117MOL   C13616608   5.754   6.738   5.220 -0.5046  0.8373 -0.5746
  117MOL   O13716609   5.665   6.841   5.247 -0.0693 -0.3935 -0.2706
  117MOL   H13816610   5.624   6.604   5.110 -1.5303  0.1566  0.9797
  117MOL   H13916611   5.611   6.584   5.277  0.0151 -1.7528 -0.7806
  117MOL   H14016612   5.813   6.767   5.133 -0.1572 -1.4881 -1.1481
  117MOL   H14116613   5.721   6.917   5.248  1.2313 -1.3401 -0.6884
  117MOL   H14216614   5.828   6.732   5.300 -1.3813  0.0851  0.1899
  118MOL     C116615   1.823   2.736   1.023 -0.6987  0.1179  0.1605
  118MOL     C216616   1.683   2.757   0.977  0.3615  0.0019  0.0877
  118MOL     O316617   1.696   2.754   0.842  0.2217  0.4075  0.3612
  118MOL     H416618   1.859   2.636   0.998 -1.4374 -0.1386  0.1285
  118MOL     H516619   1.848   2.750   1.128  0.5968 -0.5543 -0.0488
  118MOL     H616620   1.648   2.857   1.005  0.0892  0.5722 -2.1563
  118MOL     H716621   1.625   2.810   0.813  0.4560  1.3074  1.4542
  118MOL     H816622   1.888   2.814   0.983  1.4038 -1.3456  0.6479
  118MOL     C916623   1.570   2.660   1.017  0.7114 -0.2341  0.4233
  118MOL    C1016624   1.535   2.661   1.163 -0.2149  0.3751  0.0055
  118MOL    O1116625   1.471   2.786   1.199 -0.6010  0.1040  0.1943
  118MOL    H1216626   1.480   2.691   0.965  0.2084 -0.8887  0.9105
  118MOL    H1316627   1.587   2.563   0.969  0.1927 -0.6912  1.1612
  118MOL    H1416628   1.626   2.663   1.223 -0.6314  1.5021  0.6004
  118MOL    H1516629   1.530   2.856   1.220 -5.1611  4.3923 -0.3144
  118MOL    C1616630   1.448   2.545   1.200 -0.2034 -0.0482 -0.3145
  118MOL    C1716631   1.454   2.495   1.344  0.5156  0.1755  0.3213
  118MOL    O1816632   1.317   2.491   1.398  0.4827 -0.5300  0.0632
  118MOL    H1916633   1.348   2.564   1.161 -1.0813  1.9715  2.7445
  118MOL    H2016634   1.489   2.461   1.144  0.7111  0.4466 -0.4054
  118MOL    H2116635   1.512   2.559   1.410  0.7982  0.7073 -0.4411
  118MOL    H2216636   1.288   2.574   1.432  2.1034  1.3819 -2.9052
  118MOL    C2316637   1.518   2.347   1.351 -0.2493 -0.0461  0.0717
  118MOL    C2416638   1.543   2.307   1.493  0.0587 -0.8126  0.0233
  118MOL    O2516639   1.421   2.311   1.562  0.2194  0.6574  0.0111
  118MOL    H2616640   1.457   2.273   1.300 -0.3514 -0.5163  0.8652
  118MOL    H2716641   1.606   2.339   1.286  0.4580 -1.1676  1.1324
  118MOL    H2816642   1.612   2.378   1.539 -0.5741 -2.1532  3.1836
  118MOL    H2916643   1.362   2.372   1.520 -2.2067 -2.4950 -1.3391
  118MOL    C3016644   1.594   2.162   1.501 -0.2390  0.7155 -0.3156
  118MOL    C3116645   1.672   2.137   1.636 -0.3367  0.2636  0.0619
  118MOL    O3216646   1.714   1.999   1.631 -0.2870 -0.2997  0.0302
  118MOL    H3316647   1.509   2.095   1.491  0.9325 -0.7712 -0.4192
  118MOL    H3416648   1.661   2.144   1.417 -0.2321  1.3214 -0.4432
  118MOL    H3516649   1.615   2.148   1.729 -0.4923  1.0140 -0.1176
  118MOL    H3616650   1.645   1.942   1.601  0.6996 -0.6985 -1.5817
  118MOL    C3716651   1.804   2.223   1.650  0.4617 -0.0136 -0.3195
  118MOL    C3816652   1.897   2.195   1.772  0.3379  0.0497  0.1494
  118MOL    O3916653   2.010   2.268   1.740  0.5731 -0.8878  0.9757
  118MOL    H4016654   1.862   2.203   1.561  2.5313  1.5739  0.6424
  118MOL    H4116655   1.790   2.331   1.645 -1.5484 -0.2596 -0.4690
  118MOL    H4216656   1.921   2.089   1.775 -1.2142 -0.2973  0.5586
  118MOL    H4316657   2.051   2.229   1.664 -1.3954 -0.3721 -0.3923
  118MOL    C4416658   1.843   2.247   1.909 -0.3775 -0.4590 -0.1831
  118MOL    C4516659   1.926   2.194   2.027 -0.6214  0.2180 -0.3693
  118MOL    O4616660   1.873   2.260   2.150 -0.2770  0.5912 -0.2457
  118MOL    H4716661   1.829   2.355   1.914  2.2737 -0.0427 -0.9416
  118MOL    H4816662   1.741   2.210   1.920 -0.8140  0.8740  0.3016
  118MOL    H4916663   2.029   2.230   2.019 -0.8330  0.3361 -2.8196
  118MOL    H5016664   1.936   2.230   2.213  2.0264  1.2666 -2.1754
  118MOL    C5116665   1.924   2.047   2.072 -0.7694  0.2646  0.1390
  118MOL    C5216666   2.041   2.013   2.167 -0.0163  0.4274 -0.5520
  118MOL    O5316667   2.057   2.103   2.275 -0.2496 -0.1716 -0.2615
  118MOL    H5416668   1.832   2.031   2.127  0.7818  0.0908  2.7705
  118MOL    H5516669   1.927   1.976   1.990 -2.9345 -0.4331  0.6409
  118MOL    H5616670   2.137   2.005   2.118 -0.2195  0.6148 -0.9850
  118MOL    H5716671   2.137   2.151   2.266 -1.1064  1.5518  0.9146
  118MOL    C5816672   2.031   1.876   2.245  0.1075 -0.0258  0.3842
  118MOL    C5916673   2.014   1.747   2.155  0.1049 -0.0790  0.6286
  118MOL    O6016674   2.133   1.672   2.175  0.3649  0.4615 -0.9879
  118MOL    H6116675   2.122   1.875   2.305  1.3231  1.1177 -1.4059
  118MOL    H6216676   1.950   1.894   2.316  1.0947  1.4453  1.1808
  118MOL    H6316677   2.010   1.778   2.051 -0.5445 -0.2745  0.5947
  118MOL    H6416678   2.152   1.642   2.088  0.1619 -2.7953  0.0149
  118MOL    C6516679   1.895   1.654   2.191  1.0295 -0.3373 -0.5477
  118MOL    C6616680   1.758   1.711   2.137 -0.5745 -0.2147  0.6239
  118MOL    O6716681   1.748   1.715   1.990 -0.2785  0.4152 -0.3594
  118MOL    H6816682   1.911   1.557   2.144 -2.6527 -0.6690 -1.2992
  118MOL    H6916683   1.894   1.639   2.299 -0.4563  1.2954 -0.2987
  118MOL    H7016684   1.742   1.815   2.165  0.3429  0.1508 -0.1555
  118MOL    H7116685   1.689   1.789   1.980  0.1362  0.7674 -0.2069
  118MOL    C7216686   1.639   1.641   2.191 -0.0969  0.7128 -0.1797
  118MOL    C7316687   1.594   1.671   2.335 -0.1340 -0.4658  0.2553
  118MOL    O7416688   1.551   1.802   2.351 -0.0407  0.1954 -0.3398
  118MOL    H7516689   1.555   1.671   2.129 -0.7997 -0.7392  0.0363
  118MOL    H7616690   1.665   1.536   2.177 -1.6308  0.0441  1.7160
  118MOL    H7716691   1.672   1.648   2.408 -0.7035  3.5566  2.2785
  118MOL    H7816692   1.467   1.801   2.307 -0.5381  0.7901  0.5688
  118MOL    C7916693   1.476   1.572   2.373  0.1786  0.6218  0.0555
  118MOL    C8016694   1.495   1.418   2.390 -0.0881 -0.6810 -0.1849
  118MOL    O8116695   1.591   1.396   2.489 -0.1869 -0.0703  0.2178
  118MOL    H8216696   1.438   1.594   2.473  2.1382 -3.5476  1.8388
  118MOL    H8316697   1.392   1.584   2.305  0.4553  2.0812 -0.0575
  118MOL    H8416698   1.541   1.373   2.302 -0.1412 -1.2694  0.0865
  118MOL    H8516699   1.549   1.381   2.572  0.7195 -1.6433  0.4091
  118MOL    C8616700   1.371   1.334   2.414 -0.2414 -0.0124 -0.2256
  118MOL    C8716701   1.402   1.186   2.378  0.3742  0.2310 -0.3265
  118MOL    O8816702   1.412   1.105   2.499 -0.3708  0.0985  0.2863
  118MOL    H8916703   1.328   1.352   2.512  0.2519  0.8665 -0.1707
  118MOL    H9016704   1.297   1.378   2.347  0.6257  0.1392 -1.0933
  118MOL    H9116705   1.498   1.161   2.334  0.7545  0.1856  0.5143
  118MOL    H9216706   1.502   1.104   2.528  0.3859 -0.0818 -1.9856
  118MOL    C9316707   1.282   1.113   2.315 -1.0110 -0.0763 -0.1333
  118MOL    C9416708   1.255   1.157   2.164 -0.1582 -0.0503 -0.6394
  118MOL    O9516709   1.368   1.122   2.090 -0.3442 -0.6197 -0.0022
  118MOL    H9616710   1.307   1.007   2.310 -0.8644 -0.1157  1.2203
  118MOL    H9716711   1.199   1.133   2.382 -1.9155 -2.1790 -0.5837
  118MOL    H9816712   1.230   1.263   2.156 -1.8994 -0.3723  0.3314
  118MOL    H9916713   1.398   1.038   2.121  0.3795  0.3257  1.9616
  118MOL   C10016714   1.132   1.076   2.118 -0.3332  0.5161 -0.5832
  118MOL   C10116715   1.047   1.148   2.010  0.7018  0.1037 -0.8023
  118MOL   O10216716   1.101   1.136   1.880  0.1621 -0.0598 -0.5675
  118MOL   H10316717   1.149   0.972   2.090  1.1508  0.7527 -0.6166
  118MOL   H10416718   1.066   1.068   2.204  2.1772 -2.3335  1.1777
  118MOL   H10516719   1.036   1.253   2.036 -2.4680 -1.3334  4.4283
  118MOL   H10616720   1.180   1.186   1.892 -1.4179  2.3878 -0.0311
  118MOL   C10716721   0.907   1.093   2.010 -0.0222  0.0723  0.1677
  118MOL   C10816722   0.812   1.145   2.118  0.2188  0.0113 -0.0277
  118MOL   O10916723   0.771   1.280   2.093 -0.6449 -0.1807 -0.1982
  118MOL   H11016724   0.856   1.107   1.914 -2.4165  2.4544  1.7256
  118MOL   H11116725   0.898   0.984   2.010  0.1981  0.0464  1.3476
  118MOL   H11216726   0.868   1.150   2.212  1.2420  2.9008 -0.7339
  118MOL   H11316727   0.807   1.329   2.166 -0.6097  0.7025 -0.8023
  118MOL   C11416728   0.689   1.059   2.126 -0.5491 -0.5651 -0.2078
  118MOL   C11516729   0.709   0.908   2.169  0.3688 -0.0631  0.2631
  118MOL   O11616730   0.805   0.899   2.269 -0.1443  0.1906  1.4308
  118MOL   H11716731   0.621   1.108   2.197  2.2391  0.9087  1.5288
  118MOL   H11816732   0.641   1.062   2.028  0.1165 -2.8297 -0.6363
  118MOL   H11916733   0.737   0.841   2.088 -1.9018 -2.5142  1.4472
  118MOL   H12016734   0.837   0.812   2.249 -0.0687  0.4754  0.2777
  118MOL   C12116735   0.579   0.843   2.229 -0.5206 -0.2205 -0.2663
  118MOL   C12216736   0.581   0.689   2.268  0.1147 -0.1014  0.2043
  118MOL   O12316737   0.473   0.664   2.353  0.4196 -0.9613 -0.4868
  118MOL   H12416738   0.563   0.896   2.323 -1.0566  1.3226 -1.2132
  118MOL   H12516739   0.491   0.875   2.173 -1.3497 -2.9670 -0.6073
  118MOL   H12616740   0.667   0.660   2.328  0.5758 -0.7165 -0.7380
  118MOL   H12716741   0.472   0.572   2.376 -1.7725 -0.9827 -0.5247
  118MOL   C12816742   0.586   0.584   2.154  1.1449 -0.0183 -0.7254
  118MOL   C12916743   0.510   0.616   2.022  0.6495  0.1032 -1.0342
  118MOL   O13016744   0.514   0.507   1.939  0.6984 -0.7144  0.4068
  118MOL   H13116745   0.692   0.574   2.127  1.8222 -0.8364  2.1229
  118MOL   H13216746   0.534   0.498   2.196 -0.3354  1.0521 -0.3311
  118MOL   H13316747   0.560   0.696   1.967 -0.0879 -0.7922 -3.0419
  118MOL   H13416748   0.508   0.547   1.854  1.8934  0.3640  0.8140
  118MOL   C13516749   0.365   0.669   2.028  0.2986 -0.5053  0.4028
  118MOL   C13616750   0.259   0.565   2.082 -0.1626  0.2854 -1.0158
  118MOL   O13716751   0.132   0.603   2.047 -0.2424  0.2532  0.2684
  118MOL   H13816752   0.346   0.754   2.094  0.4292  0.1595 -0.4152
  118MOL   H13916753   0.328   0.700   1.931  0.3072 -1.8226 -0.0366
  118MOL   H14016754   0.269   0.550   2.189  0.0638 -0.3173 -1.1196
  118MOL   H14116755   0.071   0.535   2.068  1.1044 -1.0022  0.2215
  118MOL   H14216756   0.281   0.472   2.030  0.9161  0.2789 -0.5552
  119MOL     C116757   4.664   5.482   4.408 -0.2593 -0.2182 -0.3198
  119MOL     C216758   4.631   5.412   4.540 -0.3471  0.8242 -0.2748
  119MOL     O316759   4.761   5.374   4.581 -0.3608  0.0074  0.2021
  119MOL     H416760   4.726   5.429   4.335 -0.2315  0.5817 -0.8817
  119MOL     H516761   4.721   5.573   4.427  0.9973 -1.2282  0.8031
  119MOL     H616762   4.575   5.321   4.515 -0.1067  0.0345  1.9410
  119MOL     H716763   4.765   5.283   4.605  2.2726  0.1405  0.4084
  119MOL     H816764   4.572   5.515   4.359 -1.8031 -1.4235  1.6797
  119MOL     C916765   4.560   5.505   4.639  0.4939 -0.9098  0.1652
  119MOL    C1016766   4.503   5.426   4.763  1.0539 -0.0967 -0.0281
  119MOL    O1116767   4.519   5.506   4.878 -0.4286 -0.2515 -0.1697
  119MOL    H1216768   4.622   5.585   4.679  0.6496  0.6383 -3.0131
  119MOL    H1316769   4.483   5.553   4.579  0.7595  0.4352  0.8693
  119MOL    H1416770   4.553   5.330   4.777 -2.0155 -1.3854  2.8541
  119MOL    H1516771   4.609   5.499   4.907 -0.1458 -2.5110 -1.4539
  119MOL    C1616772   4.354   5.393   4.753  0.4134 -0.7194  0.7241
  119MOL    C1716773   4.296   5.292   4.660 -0.4516 -0.4528 -0.4855
  119MOL    O1816774   4.332   5.156   4.697  0.3795 -0.9795  0.5588
  119MOL    H1916775   4.309   5.379   4.851  1.9653  0.3186  1.6006
  119MOL    H2016776   4.310   5.488   4.723  1.0744 -0.4466  0.6036
  119MOL    H2116777   4.329   5.312   4.557  0.0757 -0.4312 -0.3164
  119MOL    H2216778   4.351   5.153   4.789 -0.4463  1.8008  0.8795
  119MOL    C2316779   4.143   5.314   4.650  0.3698  0.2298  0.6471
  119MOL    C2416780   4.057   5.212   4.575  0.0510 -0.4219  0.3633
  119MOL    O2516781   3.916   5.252   4.589 -0.6383 -0.1367 -0.0540
  119MOL    H2616782   4.113   5.331   4.753  0.3063  0.9921  0.5019
  119MOL    H2716783   4.131   5.407   4.595  3.4029  0.1875 -0.1418
  119MOL    H2816784   4.068   5.114   4.621 -0.1194 -0.6053  0.0143
  119MOL    H2916785   3.892   5.254   4.681  0.1587  1.5602  0.1450
  119MOL    C3016786   4.083   5.196   4.424  0.0275 -0.2997 -0.0430
  119MOL    C3116787   3.970   5.111   4.355 -0.8598 -0.5071 -0.3751
  119MOL    O3216788   4.030   5.057   4.237 -0.2596 -0.0248 -0.5978
  119MOL    H3316789   4.118   5.287   4.375  0.9699 -1.0159 -0.7216
  119MOL    H3416790   4.177   5.141   4.420  1.5215  2.0270  1.3430
  119MOL    H3516791   3.896   5.187   4.332 -0.6485 -0.1162  0.2228
  119MOL    H3616792   4.124   5.052   4.248 -0.4029 -2.0851 -0.1643
  119MOL    C3716793   3.922   4.976   4.425 -0.2230  0.3315 -0.0117
  119MOL    C3816794   3.810   4.898   4.353 -0.0872  0.9475 -0.0243
  119MOL    O3916795   3.794   4.773   4.431  0.3996 -0.3027  0.3118
  119MOL    H4016796   4.008   4.911   4.441  0.5351  1.3548  0.1296
  119MOL    H4116797   3.873   5.002   4.519  2.0144 -0.0236  1.2772
  119MOL    H4216798   3.843   4.885   4.250  1.5050  0.7583  0.4949
  119MOL    H4316799   3.868   4.721   4.406  0.6664 -0.0415  0.5685
  119MOL    C4416800   3.671   4.969   4.362  0.2155  0.4546  0.6510
  119MOL    C4516801   3.646   5.046   4.228  0.0876 -0.2115 -0.2020
  119MOL    O4616802   3.646   4.955   4.119 -0.3356  0.2764  0.5158
  119MOL    H4716803   3.588   4.900   4.374  1.4645 -1.0181  1.0473
  119MOL    H4816804   3.660   5.034   4.449 -2.0473  1.4399 -0.3423
  119MOL    H4916805   3.725   5.119   4.215 -0.7142  0.4635 -1.2893
  119MOL    H5016806   3.663   4.869   4.156  2.3152  1.0859  1.3155
  119MOL    C5116807   3.512   5.128   4.233 -0.0785  0.5127  0.5060
  119MOL    C5216808   3.525   5.267   4.305  0.0789  0.2760 -0.8070
  119MOL    O5316809   3.613   5.349   4.226  0.2785  0.1914 -0.1351
  119MOL    H5416810   3.480   5.139   4.129 -0.5160 -0.7422  0.5100
  119MOL    H5516811   3.438   5.068   4.285 -0.7985 -0.0071 -1.0919
  119MOL    H5616812   3.564   5.257   4.407  0.2958 -0.0631 -0.9243
  119MOL    H5716813   3.649   5.416   4.283  2.9489  1.4312 -3.0845
  119MOL    C5816814   3.395   5.356   4.315  0.6508 -0.7979 -0.8132
  119MOL    C5916815   3.305   5.339   4.444  0.1829 -0.6174  0.1006
  119MOL    O6016816   3.371   5.391   4.559 -0.0255 -0.0217 -0.2023
  119MOL    H6116817   3.409   5.462   4.295  1.3965 -1.0579 -1.6883
  119MOL    H6216818   3.334   5.328   4.229 -0.1963 -0.9876 -0.1585
  119MOL    H6316819   3.297   5.231   4.449  0.7936 -0.6063  1.2790
  119MOL    H6416820   3.347   5.482   4.570 -1.7869 -0.2487 -1.8395
  119MOL    C6516821   3.165   5.402   4.418  0.1782 -0.2934 -0.0844
  119MOL    C6616822   3.068   5.416   4.538 -0.5451  0.5807  0.0312
  119MOL    O6716823   2.948   5.474   4.492  0.3721 -0.5081  0.4317
  119MOL    H6816824   3.180   5.502   4.376  0.8113 -0.7630 -0.9838
  119MOL    H6916825   3.111   5.354   4.337 -2.2437  1.5463  0.3780
  119MOL    H7016826   3.109   5.484   4.613  0.3604  0.3332 -0.2310
  119MOL    H7116827   2.918   5.528   4.563  0.9948 -0.9625  1.0501
  119MOL    C7216828   3.039   5.282   4.615 -0.5336 -0.3272 -0.5856
  119MOL    C7316829   2.946   5.309   4.732  0.5164  0.1696 -0.5295
  119MOL    O7416830   2.899   5.186   4.787  0.0334  0.0760 -0.5083
  119MOL    H7516831   3.017   5.200   4.546  4.4518 -2.7044  0.4075
  119MOL    H7616832   3.131   5.240   4.655 -1.4646 -2.6504 -0.8168
  119MOL    H7716833   2.852   5.359   4.704 -0.1859 -0.7457  0.1702
  119MOL    H7816834   2.876   5.202   4.877  1.9121  3.2352 -0.5090
  119MOL    C7916835   3.005   5.394   4.850  0.4084  0.1158  0.3523
  119MOL    C8016836   2.895   5.428   4.957 -0.6728 -0.0632  0.0162
  119MOL    O8116837   2.863   5.305   5.018 -1.3167 -0.1847  0.1701
  119MOL    H8216838   3.090   5.338   4.890 -1.1380 -1.6728  1.1988
  119MOL    H8316839   3.047   5.488   4.814  0.4089  0.5306  1.4263
  119MOL    H8416840   2.809   5.472   4.906  0.8104  2.0622 -0.7392
  119MOL    H8516841   2.931   5.291   5.083  0.5920  1.6833 -1.3338
  119MOL    C8616842   2.934   5.524   5.069 -0.5616  0.1135 -0.4299
  119MOL    C8716843   2.980   5.663   5.021  0.3622  0.3330  0.2953
  119MOL    O8816844   2.866   5.732   4.968 -0.4033 -0.5246  0.7400
  119MOL    H8916845   2.846   5.547   5.129  0.1365  1.7152  0.0129
  119MOL    H9016846   3.014   5.480   5.128 -0.4875  0.9313  0.0848
  119MOL    H9116847   3.052   5.652   4.940 -0.4268  0.3687 -0.4268
  119MOL    H9216848   2.873   5.729   4.874 -0.5443  2.6728  0.5675
  119MOL    C9316849   3.043   5.765   5.126  0.5455 -0.3851  0.5976
  119MOL    C9416850   3.178   5.721   5.189 -0.5993 -0.1876  0.3906
  119MOL    O9516851   3.163   5.603   5.263  0.6113 -0.8248 -0.5945
  119MOL    H9616852   3.054   5.864   5.083  1.2609 -0.5888  0.2883
  119MOL    H9716853   2.974   5.793   5.205 -1.6392 -2.1450 -0.6294
  119MOL    H9816854   3.207   5.796   5.262 -1.2741 -0.8504  1.3594
  119MOL    H9916855   3.236   5.543   5.252  0.4957 -1.1165  0.2180
  119MOL   C10016856   3.295   5.699   5.087  0.5019 -0.3170 -0.6107
  119MOL   C10116857   3.431   5.684   5.156  0.0274 -0.0596 -0.4939
  119MOL   O10216858   3.428   5.554   5.221 -0.5765  0.3023  0.1468
  119MOL   H10316859   3.280   5.608   5.030 -0.6404  0.1913 -1.1409
  119MOL   H10416860   3.287   5.779   5.014  1.8565  0.0830 -0.3283
  119MOL   H10516861   3.450   5.756   5.236 -2.0477  1.9578 -1.7630
  119MOL   H10616862   3.508   5.548   5.270 -1.0565  2.3505  1.2668
  119MOL   C10716863   3.543   5.662   5.055 -0.2412 -0.0606  0.3976
  119MOL   C10816864   3.623   5.793   5.032  0.4845  0.1076  0.0906
  119MOL   O10916865   3.757   5.769   5.012  0.0178  0.1194  0.2913
  119MOL   H11016866   3.620   5.598   5.098  0.8390 -0.2539 -1.7466
  119MOL   H11116867   3.511   5.620   4.959 -0.6610  1.6902 -0.2474
  119MOL   H11216868   3.628   5.861   5.116 -1.3675  1.7370 -1.0831
  119MOL   H11316869   3.803   5.839   5.054 -2.6467  0.5238  2.6816
  119MOL   C11416870   3.566   5.884   4.921  0.2499 -0.5048  0.2159
  119MOL   C11516871   3.648   6.004   4.875 -0.1210 -0.4146  0.0572
  119MOL   O11616872   3.548   6.066   4.797  0.5029 -0.3103 -0.1240
  119MOL   H11716873   3.546   5.822   4.833  1.3848 -1.3896  0.5575
  119MOL   H11816874   3.465   5.911   4.951  0.9840  2.6651 -0.0858
  119MOL   H11916875   3.722   5.976   4.801  1.2063  0.9993  0.8338
  119MOL   H12016876   3.551   6.025   4.712  1.1089  0.8670 -0.6891
  119MOL   C12116877   3.686   6.110   4.978 -0.8950  0.5939  0.1650
  119MOL   C12216878   3.751   6.241   4.916 -0.2987 -0.5973  0.1758
  119MOL   O12316879   3.744   6.340   5.009  0.3803 -0.2252 -0.3555
  119MOL   H12416880   3.591   6.136   5.024 -1.5017 -0.8504 -0.2510
  119MOL   H12516881   3.758   6.060   5.043  0.3082 -0.3543 -1.8364
  119MOL   H12616882   3.690   6.267   4.829  1.0018  2.1640  0.0328
  119MOL   H12716883   3.660   6.327   5.050  1.3877  0.1030  1.9250
  119MOL   C12816884   3.893   6.236   4.882 -0.5976 -0.5013 -0.4214
  119MOL   C12916885   3.987   6.162   4.972  0.4028 -0.1735  0.2515
  119MOL   O13016886   3.986   6.015   4.954 -0.3144 -0.1901  0.0642
  119MOL   H13116887   3.908   6.191   4.783  2.5648  0.5422 -0.4803
  119MOL   H13216888   3.934   6.337   4.872  0.0846 -0.8276 -0.9668
  119MOL   H13316889   3.953   6.184   5.073 -0.3974 -1.8585  0.3627
  119MOL   H13416890   4.043   5.988   4.883 -0.4427  0.1670 -0.1713
  119MOL   C13516891   4.135   6.196   4.972  0.0520  0.5049 -0.0750
  119MOL   C13616892   4.172   6.343   5.004 -0.3297  0.9963  0.1448
  119MOL   O13716893   4.292   6.362   5.079  0.4678 -0.2441 -0.7727
  119MOL   H13816894   4.180   6.131   5.048 -0.9540 -0.1112 -0.0050
  119MOL   H13916895   4.176   6.163   4.877 -0.0184  0.8315 -0.2203
  119MOL   H14016896   4.099   6.389   5.070 -2.2672 -1.6015 -0.1097
  119MOL   H14116897   4.256   6.371   5.166  1.4610  2.4376 -0.6106
  119MOL   H14216898   4.168   6.416   4.923  0.6254  2.0112  0.9881
  120MOL     C116899   0.847   3.358   6.004  0.1247 -0.1829  0.3577
  120MOL     C216900   0.836   3.491   5.928 -0.1966 -0.5660  0.2855
  120MOL     O316901   0.914   3.587   5.985 -0.4575 -0.1694 -0.0097
  120MOL     H416902   0.757   3.298   5.994  1.4369 -2.1143 -0.2512
  120MOL     H516903   0.856   3.377   6.111  0.1924 -1.9632  0.6985
  120MOL     H616904   0.738   3.536   5.942 -0.7766 -2.0609  1.1336
  120MOL     H716905   1.001   3.552   5.971  0.9153  2.0089  2.4108
  120MOL     H816906   0.935   3.301   5.973 -0.2914 -1.6277  1.7488
  120MOL     C916907   0.872   3.472   5.774  0.2973  0.7392 -0.0202
  120MOL    C1016908   0.777   3.398   5.672 -0.5209 -0.0440 -0.4127
  120MOL    O1116909   0.783   3.256   5.692  0.0862  0.2923  0.0729
  120MOL    H1216910   0.894   3.571   5.734  2.2979  0.1811 -0.3572
  120MOL    H1316911   0.975   3.437   5.774 -0.3746 -1.2986  0.4382
  120MOL    H1416912   0.815   3.423   5.573 -0.9490 -1.0423 -0.8291
  120MOL    H1516913   0.867   3.223   5.666 -0.0443 -0.2126  0.2764
  120MOL    C1616914   0.630   3.453   5.678 -0.9877 -0.0272  0.0680
  120MOL    C1716915   0.628   3.609   5.656 -0.3272  0.2213  0.5272
  120MOL    O1816916   0.659   3.646   5.520  0.6877 -0.1301 -0.2239
  120MOL    H1916917   0.569   3.405   5.601 -0.6704  0.5744 -0.5685
  120MOL    H2016918   0.589   3.426   5.775  1.3288  0.4360  1.2085
  120MOL    H2116919   0.697   3.663   5.720  0.9847 -1.6051  0.6748
  120MOL    H2216920   0.728   3.588   5.494 -0.6342 -2.4568  1.2912
  120MOL    C2316921   0.483   3.665   5.677  0.0169  0.4259  0.0239
  120MOL    C2416922   0.449   3.818   5.673 -0.2851 -0.0042  0.5266
  120MOL    O2516923   0.309   3.838   5.654  0.3599 -0.1291 -0.3599
  120MOL    H2616924   0.411   3.627   5.605  0.7150  1.6752 -1.3564
  120MOL    H2716925   0.455   3.620   5.772  0.1296 -0.2493 -0.2644
  120MOL    H2816926   0.492   3.851   5.578  1.8879 -3.0450  0.3721
  120MOL    H2916927   0.293   3.857   5.563  0.2351  0.1629 -0.2762
  120MOL    C3016928   0.504   3.884   5.799 -0.3266 -0.2148  0.3193
  120MOL    C3116929   0.511   4.037   5.801 -0.1863  0.0517 -0.4582
  120MOL    O3216930   0.511   4.094   5.934  0.9062 -0.7268 -0.7116
  120MOL    H3316931   0.436   3.849   5.877 -0.9701  3.3736  1.4608
  120MOL    H3416932   0.601   3.844   5.826 -0.2528 -0.6457 -0.5877
  120MOL    H3516933   0.416   4.062   5.754 -0.1792  0.3794 -0.2992
  120MOL    H3616934   0.515   4.029   6.002 -1.1712  1.7336  1.8757
  120MOL    C3716935   0.620   4.095   5.718  0.2421 -0.0873  0.1693
  120MOL    C3816936   0.576   4.138   5.575 -0.0020 -1.0677 -0.3149
  120MOL    O3916937   0.535   4.269   5.572 -0.1466 -0.0951 -0.0448
  120MOL    H4016938   0.643   4.184   5.775  0.5491  1.5671 -2.4667
  120MOL    H4116939   0.703   4.024   5.718 -0.2725 -0.7024  0.4892
  120MOL    H4216940   0.492   4.075   5.547 -0.1185 -1.6377  1.2688
  120MOL    H4316941   0.455   4.271   5.622  0.4951 -2.6687  1.1682
  120MOL    C4416942   0.701   4.131   5.478 -0.1912 -0.7472 -0.2495
  120MOL    C4516943   0.730   3.984   5.433 -0.4061  1.3021 -0.1971
  120MOL    O4616944   0.628   3.952   5.345  0.2920  0.2916  0.1985
  120MOL    H4716945   0.670   4.178   5.384  0.9992 -1.2198 -0.8849
  120MOL    H4816946   0.783   4.185   5.525  0.0647 -0.6308 -0.8300
  120MOL    H4916947   0.723   3.908   5.511 -1.5802  0.7655 -0.8203
  120MOL    H5016948   0.576   3.877   5.371  0.7833  0.5893  2.1298
  120MOL    C5116949   0.865   3.965   5.361  0.1770  0.1372  0.7601
  120MOL    C5216950   0.985   3.984   5.459 -0.6541 -0.0054 -0.4154
  120MOL    O5316951   0.972   3.896   5.574  0.2247  0.1394  0.3871
  120MOL    H5416952   0.872   3.862   5.326 -1.9724  0.0426  0.5557
  120MOL    H5516953   0.874   4.038   5.281  1.6223 -0.6110  0.2313
  120MOL    H5616954   0.990   4.082   5.505  0.5564 -1.4268  2.6502
  120MOL    H5716955   1.042   3.916   5.634 -0.3852  1.7104  0.6011
  120MOL    C5816956   1.123   3.966   5.390  0.5573  0.0610 -1.2147
  120MOL    C5916957   1.163   4.056   5.283  0.1362  0.1996 -0.1307
  120MOL    O6016958   1.194   4.181   5.344 -0.0846 -0.0497  0.1933
  120MOL    H6116959   1.195   3.963   5.472 -1.5488  1.0618  0.7044
  120MOL    H6216960   1.123   3.864   5.352  3.1419 -1.5261  2.6426
  120MOL    H6316961   1.093   4.083   5.203  2.8537 -1.0534 -3.0313
  120MOL    H6416962   1.139   4.248   5.307  0.0448 -0.2147 -0.2946
  120MOL    C6516963   1.292   4.015   5.213  0.6731 -0.0772 -0.4708
  120MOL    C6616964   1.294   3.891   5.128 -0.4768  0.0686 -0.7120
  120MOL    O6716965   1.214   3.917   5.011 -0.5605  0.4582  0.4349
  120MOL    H6816966   1.321   4.105   5.159 -2.0086  1.8395  1.1692
  120MOL    H6916967   1.369   4.007   5.290  0.5431  1.2236 -0.1969
  120MOL    H7016968   1.255   3.804   5.181 -0.0988  0.8250  0.8162
  120MOL    H7116969   1.180   3.837   4.973 -0.5291 -0.5886  2.5574
  120MOL    C7216970   1.441   3.864   5.088  0.4970 -0.0434  0.3247
  120MOL    C7316971   1.471   3.759   4.975  1.0074 -0.7034 -0.6173
  120MOL    O7416972   1.607   3.776   4.938  0.3813 -0.1840  0.1746
  120MOL    H7516973   1.470   3.964   5.054  1.8819 -0.3593  0.5316
  120MOL    H7616974   1.501   3.848   5.177  1.0916 -1.5975 -0.3357
  120MOL    H7716975   1.423   3.781   4.879 -2.3127 -2.0619  0.6779
  120MOL    H7816976   1.603   3.863   4.903  0.2220 -0.6020 -0.8689
  120MOL    C7916977   1.473   3.611   5.025  0.1899  0.2476  0.0965
  120MOL    C8016978   1.418   3.514   4.922 -0.5841  0.1772 -0.6483
  120MOL    O8116979   1.494   3.389   4.922  0.4878 -0.4144 -0.2766
  120MOL    H8216980   1.571   3.574   5.055 -0.1773 -0.7862  0.0410
  120MOL    H8316981   1.417   3.610   5.119 -1.2906  0.3647 -0.7625
  120MOL    H8416982   1.440   3.562   4.827  1.6608 -1.6315 -1.0868
  120MOL    H8516983   1.467   3.347   4.842 -1.3608 -0.0609  0.1547
  120MOL    C8616984   1.271   3.474   4.943  0.3352  0.2757  0.1023
  120MOL    C8716985   1.169   3.585   4.968 -0.3476 -1.0177 -0.1386
  120MOL    O8816986   1.163   3.675   4.859 -0.0758  0.5866  0.9366
  120MOL    H8916987   1.237   3.407   4.863  1.5996  0.8054 -0.8962
  120MOL    H9016988   1.257   3.415   5.034 -1.3696  0.9359  0.2842
  120MOL    H9116989   1.202   3.635   5.059  1.0678 -0.9655 -0.6727
  120MOL    H9216990   1.074   3.706   4.858 -0.3206 -0.0966  0.9580
  120MOL    C9316991   1.022   3.526   4.995  1.4410  0.9750 -0.5058
  120MOL    C9416992   0.930   3.631   5.064  0.0570 -0.7576 -0.7528
  120MOL    O9516993   0.912   3.735   4.969 -0.3184 -0.4609 -0.0306
  120MOL    H9616994   0.980   3.500   4.898  1.3463  0.9824 -0.4672
  120MOL    H9716995   1.023   3.436   5.056  1.4540 -0.2886 -2.3261
  120MOL    H9816996   0.966   3.676   5.157  1.0584 -3.2674  0.1110
  120MOL    H9916997   0.867   3.806   5.013  0.2953 -0.2122  0.2005
  120MOL   C10016998   0.789   3.591   5.115  0.1501  0.8564  0.1836
  120MOL   C10116999   0.778   3.474   5.220 -0.4181  0.2307  0.0386
  120MOL   O10217000   0.843   3.537   5.332 -1.3942  0.4825  0.4000
  120MOL   H10317001   0.739   3.679   5.155 -0.4517  0.8743 -0.6018
  120MOL   H10417002   0.723   3.568   5.032 -0.1634  4.7791 -0.7303
  120MOL   H10517003   0.833   3.381   5.200 -2.7551 -0.9682 -0.9757
  120MOL   H10617004   0.932   3.508   5.343 -1.2850  1.5634  2.9535
  120MOL   C10717005   0.638   3.434   5.254  0.3904 -0.0960  0.5591
  120MOL   C10817006   0.562   3.349   5.157  0.4798 -0.0071 -0.2731
  120MOL   O10917007   0.645   3.236   5.136 -0.3595 -0.2063  0.3234
  120MOL   H11017008   0.627   3.378   5.347 -0.5945  1.0798  1.1702
  120MOL   H11117009   0.579   3.523   5.275  0.9364  0.0613  1.4549
  120MOL   H11217010   0.553   3.398   5.060  0.4754 -3.2786 -1.9899
  120MOL   H11317011   0.702   3.254   5.062  1.6980 -0.7285  1.7220
  120MOL   C11417012   0.418   3.306   5.209  0.4968  0.4912 -0.2389
  120MOL   C11517013   0.321   3.418   5.249 -0.0407 -0.1285 -0.0791
  120MOL   O11617014   0.305   3.504   5.143  0.0021 -0.1169 -0.0762
  120MOL   H11717015   0.367   3.251   5.129  2.6094 -1.7249 -0.1102
  120MOL   H11817016   0.427   3.236   5.292 -0.8592 -2.3816 -2.3906
  120MOL   H11917017   0.369   3.480   5.324 -0.6595  0.7749 -0.4162
  120MOL   H12017018   0.275   3.453   5.070  0.7952 -1.1215  0.2900
  120MOL   C12117019   0.185   3.364   5.287 -0.0162 -0.0140 -1.1201
  120MOL   C12217020   0.177   3.254   5.399 -0.2659 -0.1000  0.1059
  120MOL   O12317021   0.274   3.279   5.498 -0.5604  0.0067  0.2080
  120MOL   H12417022   0.126   3.454   5.306 -1.3068 -1.1055  0.1681
  120MOL   H12517023   0.140   3.326   5.195 -1.1709 -1.3189 -0.0568
  120MOL   H12617024   0.204   3.154   5.364 -1.9783 -0.9223  1.0188
  120MOL   H12717025   0.300   3.191   5.522 -1.3048 -0.6586 -1.3524
  120MOL   C12817026   0.037   3.245   5.465  0.0534 -0.4793  0.1288
  120MOL   C12917027   7.439   3.238   5.364  0.2198 -0.3285 -0.0176
  120MOL   O13017028   7.422   3.102   5.328 -0.7378 -0.2044 -0.6416
  120MOL   H13117029   0.042   3.155   5.527  2.2630  0.6579  1.6930
  120MOL   H13217030   0.039   3.326   5.537  1.0669  0.0063 -0.4332
  120MOL   H13317031   7.439   3.299   5.274  0.9533 -0.1050  0.1324
  120MOL   H13417032   7.418   3.051   5.407 -0.4452 -2.6974 -2.1568
  120MOL   C13517033   7.301   3.275   5.425 -0.0303  0.0482 -0.0684
  120MOL   C13617034   7.272   3.423   5.410 -0.3114  0.4842 -0.1847
  120MOL   O13717035   7.139   3.465   5.436  0.1333 -0.2477 -0.0365
  120MOL   H13817036   7.229   3.211   5.374  2.6519 -1.6291 -1.8325
  120MOL   H13917037   7.281   3.235   5.525  2.4424 -0.2421  0.3419
  120MOL   H14017038   7.291   3.442   5.305  1.1688 -3.3624 -0.6798
  120MOL   H14117039   7.088   3.385   5.425  1.8964 -1.7395  2.2605
  120MOL   H14217040   7.341   3.485   5.468 -1.4977  1.0821  0.6065
  121MOL     C117041   1.542   4.833   6.052  0.5426 -0.5757  0.5615
  121MOL     C217042   1.504   4.964   6.126  1.1275 -0.3287 -0.5207
  121MOL     O317043   1.360   4.970   6.107 -0.3317 -0.1113  0.4822
  121MOL     H417044   1.505   4.745   6.104 -1.5520 -0.2222 -0.3146
  121MOL     H517045   1.647   4.827   6.023 -0.0286 -2.5099 -1.1801
  121MOL     H617046   1.549   5.047   6.072  0.5009  0.6850  0.5022
  121MOL     H717047   1.324   5.048   6.146 -0.8602  0.2788 -0.7641
  121MOL     H817048   1.492   4.831   5.956 -0.1009 -0.7290  0.8973
  121MOL     C917049   1.553   4.953   6.271  0.1020  0.1456  0.1013
  121MOL    C1017050   1.702   4.968   6.288 -0.1006 -0.3254 -0.2985
  121MOL    O1117051   1.724   5.060   6.396  0.6226 -0.0155 -0.1905
  121MOL    H1217052   1.500   5.027   6.331  0.1831 -0.3646  0.8078
  121MOL    H1317053   1.521   4.861   6.319  2.1880 -0.9715 -0.5768
  121MOL    H1417054   1.743   5.005   6.195 -0.1687  0.6742  0.0643
  121MOL    H1517055   1.681   5.026   6.473  1.4481 -0.9415 -0.1244
  121MOL    C1617056   1.773   4.832   6.317  0.3726 -1.3020  0.4912
  121MOL    C1717057   1.936   4.836   6.302  0.2042 -0.0049  0.2989
  121MOL    O1817058   1.970   4.712   6.365 -0.0203  0.5019  0.0016
  121MOL    H1917059   1.740   4.790   6.412 -0.4662  0.4270  0.9813
  121MOL    H2017060   1.737   4.762   6.241 -1.1491  0.7720 -0.7322
  121MOL    H2117061   1.976   4.920   6.360 -0.4910  0.6247 -0.1170
  121MOL    H2217062   1.947   4.714   6.457 -1.6080  0.4098 -0.3830
  121MOL    C2317063   1.981   4.836   6.160 -0.6877  0.6807  0.7592
  121MOL    C2417064   2.132   4.854   6.111  0.3564  0.1975 -0.1870
  121MOL    O2517065   2.121   4.863   5.969  0.0393 -0.5147  0.2548
  121MOL    H2617066   1.946   4.746   6.111  2.8122 -1.3490  1.7840
  121MOL    H2717067   1.930   4.922   6.116 -2.8577 -1.2431 -0.5234
  121MOL    H2817068   2.174   4.754   6.128  1.3782  0.1173 -2.9811
  121MOL    H2917069   2.207   4.862   5.929 -0.8763  0.1279 -1.7599
  121MOL    C3017070   2.211   4.969   6.177 -0.2967 -0.8788 -0.1785
  121MOL    C3117071   2.320   4.923   6.283  0.5786  0.2919  1.0782
  121MOL    O3217072   2.353   5.049   6.343  0.0751  0.0402 -0.5676
  121MOL    H3317073   2.265   5.028   6.103 -0.9599 -1.9979 -1.5729
  121MOL    H3417074   2.143   5.041   6.222 -0.3852 -1.7097  1.0256
  121MOL    H3517075   2.410   4.886   6.234 -0.1042  0.6757 -0.4670
  121MOL    H3617076   2.333   5.055   6.435  0.1666 -2.1278 -0.3752
  121MOL    C3717077   2.276   4.823   6.392 -1.0607  0.5250  0.2860
  121MOL    C3817078   2.393   4.758   6.469 -0.0591 -0.1759 -0.8888
  121MOL    O3917079   2.331   4.653   6.541  0.4094  0.0647 -0.2246
  121MOL    H4017080   2.195   4.861   6.454 -0.5703  0.3707  1.0229
  121MOL    H4117081   2.234   4.735   6.343  2.0743 -0.8631 -0.0086
  121MOL    H4217082   2.421   4.836   6.540 -0.0190  1.8020 -3.0344
  121MOL    H4317083   2.303   4.685   6.625 -2.8893  0.2865 -1.3449
  121MOL    C4417084   2.514   4.701   6.387  0.1646 -0.1820  0.1515
  121MOL    C4517085   2.473   4.605   6.269 -0.2294 -0.1877  0.6237
  121MOL    O4617086   2.588   4.591   6.186 -0.0247 -0.4239 -0.2570
  121MOL    H4717087   2.581   4.777   6.348 -0.9065  1.7054  1.9115
  121MOL    H4817088   2.584   4.648   6.452 -1.3816 -1.5514  0.7385
  121MOL    H4917089   2.393   4.653   6.213 -2.3928 -0.9917  2.9182
  121MOL    H5017090   2.608   4.673   6.144  2.0483  0.7172  2.8151
  121MOL    C5117091   2.435   4.462   6.316 -0.1357 -0.0024 -0.6822
  121MOL    C5217092   2.361   4.380   6.209 -0.1275  0.2832 -0.3591
  121MOL    O5317093   2.395   4.238   6.221 -0.7336  0.1868 -0.0255
  121MOL    H5417094   2.523   4.412   6.356 -1.7998 -0.8800  1.9636
  121MOL    H5517095   2.360   4.475   6.394 -0.5915 -0.8508 -0.9714
  121MOL    H5617096   2.399   4.407   6.110  1.7263 -2.2852 -0.3901
  121MOL    H5717097   2.371   4.210   6.308  0.4036 -1.2871 -0.1774
  121MOL    C5817098   2.210   4.400   6.205  0.3531 -0.5564 -0.3672
  121MOL    C5917099   2.140   4.372   6.068  0.3902  0.4323 -0.2281
  121MOL    O6017100   2.151   4.236   6.049 -0.4493  0.1523  0.0554
  121MOL    H6117101   2.170   4.354   6.295 -1.4419  0.5125 -0.5789
  121MOL    H6217102   2.194   4.508   6.213 -0.0512 -0.7285  1.2903
  121MOL    H6317103   2.188   4.435   5.993  1.1867 -0.2119 -0.2596
  121MOL    H6417104   2.233   4.218   6.090  0.6080  1.7909 -1.2641
  121MOL    C6517105   1.986   4.399   6.075 -0.0106 -0.7895 -0.2219
  121MOL    C6617106   1.896   4.393   5.945  0.1205  0.7158  0.2468
  121MOL    O6717107   1.838   4.255   5.939  0.3683  0.4432  0.0249
  121MOL    H6817108   1.946   4.327   6.146 -4.4043  1.9347  0.2460
  121MOL    H6917109   1.982   4.495   6.127 -0.9721 -2.0409  2.0639
  121MOL    H7017110   1.959   4.397   5.856  0.1515 -1.1266  0.1686
  121MOL    H7117111   1.766   4.253   6.000  0.8893  1.7775  0.7018
  121MOL    C7217112   1.799   4.513   5.931 -0.4494 -0.2975 -0.1083
  121MOL    C7317113   1.695   4.501   5.818  0.1888 -0.5927  0.2483
  121MOL    O7417114   1.570   4.470   5.871 -0.0273 -0.1006 -0.0720
  121MOL    H7517115   1.753   4.522   6.029 -1.0302 -3.1236 -0.0567
  121MOL    H7617116   1.859   4.604   5.934 -0.0886 -0.5529  0.5721
  121MOL    H7717117   1.718   4.416   5.754 -1.7761 -0.1282 -1.1021
  121MOL    H7817118   1.584   4.396   5.927 -1.2412 -0.6618 -0.4964
  121MOL    C7917119   1.690   4.622   5.728 -0.4953 -0.0314 -0.5010
  121MOL    C8017120   1.812   4.630   5.629  0.2692  0.2499 -0.4111
  121MOL    O8117121   1.764   4.669   5.502  0.3728 -0.1413 -0.0993
  121MOL    H8217122   1.606   4.606   5.660 -0.2949 -0.9523 -0.5368
  121MOL    H8317123   1.676   4.708   5.793  2.9128  0.3389 -0.1435
  121MOL    H8417124   1.862   4.534   5.625  1.0347  0.4744  2.7105
  121MOL    H8517125   1.757   4.596   5.443  2.3770  1.4087 -2.3823
  121MOL    C8617126   1.927   4.725   5.673  0.2726 -0.3106  0.3869
  121MOL    C8717127   1.874   4.863   5.721 -0.2599  0.4895  0.1653
  121MOL    O8817128   1.869   4.868   5.864  0.0918 -0.4776 -0.1692
  121MOL    H8917129   1.985   4.678   5.753  0.6432 -0.5592 -0.0285
  121MOL    H9017130   2.006   4.740   5.600 -0.4453  0.7281 -0.1891
  121MOL    H9117131   1.771   4.854   5.685  0.4674  0.9773 -2.1159
  121MOL    H9217132   1.959   4.872   5.893  0.6452 -0.1706 -1.9004
  121MOL    C9317133   1.954   4.988   5.674  0.0026 -0.0668  0.8530
  121MOL    C9417134   1.877   5.116   5.684  0.2959 -0.1926 -0.2013
  121MOL    O9517135   1.963   5.223   5.646  0.2303 -0.1335 -0.4005
  121MOL    H9617136   2.045   4.999   5.733  0.2265 -2.8186  1.1244
  121MOL    H9717137   1.996   4.987   5.573  1.5131  1.2548  1.4533
  121MOL    H9817138   1.848   5.126   5.789 -0.0903  0.1585 -0.3378
  121MOL    H9917139   2.007   5.259   5.721  2.3939 -1.8368 -0.7949
  121MOL   C10017140   1.744   5.134   5.608 -0.1640 -0.2174 -0.5264
  121MOL   C10117141   1.743   5.106   5.459  0.3464  0.3342 -0.1230
  121MOL   O10217142   1.617   5.068   5.415 -0.6973 -0.2228  0.2612
  121MOL   H10317143   1.674   5.071   5.663  0.5841  0.6035  1.4139
  121MOL   H10417144   1.713   5.236   5.627  3.0500  0.7655 -0.2484
  121MOL   H10517145   1.800   5.017   5.433 -0.3877 -0.1491 -0.0894
  121MOL   H10617146   1.582   5.009   5.481  0.8662  0.7431  2.0166
  121MOL   C10717147   1.793   5.226   5.371 -0.1864 -0.9890 -0.0011
  121MOL   C10817148   1.801   5.174   5.227 -0.2064 -0.4879  0.1808
  121MOL   O10917149   1.680   5.145   5.159  0.1466 -0.1405 -0.4548
  121MOL   H11017150   1.722   5.308   5.378 -1.2420 -2.0415  2.2345
  121MOL   H11117151   1.890   5.266   5.402 -0.2657 -0.0036 -0.9962
  121MOL   H11217152   1.862   5.084   5.220 -1.5167 -1.5145  1.5078
  121MOL   H11317153   1.629   5.099   5.223 -0.8796  1.2691 -0.2537
  121MOL   C11417154   1.863   5.272   5.126 -0.9338  1.0794  0.1646
  121MOL   C11517155   2.007   5.310   5.149  0.0437  0.3129 -0.5409
  121MOL   O11617156   2.084   5.193   5.133 -0.4694 -0.7472  0.2689
  121MOL   H11717157   1.855   5.245   5.021  2.1980  2.4851 -0.4928
  121MOL   H11817158   1.811   5.368   5.135 -0.8036  1.1788 -0.1425
  121MOL   H11917159   2.015   5.340   5.253  2.8814  1.2942 -0.9931
  121MOL   H12017160   2.163   5.226   5.094 -0.8434  0.8396  0.7863
  121MOL   C12117161   2.070   5.424   5.054 -0.0503  0.1582 -0.4667
  121MOL   C12217162   2.004   5.562   5.062 -0.0888 -0.4935 -0.3213
  121MOL   O12317163   2.051   5.633   5.175 -0.3977 -0.0965  0.1023
  121MOL   H12417164   2.177   5.424   5.073  0.1299  0.1401 -1.4664
  121MOL   H12517165   2.062   5.390   4.951  0.5529  0.5323 -0.6406
  121MOL   H12617166   1.899   5.549   5.088  0.5564 -1.3768  1.9945
  121MOL   H12717167   1.983   5.697   5.192 -1.2249 -0.9817  0.2180
  121MOL   C12817168   2.024   5.648   4.931  0.5576 -0.5425 -0.4459
  121MOL   C12917169   1.934   5.631   4.805 -0.0069  0.8506 -0.1864
  121MOL   O13017170   1.800   5.636   4.845  0.0894  0.1304 -0.4480
  121MOL   H13117171   2.012   5.751   4.963  2.4654 -0.0516 -1.2581
  121MOL   H13217172   2.129   5.650   4.903  0.3673  1.2567 -1.1274
  121MOL   H13317173   1.953   5.532   4.764  2.7662  0.4149  1.9971
  121MOL   H13417174   1.790   5.712   4.900  2.2391  0.5159 -0.5456
  121MOL   C13517175   1.961   5.740   4.698 -0.3174  0.5931  0.2010
  121MOL   C13617176   1.897   5.697   4.559 -0.0736 -0.2842 -0.4738
  121MOL   O13717177   1.924   5.782   4.451 -0.4737 -0.2250 -0.1415
  121MOL   H13817178   1.927   5.841   4.721 -1.0894  0.5373 -0.7019
  121MOL   H13917179   2.069   5.742   4.681 -0.4275 -0.4800 -0.6454
  121MOL   H14017180   1.788   5.690   4.571 -0.3127  0.8191 -1.9071
  121MOL   H14117181   1.919   5.726   4.375  2.3886 -0.2488 -0.3582
  121MOL   H14217182   1.931   5.599   4.528  1.2035  0.3293 -1.0214
  122MOL     C117183   1.787   0.972   0.055 -0.1585 -0.8458  0.1223
  122MOL     C217184   1.764   1.072   0.159  0.2468 -0.3252 -1.0139
  122MOL     O317185   1.826   1.195   0.130  0.0036 -0.3489  0.5146
  122MOL     H417186   1.760   0.880   0.107  0.1532  0.4615  2.6521
  122MOL     H517187   1.890   0.975   0.022 -0.1692  0.4579  0.1759
  122MOL     H617188   1.814   1.029   0.246  1.1346  2.0561 -0.3116
  122MOL     H717189   1.917   1.183   0.152  1.4066  0.1254 -4.4622
  122MOL     H817190   1.721   0.984   7.489 -2.7134  0.8092  2.2393
  122MOL     C917191   1.615   1.095   0.196  0.1927 -0.4397  0.0968
  122MOL    C1017192   1.591   1.178   0.326 -0.3378  0.3595  1.0205
  122MOL    O1117193   1.456   1.220   0.325 -0.0617 -0.0668 -0.0979
  122MOL    H1217194   1.560   1.130   0.109  1.8830  2.2679  0.0714
  122MOL    H1317195   1.566   0.998   0.209 -0.0489 -0.1865  1.0920
  122MOL    H1417196   1.650   1.269   0.313  1.5820 -1.1194 -0.9729
  122MOL    H1517197   1.441   1.276   0.399  1.2989  1.9068 -1.2684
  122MOL    C1617198   1.614   1.098   0.451  0.4643 -0.7289  0.2715
  122MOL    C1717199   1.749   1.134   0.517 -0.0784 -0.5921 -0.6078
  122MOL    O1817200   1.756   1.267   0.553  0.4461  0.2528 -0.2044
  122MOL    H1917201   1.530   1.117   0.518 -1.0894  4.7852 -2.9103
  122MOL    H2017202   1.607   0.993   0.423 -2.5383 -0.5403  0.0884
  122MOL    H2117203   1.836   1.116   0.453 -1.9317 -2.5111 -2.6880
  122MOL    H2217204   1.826   1.317   0.513 -1.7825  1.5975 -2.5823
  122MOL    C2317205   1.770   1.050   0.641  0.0131  0.1245 -0.3651
  122MOL    C2417206   1.791   0.898   0.606  0.0781 -0.5571 -0.3587
  122MOL    O2517207   1.904   0.885   0.523 -0.3335 -0.2390  0.0818
  122MOL    H2617208   1.862   1.088   0.684 -0.0019 -0.7021  0.4141
  122MOL    H2717209   1.693   1.060   0.718  0.7595 -0.7312  0.5071
  122MOL    H2817210   1.709   0.845   0.559 -0.7320 -0.6191  1.1026
  122MOL    H2917211   1.955   0.813   0.555 -1.5496 -0.2593  2.0802
  122MOL    C3017212   1.825   0.817   0.737 -0.0203 -0.6285  0.4978
  122MOL    C3117213   1.874   0.673   0.710 -0.1580  0.2346 -0.0243
  122MOL    O3217214   1.999   0.669   0.646  0.4318 -0.3438 -0.5518
  122MOL    H3317215   1.900   0.876   0.790  1.1493 -0.5205 -1.2297
  122MOL    H3417216   1.738   0.812   0.802 -1.2566  2.3064 -0.8374
  122MOL    H3517217   1.792   0.630   0.652  0.0973 -1.0290  0.5339
  122MOL    H3617218   2.051   0.601   0.686 -2.5492 -1.4782  1.5573
  122MOL    C3717219   1.873   0.587   0.841  0.1931 -0.2511  0.3594
  122MOL    C3817220   1.917   0.438   0.835  0.7822  0.9184  0.1961
  122MOL    O3917221   2.054   0.420   0.782 -0.0736 -0.0436 -0.0487
  122MOL    H4017222   1.944   0.621   0.917  0.4816 -0.0196 -0.0130
  122MOL    H4117223   1.785   0.599   0.904  1.4891 -2.0295  2.5924
  122MOL    H4217224   1.855   0.384   0.763 -0.4483  2.4712  0.0461
  122MOL    H4317225   2.072   0.341   0.830 -1.0073 -0.5772 -0.5604
  122MOL    C4417226   1.905   0.379   0.978 -0.0023 -0.3541  0.4086
  122MOL    C4517227   1.912   0.223   0.975 -0.3935 -0.2901  0.2091
  122MOL    O4617228   2.042   0.185   0.931  0.3002  0.2640  0.0179
  122MOL    H4717229   1.990   0.422   1.031  0.1814  0.5824 -0.6233
  122MOL    H4817230   1.814   0.408   1.031 -0.9940 -0.5874 -1.1473
  122MOL    H4917231   1.843   0.198   0.895 -0.7840  1.3708  0.0118
  122MOL    H5017232   2.050   0.091   0.929 -0.5449  0.1840 -0.1062
  122MOL    C5117233   1.878   0.163   1.116 -0.8203  0.9335 -0.5762
  122MOL    C5217234   1.792   0.040   1.113  0.3833 -0.2672  0.1014
  122MOL    O5317235   1.800   7.495   1.237  0.1326  0.2822 -0.2162
  122MOL    H5417236   1.968   0.138   1.172 -0.8747  2.4325  0.2125
  122MOL    H5517237   1.836   0.236   1.185 -0.9541  0.6114 -0.3147
  122MOL    H5617238   1.837   7.489   1.043  0.2752  0.0150 -0.2529
  122MOL    H5717239   1.789   0.040   1.305 -0.2221  0.4528 -0.4293
  122MOL    C5817240   1.635   0.056   1.074  0.0206 -0.8130 -0.0034
  122MOL    C5917241   1.594   0.132   0.938 -0.3331  0.6484 -1.0488
  122MOL    O6017242   1.624   0.041   0.824  0.3852 -0.8990 -1.2571
  122MOL    H6117243   1.591   7.476   1.074 -0.7515 -0.4914  1.0347
  122MOL    H6217244   1.596   0.116   1.157 -1.5680  1.3359 -2.2378
  122MOL    H6317245   1.646   0.227   0.926  0.8834  0.3310  1.5496
  122MOL    H6417246   1.606   7.470   0.847 -2.6022 -0.0038  0.0833
  122MOL    C6517247   1.443   0.154   0.952 -0.5102 -0.0765 -0.0051
  122MOL    C6617248   1.365   0.217   0.837  0.3858  0.3440  0.0500
  122MOL    O6717249   1.234   0.152   0.823 -0.2636 -0.1520  0.0289
  122MOL    H6817250   1.392   0.059   0.973  0.3747 -0.6033 -0.1993
  122MOL    H6917251   1.426   0.213   1.042 -3.7922 -2.3839  0.9934
  122MOL    H7017252   1.424   0.188   0.750  0.1488  1.4026 -0.4678
  122MOL    H7117253   1.166   0.216   0.840  0.1638  0.2529  0.2200
  122MOL    C7217254   1.349   0.366   0.846  0.2793 -0.1937  0.2194
  122MOL    C7317255   1.472   0.451   0.813  0.2123  0.1629  0.4977
  122MOL    O7417256   1.565   0.456   0.918  0.1330  0.1300 -0.7404
  122MOL    H7517257   1.280   0.390   0.765  2.2335 -0.1725 -1.4661
  122MOL    H7617258   1.300   0.397   0.939 -0.1324  0.9421 -0.3643
  122MOL    H7717259   1.439   0.554   0.798  2.3024  0.1486 -5.3246
  122MOL    H7817260   1.526   0.478   1.002  2.0546  1.2651 -0.1084
  122MOL    C7917261   1.552   0.416   0.684 -0.6394  0.2410  0.0171
  122MOL    C8017262   1.474   0.421   0.547 -0.3562  0.1823 -0.1155
  122MOL    O8117263   1.456   0.558   0.533 -0.2232  0.5406  0.0759
  122MOL    H8217264   1.632   0.489   0.675  0.5631 -0.9894  0.5423
  122MOL    H8317265   1.603   0.323   0.707 -1.4486  0.1791  1.6736
  122MOL    H8417266   1.375   0.377   0.553 -0.0633 -0.2920  1.5501
  122MOL    H8517267   1.383   0.569   0.473 -0.4118 -0.5987  0.0780
  122MOL    C8617268   1.548   0.354   0.426  0.4264  0.6270 -0.3596
  122MOL    C8717269   1.673   0.421   0.375  0.1505  0.4234  0.2436
  122MOL    O8817270   1.751   0.333   0.308  0.1736 -0.2931  0.1617
  122MOL    H8917271   1.586   0.261   0.468 -4.7449 -1.4392  0.1051
  122MOL    H9017272   1.478   0.314   0.352 -0.3483  0.9672  0.1888
  122MOL    H9117273   1.733   0.451   0.461  2.4848 -2.2013 -0.3792
  122MOL    H9217274   1.827   0.381   0.277 -1.1797  1.9948  0.2818
  122MOL    C9317275   1.636   0.547   0.285 -0.0644  0.8045 -0.1710
  122MOL    C9417276   1.534   0.537   0.164  0.4957  0.6124  0.1430
  122MOL    O9517277   1.533   0.670   0.108  0.0711 -0.1522  0.0792
  122MOL    H9617278   1.607   0.631   0.349 -2.4589  0.3901 -0.6483
  122MOL    H9717279   1.729   0.581   0.240  0.0588  1.3359  0.4716
  122MOL    H9817280   1.438   0.506   0.204  0.9800 -0.7532  0.2549
  122MOL    H9917281   1.444   0.703   0.115  0.7858  1.7640  0.3310
  122MOL   C10017282   1.561   0.431   0.054  0.0501  0.2136  0.5953
  122MOL   C10117283   1.470   0.425   7.451 -0.3736 -0.3128  0.1109
  122MOL   O10217284   1.547   0.355   7.353  0.5468  0.1095  0.6692
  122MOL   H10317285   1.663   0.455   0.024 -0.0878  2.5618  1.9144
  122MOL   H10417286   1.557   0.329   0.094 -0.5568 -0.2526 -0.6044
  122MOL   H10517287   1.458   0.528   7.417  1.4528  0.1482  0.7787
  122MOL   H10617288   1.516   0.358   7.264 -1.1944 -1.9557  1.1570
  122MOL   C10717289   1.337   0.354   7.481  1.1230  0.5898  0.2499
  122MOL   C10817290   1.223   0.360   7.370  0.6552 -0.4123 -0.1786
  122MOL   O10917291   1.103   0.295   7.403  0.6134  0.5893 -0.2780
  122MOL   H11017292   1.339   0.252   0.002 -0.0404  0.4150 -0.1078
  122MOL   H11117293   1.291   0.407   0.046 -0.2604 -1.2011  0.6701
  122MOL   H11217294   1.268   0.307   7.286  1.3264 -1.2515  0.7050
  122MOL   H11317295   1.116   0.207   7.436  1.7865  0.0573 -2.0582
  122MOL   C11417296   1.184   0.501   7.328 -0.5208 -0.3602  0.1021
  122MOL   C11517297   1.058   0.533   7.241  0.2551 -0.2302 -0.0951
  122MOL   O11617298   1.055   0.672   7.224 -0.0428  0.3125 -0.0296
  122MOL   H11717299   1.155   0.551   7.420 -1.5572 -1.4735  0.4023
  122MOL   H11817300   1.263   0.568   7.293 -0.1549 -0.9151 -0.1576
  122MOL   H11917301   0.967   0.513   7.298  0.3017 -0.7544 -0.2061
  122MOL   H12017302   1.095   0.693   7.141 -2.0355  1.1975 -0.8042
  122MOL   C12117303   1.042   0.461   7.103 -0.2611 -0.1683 -0.6226
  122MOL   C12217304   1.032   0.303   7.094 -0.6072  0.0942 -0.1216
  122MOL   O12317305   0.941   0.259   7.189 -0.0189 -0.1272 -0.4777
  122MOL   H12417306   0.957   0.506   7.051 -0.8932  0.3486  0.8502
  122MOL   H12517307   1.126   0.485   7.038  0.2484 -0.1564  0.0355
  122MOL   H12617308   1.130   0.264   7.119  0.3873  0.3093 -3.4396
  122MOL   H12717309   0.965   0.287   7.276  1.1761 -2.2541 -0.0857
  122MOL   C12817310   0.997   0.249   6.952 -0.1076 -0.1580  0.0398
  122MOL   C12917311   0.996   0.093   6.931  0.1718  0.4785 -0.0823
  122MOL   O13017312   0.940   0.075   6.798 -0.8156  0.4828 -0.3405
  122MOL   H13117313   0.899   0.290   6.927  0.6625  0.6933 -1.6612
  122MOL   H13217314   1.066   0.300   6.886  0.4943 -2.1320 -0.8859
  122MOL   H13317315   0.938   0.055   7.015  2.0576 -2.8488 -0.1897
  122MOL   H13417316   0.895   7.512   6.798 -0.5605  0.3210  1.6168
  122MOL   C13517317   1.132   0.024   6.926 -0.1228 -0.5505 -0.2401
  122MOL   C13617318   1.217   0.025   7.054  0.5053  0.2012 -0.1973
  122MOL   O13717319   1.328   7.459   7.037  0.0904  0.4803 -0.4587
  122MOL   H13817320   1.110   7.439   6.904  0.7783 -1.1455  1.5949
  122MOL   H13917321   1.200   0.064   6.850  0.4907  0.7794  0.9881
  122MOL   H14017322   1.147   0.015   7.137 -1.5100 -3.0351 -2.1920
  122MOL   H14117323   1.405   7.494   7.079 -0.8184  1.1888  0.6612
  122MOL   H14217324   1.270   0.119   7.068  1.2052 -0.0660 -0.9855
  123MOL     C117325   5.581   5.801   0.382  0.3661 -0.4841  0.2820
  123MOL     C217326   5.446   5.845   0.435 -1.2002  0.6009  0.2176
  123MOL     O317327   5.363   5.785   0.343 -0.3502 -0.2320 -0.3793
  123MOL     H417328   5.659   5.859   0.431  0.2337 -0.1331  0.0869
  123MOL     H517329   5.587   5.806   0.273 -1.8213  1.7590  0.2097
  123MOL     H617330   5.438   5.953   0.427  0.1350  0.7029  0.1588
  123MOL     H717331   5.278   5.824   0.356 -0.5266 -0.5960 -0.4413
  123MOL     H817332   5.590   5.694   0.398 -1.3881 -0.6267  0.4710
  123MOL     C917333   5.419   5.802   0.575 -0.0193 -0.3059 -0.1332
  123MOL    C1017334   5.476   5.893   0.679 -0.6629  0.5756 -0.3499
  123MOL    O1117335   5.431   6.024   0.665 -0.0229  0.0045  0.4260
  123MOL    H1217336   5.310   5.798   0.584  0.1081 -0.0014  1.7899
  123MOL    H1317337   5.468   5.706   0.586 -1.1733 -1.1001 -1.8558
  123MOL    H1417338   5.581   5.892   0.653 -0.6075 -0.3640 -0.1366
  123MOL    H1517339   5.503   6.072   0.629  0.7605 -0.2273  1.6322
  123MOL    C1617340   5.454   5.830   0.820 -0.2045 -0.3350 -0.1272
  123MOL    C1717341   5.543   5.878   0.942  0.2271 -0.1677  0.3033
  123MOL    O1817342   5.496   6.003   0.984  0.3329 -0.2280 -0.1750
  123MOL    H1917343   5.349   5.849   0.844 -0.3623  0.1593 -1.1842
  123MOL    H2017344   5.473   5.724   0.804  0.3553 -0.2164 -0.2849
  123MOL    H2117345   5.647   5.898   0.916 -0.2506 -0.4360 -1.8291
  123MOL    H2217346   5.460   6.051   0.911 -0.3338 -2.0175 -1.0480
  123MOL    C2317347   5.528   5.780   1.057  0.6494  0.0757  0.6365
  123MOL    C2417348   5.592   5.816   1.192  0.4296  0.7714 -0.5192
  123MOL    O2517349   5.571   5.720   1.293 -0.1307  0.0061  0.8083
  123MOL    H2617350   5.420   5.768   1.068  0.5030 -0.1847 -1.0627
  123MOL    H2717351   5.575   5.689   1.018  1.2661  1.3589 -1.7209
  123MOL    H2817352   5.548   5.910   1.227 -2.1157 -0.5639  0.0306
  123MOL    H2917353   5.559   5.767   1.374  0.4482  1.0937  0.2661
  123MOL    C3017354   5.744   5.829   1.185  0.1786  0.2350  0.4725
  123MOL    C3117355   5.824   5.854   1.314 -0.4129 -0.2211 -0.0760
  123MOL    O3217356   5.953   5.816   1.281 -0.1987 -0.0435  0.5103
  123MOL    H3317357   5.780   5.734   1.145 -2.6693 -0.5507 -0.3053
  123MOL    H3417358   5.765   5.914   1.120 -2.3785  2.5927  2.6424
  123MOL    H3517359   5.796   5.787   1.396  1.8523 -0.3001  0.6694
  123MOL    H3617360   5.987   5.877   1.218 -1.0027 -0.4518 -0.3318
  123MOL    C3717361   5.794   5.995   1.367 -0.2192  0.3860  1.1186
  123MOL    C3817362   5.899   6.036   1.474  0.2056 -0.0100  0.4010
  123MOL    O3917363   5.892   6.175   1.499  0.6158 -0.3460  0.0425
  123MOL    H4017364   5.797   6.065   1.284 -0.2745  0.2974  1.0416
  123MOL    H4117365   5.690   5.992   1.400 -0.6536  0.4132 -0.2464
  123MOL    H4217366   5.995   6.018   1.424 -0.5555 -2.2841 -0.3136
  123MOL    H4317367   5.965   6.196   1.554  0.2514  2.1647 -0.3882
  123MOL    C4417368   5.887   5.966   1.611  0.2390 -0.0704  0.1906
  123MOL    C4517369   6.015   5.957   1.699  0.5884  0.0760  0.8990
  123MOL    O4617370   6.068   6.085   1.731  0.7764  0.2878 -0.1237
  123MOL    H4717371   5.801   6.008   1.663  2.0751  0.9041  2.5296
  123MOL    H4817372   5.873   5.858   1.602 -1.7712  0.1277  0.7412
  123MOL    H4917373   6.086   5.905   1.634 -2.5203 -1.8136 -1.1338
  123MOL    H5017374   6.082   6.086   1.824  0.7191  1.0878 -0.1141
  123MOL    C5117375   6.005   5.887   1.830  1.1950  0.4141 -0.1891
  123MOL    C5217376   6.145   5.861   1.902 -0.0212  0.1303 -0.1136
  123MOL    O5317377   6.173   5.973   1.990  0.0646 -0.4147 -0.4932
  123MOL    H5417378   5.949   5.936   1.910  1.0875  1.2126 -0.7535
  123MOL    H5517379   5.960   5.789   1.813 -1.5845  1.3966  1.1478
  123MOL    H5617380   6.213   5.866   1.817 -0.2501 -1.5350 -0.4077
  123MOL    H5717381   6.256   5.956   2.032 -0.7068  0.9972  1.6507
  123MOL    C5817382   6.159   5.727   1.967  0.1234 -0.0315  0.8584
  123MOL    C5917383   6.043   5.672   2.051 -0.2499  0.1592 -0.2307
  123MOL    O6017384   6.072   5.539   2.079  0.6498  0.0966  0.1662
  123MOL    H6117385   6.179   5.662   1.882 -0.2090  1.7543 -0.6509
  123MOL    H6217386   6.250   5.722   2.025  0.2540 -0.6031  0.6030
  123MOL    H6317387   5.950   5.678   1.996 -0.1976 -1.0604 -0.4705
  123MOL    H6417388   6.013   5.509   2.147  0.3936 -2.6707 -1.2080
  123MOL    C6517389   6.042   5.739   2.192  0.4371 -0.3910 -0.8434
  123MOL    C6617390   5.913   5.822   2.223  0.2935  1.3312  0.9425
  123MOL    O6717391   5.803   5.732   2.218 -0.0983  0.7351 -0.0285
  123MOL    H6817392   6.064   5.671   2.275 -1.0023 -0.1892 -0.2731
  123MOL    H6917393   6.116   5.819   2.194 -1.5013  1.4257  0.8449
  123MOL    H7017394   5.899   5.888   2.136  3.1064 -1.8862 -2.0916
  123MOL    H7117395   5.757   5.745   2.300 -1.7289 -0.8530 -0.6533
  123MOL    C7217396   5.913   5.894   2.358  0.2539  0.2249 -0.4464
  123MOL    C7317397   5.781   5.967   2.401  0.1675  0.1726 -0.1777
  123MOL    O7417398   5.680   5.877   2.419 -0.3214  0.0392 -0.4385
  123MOL    H7517399   5.937   5.820   2.435 -2.0682  1.0693  1.1519
  123MOL    H7617400   5.999   5.960   2.365  1.3846 -1.1917 -0.6784
  123MOL    H7717401   5.752   6.032   2.318 -0.3680  0.9515  0.6129
  123MOL    H7817402   5.628   5.910   2.491  1.2186 -0.1668  0.7880
  123MOL    C7917403   5.801   6.063   2.521 -0.0394 -0.6771  0.2620
  123MOL    C8017404   5.698   6.176   2.522 -0.1404  0.0106  0.4386
  123MOL    O8117405   5.582   6.114   2.579 -0.0163  0.1010  0.1919
  123MOL    H8217406   5.808   6.005   2.613  1.8440  1.3792  1.4513
  123MOL    H8317407   5.895   6.113   2.496 -0.3815 -0.3076 -0.3146
  123MOL    H8417408   5.684   6.219   2.423 -0.0491 -0.2396  0.3174
  123MOL    H8517409   5.547   6.188   2.626  0.5766  0.0794  0.6661
  123MOL    C8617410   5.746   6.298   2.614  0.5833 -0.1754  0.0325
  123MOL    C8717411   5.650   6.421   2.620  0.5804  0.2529 -0.3315
  123MOL    O8817412   5.525   6.371   2.658 -0.5361  0.2880  0.5999
  123MOL    H8917413   5.776   6.268   2.714 -0.5228  0.5955  0.5990
  123MOL    H9017414   5.837   6.334   2.566 -1.2122  3.1516 -1.0523
  123MOL    H9117415   5.645   6.465   2.521  3.0620  0.8165 -0.2375
  123MOL    H9217416   5.476   6.448   2.683  0.3354  0.3397  2.1783
  123MOL    C9317417   5.700   6.528   2.710 -0.5085 -0.6787  0.0101
  123MOL    C9417418   5.628   6.662   2.691 -0.5006 -0.6999 -0.8089
  123MOL    O9517419   5.496   6.645   2.735 -0.4219  0.2514 -0.0722
  123MOL    H9617420   5.699   6.491   2.813 -1.3059 -0.2532  0.1576
  123MOL    H9717421   5.805   6.547   2.691 -0.7312 -0.4797 -1.0404
  123MOL    H9817422   5.619   6.704   2.591 -0.9374  1.0956 -0.0456
  123MOL    H9917423   5.478   6.726   2.781 -2.1684 -0.6577  0.9045
  123MOL   C10017424   5.683   6.764   2.787  0.0075  0.1466 -0.2921
  123MOL   C10117425   5.605   6.900   2.775 -0.4459 -0.6826 -0.0734
  123MOL   O10217426   5.482   6.885   2.838  0.0709  0.4033  0.0822
  123MOL   H10317427   5.663   6.724   2.886 -0.5827  0.0462 -0.4549
  123MOL   H10417428   5.792   6.772   2.784  0.0168  0.4069  0.5619
  123MOL   H10517429   5.595   6.917   2.668  0.8693 -1.3246 -0.3123
  123MOL   H10617430   5.475   6.972   2.874  1.2425 -0.7637  3.2948
  123MOL   C10717431   5.664   7.017   2.848  0.1976 -0.1346 -0.5017
  123MOL   C10817432   5.578   7.140   2.807 -0.4326 -0.7764  0.5797
  123MOL   O10917433   5.460   7.133   2.879 -0.1622  0.2804 -0.9174
  123MOL   H11017434   5.682   7.011   2.955  0.4735  0.6720 -0.4945
  123MOL   H11117435   5.763   7.030   2.803  0.5155  0.2901  0.3073
  123MOL   H11217436   5.543   7.139   2.704 -0.2517  0.9529  0.4912
  123MOL   H11317437   5.403   7.206   2.861 -1.4822 -0.4668  0.1041
  123MOL   C11417438   5.643   7.273   2.830 -0.0397 -0.5113  0.7434
  123MOL   C11517439   5.772   7.296   2.742  0.1704 -0.6821  0.3868
  123MOL   O11617440   5.748   7.300   2.602  0.5311  0.0838  0.1492
  123MOL   H11717441   5.574   7.356   2.814 -0.2621 -0.8409 -0.0094
  123MOL   H11817442   5.677   7.277   2.934 -0.8248  2.6004  0.9337
  123MOL   H11917443   5.841   7.219   2.775  0.8768 -1.0687 -1.8711
  123MOL   H12017444   5.774   7.216   2.566  1.5487  0.3644  0.2147
  123MOL   C12117445   5.854   7.429   2.766 -0.1492  0.7703  1.0472
  123MOL   C12217446   5.993   7.430   2.693 -0.2024 -0.5368  0.1092
  123MOL   O12317447   5.969   7.439   2.556 -0.0333  0.4840 -0.6449
  123MOL   H12417448   5.787   7.512   2.747 -1.8207 -0.6087  0.7988
  123MOL   H12517449   5.867   7.432   2.874 -0.9020  0.7068  1.1379
  123MOL   H12617450   6.038   7.331   2.703  1.9744  0.4175 -0.0182
  123MOL   H12717451   5.877   7.420   2.543 -0.1173  0.5016 -0.0944
  123MOL   C12817452   6.068   0.028   2.759 -0.0299 -0.3328  0.3600
  123MOL   C12917453   6.209   0.066   2.716  0.0312  0.8163 -0.5908
  123MOL   O13017454   6.243   0.192   2.762  0.6144 -0.1233  0.0980
  123MOL   H13117455   6.006   0.113   2.731 -0.2076 -1.2454 -2.1650
  123MOL   H13217456   6.053   0.006   2.865 -2.8685 -0.5548 -0.0576
  123MOL   H13317457   6.215   0.072   2.608 -2.4083 -2.3577 -0.9693
  123MOL   H13417458   6.305   0.231   2.702 -1.2454  2.1073 -0.4308
  123MOL   C13517459   6.316   7.474   2.760  0.1649 -0.5257  0.1131
  123MOL   C13617460   6.337   7.455   2.910  0.6896  0.2367 -0.2306
  123MOL   O13717461   6.251   7.362   2.974 -0.1040 -0.1427  0.0455
  123MOL   H13817462   6.282   7.386   2.705  0.6079 -0.9347  0.4933
  123MOL   H13917463   6.415   7.498   2.723 -1.0332 -1.8528 -4.3163
  123MOL   H14017464   6.345   0.027   2.968 -0.2822  0.1612  0.0252
  123MOL   H14117465   6.301   7.330   3.048 -0.8095  0.6970  0.8919
  123MOL   H14217466   6.435   7.408   2.920  1.2755  1.8392  1.8054
  124MOL     C117467   2.623   4.126   4.801 -0.3157 -0.0250 -0.6711
  124MOL     C217468   2.546   4.234   4.730  0.0744  0.0754 -0.5863
  124MOL     O317469   2.455   4.167   4.645  0.3077 -0.3201 -0.1321
  124MOL     H417470   2.567   4.080   4.882 -0.0021  0.7026 -0.0309
  124MOL     H517471   2.705   4.173   4.854  0.2626 -0.5397 -1.1117
  124MOL     H617472   2.616   4.295   4.672  0.2587 -0.6689 -1.1534
  124MOL     H717473   2.428   4.084   4.684  0.3451  0.0294  0.6472
  124MOL     H817474   2.670   4.050   4.740 -1.5913 -0.4204 -1.1816
  124MOL     C917475   2.471   4.333   4.827  0.5094  0.1630  0.3732
  124MOL    C1017476   2.379   4.442   4.764 -0.2198  0.9008  0.6739
  124MOL    O1117477   2.313   4.529   4.858 -0.6327 -0.9639  0.6604
  124MOL    H1217478   2.412   4.270   4.893  1.5112 -0.4988  0.6482
  124MOL    H1317479   2.550   4.381   4.886  0.0272  2.3228 -0.6817
  124MOL    H1417480   2.305   4.385   4.707  0.9526  1.5344 -1.5758
  124MOL    H1517481   2.365   4.577   4.919 -0.3433 -0.3969 -0.0226
  124MOL    C1617482   2.461   4.530   4.660  0.7993 -0.2093 -0.3600
  124MOL    C1717483   2.383   4.631   4.575  0.3719  0.3293 -0.2668
  124MOL    O1817484   2.485   4.723   4.539 -0.0751  0.3173  0.0375
  124MOL    H1917485   2.539   4.579   4.718  0.7228  1.1289 -1.3516
  124MOL    H2017486   2.506   4.465   4.586 -0.1894 -1.2773 -0.0359
  124MOL    H2117487   2.312   4.677   4.645 -0.1270 -0.8795  0.0292
  124MOL    H2217488   2.503   4.777   4.614  1.1158 -0.8508  0.6129
  124MOL    C2317489   2.312   4.589   4.444 -0.2075 -0.1336  0.3377
  124MOL    C2417490   2.179   4.503   4.455  0.0075 -0.2602  0.2811
  124MOL    O2517491   2.097   4.561   4.358  0.3680  0.1648 -0.4967
  124MOL    H2617492   2.289   4.689   4.407  1.5569  0.3451  0.5212
  124MOL    H2717493   2.365   4.535   4.365  0.2245  0.5068  0.1910
  124MOL    H2817494   2.141   4.527   4.554 -0.7033  0.2096 -0.0954
  124MOL    H2917495   2.015   4.582   4.401 -0.0048  0.0278 -1.1256
  124MOL    C3017496   2.214   4.351   4.432  0.2444  0.3526 -1.3519
  124MOL    C3117497   2.098   4.247   4.443  0.4219 -0.1733 -0.8580
  124MOL    O3217498   2.169   4.121   4.444 -0.2069  0.4994 -0.1269
  124MOL    H3317499   2.248   4.332   4.330 -2.0216  2.3576 -2.5505
  124MOL    H3417500   2.297   4.325   4.497  0.6766 -1.1944 -2.4832
  124MOL    H3517501   2.037   4.247   4.353 -0.7147 -0.1474 -0.0938
  124MOL    H3617502   2.223   4.124   4.521 -1.2796  1.7815  0.6072
  124MOL    C3717503   2.006   4.247   4.568 -0.2392  0.5195  0.0906
  124MOL    C3817504   1.875   4.159   4.555  0.2057  0.1378  0.2256
  124MOL    O3917505   1.906   4.019   4.540 -0.1921 -0.3684  0.3194
  124MOL    H4017506   2.057   4.225   4.662  2.6420 -0.3718 -1.6235
  124MOL    H4117507   1.964   4.347   4.578 -0.3748  0.6143 -1.2573
  124MOL    H4217508   1.819   4.193   4.468 -0.6602 -0.9161  0.3496
  124MOL    H4317509   1.999   4.028   4.523  0.1106 -2.9714  0.4821
  124MOL    C4417510   1.787   4.170   4.681  0.6955 -0.4580 -0.2492
  124MOL    C4517511   1.650   4.143   4.643  0.1545 -0.8558 -0.4995
  124MOL    O4617512   1.638   4.005   4.613  0.6871 -0.1033 -0.0963
  124MOL    H4717513   1.821   4.107   4.763 -0.8281 -3.1271 -1.5955
  124MOL    H4817514   1.796   4.275   4.712 -1.3844 -0.7940  1.5594
  124MOL    H4917515   1.630   4.205   4.556  0.5910 -2.0477 -1.4663
  124MOL    H5017516   1.708   3.984   4.553 -0.1191 -1.7001 -0.5120
  124MOL    C5117517   1.536   4.166   4.750 -0.0447  0.4529 -0.4494
  124MOL    C5217518   1.391   4.153   4.697  0.4092 -0.3711 -0.6924
  124MOL    O5317519   1.293   4.125   4.807  0.7589 -0.1155  0.3678
  124MOL    H5417520   1.553   4.091   4.828 -0.5643  1.1260  0.3167
  124MOL    H5517521   1.553   4.261   4.800 -0.8483 -0.5537  1.8161
  124MOL    H5617522   1.389   4.070   4.626  1.6135  0.6730 -1.9630
  124MOL    H5717523   1.327   4.073   4.879 -0.7575 -1.3270  0.2495
  124MOL    C5817524   1.339   4.287   4.629  0.1886 -0.0981 -0.7392
  124MOL    C5917525   1.228   4.266   4.519 -0.1925  0.0045 -0.1072
  124MOL    O6017526   1.157   4.380   4.494  0.3258  0.0716 -0.1626
  124MOL    H6117527   1.296   4.352   4.706  0.9856 -1.9543  1.3554
  124MOL    H6217528   1.423   4.336   4.580 -0.2587  1.3831 -0.0562
  124MOL    H6317529   1.158   4.195   4.562 -0.5178 -0.7845 -1.8776
  124MOL    H6417530   1.152   4.436   4.570 -2.6287  1.3309 -1.1771
  124MOL    C6517531   1.278   4.214   4.384 -0.0398 -0.5809  0.3755
  124MOL    C6617532   1.176   4.110   4.333  0.9027  0.5906  0.4493
  124MOL    O6717533   1.063   4.162   4.273 -0.6864  0.3458 -0.0145
  124MOL    H6817534   1.303   4.288   4.308 -1.8270 -1.6018 -1.2675
  124MOL    H6917535   1.377   4.173   4.402  0.6568 -0.3664 -2.6889
  124MOL    H7017536   1.139   4.045   4.413  1.0673  0.7111  0.6243
  124MOL    H7117537   1.018   4.193   4.349  1.5185 -1.8569  2.2760
  124MOL    C7217538   1.240   4.007   4.239 -0.0613  0.3969 -0.2449
  124MOL    C7317539   1.172   3.873   4.228  0.2075  0.1713  0.0237
  124MOL    O7417540   1.228   3.818   4.114 -0.3214 -0.1637  0.8506
  124MOL    H7517541   1.249   4.050   4.140  2.9786 -2.7223 -1.4034
  124MOL    H7617542   1.344   4.003   4.270 -0.3522 -1.3252  0.5446
  124MOL    H7717543   1.064   3.884   4.220  0.2246  0.0561 -0.3859
  124MOL    H7817544   1.321   3.832   4.111  0.2434 -3.1182  2.5857
  124MOL    C7917545   1.204   3.770   4.343 -0.2154 -0.2476  0.6103
  124MOL    C8017546   1.115   3.648   4.358 -0.1770  1.1592  0.3258
  124MOL    O8117547   1.151   3.559   4.255  0.5807 -0.2259 -0.2338
  124MOL    H8217548   1.307   3.738   4.326 -0.8213 -1.1319 -1.5086
  124MOL    H8317549   1.196   3.824   4.438 -0.2151  2.5035 -0.9095
  124MOL    H8417550   1.011   3.679   4.356 -0.5248  0.1582  2.0478
  124MOL    H8517551   1.110   3.602   4.182  1.6906 -0.2934 -0.9044
  124MOL    C8617552   1.131   3.583   4.499  0.3053  0.1717 -0.3248
  124MOL    C8717553   1.003   3.504   4.539 -0.0102 -1.1447  0.1227
  124MOL    O8817554   1.045   3.427   4.654 -0.0195 -0.5281  0.0730
  124MOL    H8917555   1.213   3.512   4.503 -1.5753 -2.0644 -0.7165
  124MOL    H9017556   1.141   3.660   4.577  0.7891  1.6918 -1.8609
  124MOL    H9117557   0.967   3.437   4.462  1.4792 -3.1155  1.0827
  124MOL    H9217558   1.136   3.405   4.641  0.3153 -1.4143  3.4419
  124MOL    C9317559   0.902   3.601   4.606  0.0189 -0.4717 -0.4566
  124MOL    C9417560   0.759   3.540   4.635  0.2557 -0.0809  0.4568
  124MOL    O9517561   0.793   3.415   4.701 -0.4009 -0.4551 -0.5360
  124MOL    H9617562   0.938   3.666   4.686  0.5575  1.5506 -2.2868
  124MOL    H9717563   0.870   3.683   4.541  1.4952  3.3687  3.3847
  124MOL    H9817564   0.701   3.510   4.548  2.7775  0.0058 -1.3103
  124MOL    H9917565   0.887   3.412   4.695  0.0178 -0.6254  4.1015
  124MOL   C10017566   0.667   3.610   4.729  0.4010  0.4804  0.0430
  124MOL   C10117567   0.530   3.543   4.733  0.3384  0.7645  0.2944
  124MOL   O10217568   0.544   3.411   4.790  0.1972  0.0430  0.6148
  124MOL   H10317569   0.716   3.624   4.825  3.1608  1.1564 -1.3934
  124MOL   H10417570   0.655   3.714   4.699  2.5461  0.0638 -2.4948
  124MOL   H10517571   0.496   3.531   4.630 -1.0150 -1.8620  0.9928
  124MOL   H10617572   0.627   3.379   4.757 -0.6300  1.4878 -3.2014
  124MOL   C10717573   0.436   3.613   4.822 -0.4695  0.0945  0.0436
  124MOL   C10817574   0.420   3.761   4.793 -0.3506  0.9085  0.3424
  124MOL   O10917575   0.285   3.803   4.783  0.2141 -0.0023  0.0504
  124MOL   H11017576   0.336   3.573   4.808 -0.2067  0.0436 -1.8226
  124MOL   H11117577   0.454   3.590   4.927 -0.6362 -0.7869 -0.1215
  124MOL   H11217578   0.456   3.785   4.693 -0.4836 -1.9628 -0.4512
  124MOL   H11317579   0.274   3.894   4.807  0.4801 -0.0614  0.3924
  124MOL   C11417580   0.476   3.843   4.911 -0.5215 -0.0667  0.3439
  124MOL   C11517581   0.498   3.989   4.887  0.4785 -0.2362 -0.1288
  124MOL   O11617582   0.367   4.046   4.875  0.1110 -0.2952  0.2709
  124MOL   H11717583   0.431   3.810   5.005  2.4522 -1.2654  1.4123
  124MOL   H11817584   0.577   3.808   4.936 -1.1434 -0.8877  1.7780
  124MOL   H11917585   0.557   4.012   4.798 -0.4606 -1.8956 -1.2044
  124MOL   H12017586   0.382   4.131   4.835  0.8442 -0.0110  1.1305
  124MOL   C12117587   0.557   4.078   4.998  0.2817  0.2564 -0.2340
  124MOL   C12217588   0.711   4.063   5.030  0.5568 -0.6154 -0.1570
  124MOL   O12317589   0.734   3.932   5.086 -0.1029 -0.4865  0.2843
  124MOL   H12417590   0.535   4.181   4.971  0.5975 -0.0002 -1.5052
  124MOL   H12517591   0.494   4.041   5.079  0.2347 -0.4158 -0.5660
  124MOL   H12617592   0.737   4.136   5.107  0.1907 -0.0996 -0.5147
  124MOL   H12717593   0.691   3.928   5.170 -1.5293 -2.7551 -0.4970
  124MOL   C12817594   0.794   4.094   4.903  0.1095 -0.0461  0.5643
  124MOL   C12917595   0.936   4.146   4.909 -0.5842  0.2562  0.1801
  124MOL   O13017596   0.996   4.115   4.784 -0.3506 -0.2111 -0.1201
  124MOL   H13117597   0.797   4.003   4.843 -1.3900  0.6887 -0.6671
  124MOL   H13217598   0.741   4.161   4.835  1.3682  1.5660  1.1560
  124MOL   H13317599   0.981   4.083   4.986 -0.1514 -0.2468 -0.4747
  124MOL   H13417600   1.083   4.093   4.814  0.1319  0.2173 -1.1779
  124MOL   C13517601   0.938   4.294   4.924 -0.8896  1.1578  0.0463
  124MOL   C13617602   1.073   4.367   4.911 -1.1632  0.1371  0.1363
  124MOL   O13717603   1.061   4.500   4.939 -0.4572 -0.4750  0.0927
  124MOL   H13817604   0.872   4.342   4.851  0.7888  1.1065 -1.5266
  124MOL   H13917605   0.890   4.319   5.019  1.5745  1.5175  1.2495
  124MOL   H14017606   1.110   4.360   4.809  2.7821  2.1146  1.3316
  124MOL   H14117607   1.100   4.553   4.871 -3.1165  0.5358 -0.7138
  124MOL   H14217608   1.141   4.328   4.987 -0.9939  0.6846  0.2664
  125MOL     C117609   1.524   3.951   1.686 -0.4733  0.3139  0.1605
  125MOL     C217610   1.423   3.857   1.651 -0.6529  0.1017  0.5502
  125MOL     O317611   1.482   3.741   1.579  0.2342 -0.0121  0.2912
  125MOL     H417612   1.596   3.978   1.609 -1.6503  0.1979 -0.9963
  125MOL     H517613   1.583   3.920   1.773  2.3353 -1.5998 -2.2963
  125MOL     H617614   1.352   3.908   1.586 -0.8199 -2.9296 -1.8007
  125MOL     H717615   1.415   3.684   1.547  0.5172 -0.7129  0.9159
  125MOL     H817616   1.486   4.047   1.719  2.2014  1.3194  0.4720
  125MOL     C917617   1.344   3.801   1.769  0.1668 -0.6096  0.2939
  125MOL    C1017618   1.191   3.845   1.763 -1.0229  0.0699  0.0340
  125MOL    O1117619   1.130   3.773   1.865  0.9604  0.0005 -0.4337
  125MOL    H1217620   1.338   3.692   1.760  0.7068 -0.5703 -0.6033
  125MOL    H1317621   1.394   3.825   1.863 -0.1256  1.3424 -0.0330
  125MOL    H1417622   1.154   3.807   1.668 -0.4049 -1.5527  0.4235
  125MOL    H1517623   1.130   3.682   1.839  2.0139  0.1877 -1.1588
  125MOL    C1617624   1.185   3.997   1.795 -0.5918 -0.4055  1.2711
  125MOL    C1717625   1.060   4.075   1.750  0.4282 -0.3061 -0.0827
  125MOL    O1817626   1.030   4.032   1.622 -0.4888  0.0652 -0.0169
  125MOL    H1917627   1.206   4.013   1.901 -0.6066  0.9406  1.0739
  125MOL    H2017628   1.271   4.049   1.753 -0.6353 -1.4628 -0.1438
  125MOL    H2117629   1.077   4.182   1.752 -1.8434  0.0817  1.0561
  125MOL    H2217630   1.107   4.058   1.575 -0.2940  1.2257  0.9321
  125MOL    C2317631   0.946   4.049   1.841  0.0850 -0.2847  0.2288
  125MOL    C2417632   0.835   4.158   1.830 -0.3674  0.0384  0.6101
  125MOL    O2517633   0.717   4.099   1.874  0.2400 -0.2805  0.1106
  125MOL    H2617634   0.917   3.946   1.822 -1.6168  0.0431  0.9154
  125MOL    H2717635   0.973   4.052   1.947 -0.5776  1.9297  0.3559
  125MOL    H2817636   0.802   4.176   1.727 -0.7296  1.8584  1.0221
  125MOL    H2917637   0.695   4.012   1.847  2.4172 -0.7656 -0.1791
  125MOL    C3017638   0.862   4.287   1.914 -0.7353  0.5365  0.8086
  125MOL    C3117639   0.753   4.392   1.892 -0.5923  0.0375  0.4366
  125MOL    O3217640   0.637   4.369   1.978 -0.3394  0.0009 -0.3957
  125MOL    H3317641   0.865   4.265   2.020  0.2423  0.0616  0.6917
  125MOL    H3417642   0.964   4.318   1.888 -0.5784 -1.0617 -0.6005
  125MOL    H3517643   0.728   4.380   1.787 -0.1958  1.0228  0.2149
  125MOL    H3617644   0.636   4.274   1.981 -0.6027  0.0146  0.1069
  125MOL    C3717645   0.803   4.541   1.925 -0.4828 -0.7016  0.1022
  125MOL    C3817646   0.932   4.596   1.861  0.0250  0.2941 -0.4246
  125MOL    O3917647   0.940   4.557   1.722  0.3919  0.2167 -0.6573
  125MOL    H4017648   0.719   4.600   1.889 -0.1295 -0.5458 -0.4883
  125MOL    H4117649   0.813   4.568   2.030  1.9575 -0.9117 -0.0316
  125MOL    H4217650   1.011   4.558   1.926 -1.4578 -1.1041  0.5853
  125MOL    H4317651   0.857   4.571   1.679 -0.3221 -0.6119  0.4277
  125MOL    C4417652   0.945   4.749   1.863  0.0775 -0.8534  0.2161
  125MOL    C4517653   0.965   4.835   1.989 -0.8660 -0.9599  0.6523
  125MOL    O4617654   1.100   4.841   2.010 -0.0671 -0.0698  0.8614
  125MOL    H4717655   1.032   4.775   1.802 -1.2526  0.9286 -0.9806
  125MOL    H4817656   0.855   4.781   1.809  0.8549 -0.3815 -0.8225
  125MOL    H4917657   0.925   4.779   2.074  0.0128 -1.6736  0.5964
  125MOL    H5017658   1.134   4.763   2.051 -1.5996 -2.6027 -2.4157
  125MOL    C5117659   0.908   4.983   1.971  0.5401  0.3063 -0.3400
  125MOL    C5217660   0.949   5.080   2.084  0.3425 -0.6157  0.3096
  125MOL    O5317661   1.076   5.125   2.052 -0.8591 -0.6139 -0.2294
  125MOL    H5417662   0.926   5.020   1.870 -1.7515  0.3062 -0.7674
  125MOL    H5517663   0.801   4.966   1.969  0.4192  1.1642 -2.4127
  125MOL    H5617664   0.949   5.023   2.176  0.6799 -0.7165  0.2458
  125MOL    H5717665   1.124   5.052   2.015  0.8047 -0.2668  1.2025
  125MOL    C5817666   0.853   5.203   2.090  0.1756  0.1910 -0.2014
  125MOL    C5917667   0.868   5.282   2.222  0.5419  0.8642 -0.5839
  125MOL    O6017668   0.807   5.410   2.201  0.0828  0.1609  0.6308
  125MOL    H6117669   0.863   5.270   2.004 -0.6193  0.0999 -0.3732
  125MOL    H6217670   0.746   5.182   2.086 -0.1149  0.9465  2.6543
  125MOL    H6317671   0.972   5.306   2.246  0.3849 -0.1598  1.2283
  125MOL    H6417672   0.880   5.462   2.171 -1.4975  3.1037  1.6072
  125MOL    C6517673   0.799   5.223   2.351  0.1520  0.3468 -0.5798
  125MOL    C6617674   0.798   5.312   2.469  0.8474  0.1289  0.1022
  125MOL    O6717675   0.758   5.237   2.574  0.9981  0.3861 -0.2945
  125MOL    H6817676   0.697   5.195   2.324 -0.6896  0.6521  2.1109
  125MOL    H6917677   0.846   5.127   2.371 -1.1039  0.0141  0.9173
  125MOL    H7017678   0.719   5.387   2.461 -0.3122 -0.9396  1.2066
  125MOL    H7117679   0.688   5.283   2.618 -1.4959 -1.7868 -1.7986
  125MOL    C7217680   0.938   5.366   2.513  0.5743 -0.3790  0.1779
  125MOL    C7317681   0.944   5.455   2.637  0.1769 -0.3852  0.5173
  125MOL    O7417682   1.082   5.491   2.654 -0.1033  0.2098  0.0866
  125MOL    H7517683   1.004   5.281   2.524 -1.1450 -1.7709  0.0303
  125MOL    H7617684   0.971   5.426   2.428  2.3430  1.9745  2.4505
  125MOL    H7717685   0.909   5.401   2.725 -0.8487  1.1555  1.0928
  125MOL    H7817686   1.130   5.422   2.697  3.0742  1.8389 -0.6866
  125MOL    C7917687   0.865   5.586   2.624  0.8104 -0.2259  0.3921
  125MOL    C8017688   0.841   5.658   2.758  0.6482 -0.2556  0.3912
  125MOL    O8117689   0.829   5.799   2.722 -0.1465  0.1578  0.8766
  125MOL    H8217690   0.916   5.652   2.555 -1.5071  0.8730 -0.3152
  125MOL    H8317691   0.762   5.572   2.590  0.1534 -0.2465  2.3005
  125MOL    H8417692   0.931   5.649   2.819 -0.2967 -1.5770  1.6362
  125MOL    H8517693   0.915   5.820   2.689  0.2352 -0.2206  1.6308
  125MOL    C8617694   0.709   5.618   2.828  0.0931  0.4788  0.0207
  125MOL    C8717695   0.692   5.466   2.871 -0.6857 -0.5021  0.2326
  125MOL    O8817696   0.775   5.449   2.987  0.0724 -1.0918 -0.1309
  125MOL    H8917697   0.694   5.686   2.913  1.5112 -1.0344  1.5292
  125MOL    H9017698   0.632   5.637   2.754 -1.6723 -0.5399  1.5510
  125MOL    H9117699   0.726   5.405   2.787 -2.0184 -0.2198 -0.5242
  125MOL    H9217700   0.804   5.537   3.004 -0.1772 -1.3946  1.9416
  125MOL    C9317701   0.549   5.425   2.905 -0.3459 -0.4197  0.2853
  125MOL    C9417702   0.453   5.434   2.780  0.4387  0.4192  0.1074
  125MOL    O9517703   0.515   5.379   2.668 -0.4929  0.1179  0.0070
  125MOL    H9617704   0.559   5.319   2.930  0.6085  0.1396  2.4047
  125MOL    H9717705   0.514   5.484   2.990 -0.1794 -1.0050  0.7669
  125MOL    H9817706   0.435   5.539   2.759 -0.2088  0.4657  0.9025
  125MOL    H9917707   0.492   5.426   2.590 -1.4518 -0.9598 -0.3829
  125MOL   C10017708   0.319   5.357   2.798 -0.0833 -0.0845  0.2251
  125MOL   C10117709   0.240   5.410   2.920  0.3316  0.3315  0.2978
  125MOL   O10217710   0.174   5.532   2.886 -0.6100  0.1407 -0.0007
  125MOL   H10317711   0.251   5.376   2.715  0.1506 -0.0117  0.0493
  125MOL   H10417712   0.328   5.249   2.801  1.8902  0.0917  1.4451
  125MOL   H10517713   0.309   5.417   3.004 -0.9487 -0.6015  1.4484
  125MOL   H10617714   0.205   5.592   2.952  0.6984  0.4797 -0.8854
  125MOL   C10717715   0.120   5.313   2.960 -0.3451  0.0475  0.3379
  125MOL   C10817716   0.162   5.177   3.019  0.2048  0.1111 -0.1145
  125MOL   O10917717   0.206   5.194   3.149 -0.0157  0.4615  0.0290
  125MOL   H11017718   0.057   5.354   3.038 -3.8572  0.5007 -2.6108
  125MOL   H11117719   0.060   5.293   2.871 -1.0303  0.0984  0.7844
  125MOL   H11217720   0.255   5.154   2.966  1.8259  1.6902  1.9416
  125MOL   H11317721   0.280   5.137   3.160 -1.1079 -0.4599  3.0572
  125MOL   C11417722   0.067   5.060   2.994 -0.2788 -0.7715  0.2122
  125MOL   C11517723   0.120   4.916   3.008 -0.5736 -0.1417 -0.0404
  125MOL   O11617724   0.005   4.834   2.982  0.5328  0.0741 -0.3947
  125MOL   H11717725   7.509   5.060   3.071 -0.8947 -1.8231 -0.4048
  125MOL   H11817726   0.034   5.062   2.890 -2.1931 -2.1599  0.7766
  125MOL   H11917727   0.166   4.894   3.104  1.3109  2.3629 -0.2972
  125MOL   H12017728   7.457   4.865   3.040  0.2227 -2.6212  0.7432
  125MOL   C12117729   0.226   4.876   2.899 -0.1489 -0.3960 -1.2633
  125MOL   C12217730   0.284   4.733   2.921 -0.0680 -0.3456  0.9035
  125MOL   O12317731   0.347   4.693   2.801  0.1090  0.1953 -0.2922
  125MOL   H12417732   0.170   4.874   2.805 -1.5649  0.4783 -0.4557
  125MOL   H12517733   0.304   4.949   2.879 -0.2089  0.1970  0.5711
  125MOL   H12617734   0.198   4.666   2.934  0.0875 -1.5353 -3.3478
  125MOL   H12717735   0.282   4.658   2.743  1.9615 -1.5826 -1.3633
  125MOL   C12817736   0.376   4.719   3.050  0.4588  0.6758  0.0075
  125MOL   C12917737   0.491   4.617   3.039  0.2801 -0.6182 -0.4909
  125MOL   O13017738   0.563   4.626   3.159  0.6033 -0.1456  0.4604
  125MOL   H13117739   0.413   4.815   3.085  0.1579 -0.8156  4.9193
  125MOL   H13217740   0.309   4.677   3.126  1.8413 -0.1834  0.7656
  125MOL   H13317741   0.559   4.630   2.955  0.9111  0.9239  0.2657
  125MOL   H13417742   0.647   4.587   3.142  0.9363  1.2894 -1.2673
  125MOL   C13517743   0.442   4.475   3.032 -0.2163 -0.6264  0.0582
  125MOL   C13617744   0.541   4.377   2.964 -0.2376 -0.0314 -0.2748
  125MOL   O13717745   0.487   4.250   2.951  1.0464 -0.0261 -0.3019
  125MOL   H13817746   0.430   4.437   3.134 -0.7005 -1.2201 -0.2194
  125MOL   H13917747   0.346   4.473   2.981 -1.6146  0.9913  2.5061
  125MOL   H14017748   0.632   4.373   3.024 -1.8250  0.8142  2.2952
  125MOL   H14117749   0.473   4.229   3.042 -2.5937  1.7481 -0.3642
  125MOL   H14217750   0.572   4.409   2.865 -3.0108 -1.4843 -1.6496
  126MOL     C117751   3.351   5.277   6.365 -0.0830  0.7689 -0.7501
  126MOL     C217752   3.337   5.313   6.506 -0.0401 -1.0147  0.1121
  126MOL     O317753   3.216   5.388   6.534  0.4050  0.1030 -0.4547
  126MOL     H417754   3.427   5.200   6.349 -2.8688 -2.3441  0.3558
  126MOL     H517755   3.377   5.365   6.307  0.1774  0.5168 -1.0158
  126MOL     H617756   3.430   5.365   6.532  1.1996 -2.6120 -1.0240
  126MOL     H717757   3.169   5.410   6.455 -0.4548  0.0829  0.0507
  126MOL     H817758   3.254   5.242   6.330  0.1062 -2.9450  2.1323
  126MOL     C917759   3.333   5.191   6.604 -0.1847 -0.3531  0.0317
  126MOL    C1017760   3.326   5.218   6.755 -0.3082  0.6266 -0.3501
  126MOL    O1117761   3.335   5.089   6.820  0.1449 -0.7570  0.5307
  126MOL    H1217762   3.238   5.139   6.593  0.7813 -2.0855 -0.4412
  126MOL    H1317763   3.411   5.121   6.573 -1.4107 -1.7088 -0.0455
  126MOL    H1417764   3.231   5.254   6.794 -0.5690 -0.5964  0.1762
  126MOL    H1517765   3.411   5.042   6.789  1.3566  1.3728  0.2423
  126MOL    C1617766   3.436   5.314   6.805  0.0316 -0.7126 -0.1164
  126MOL    C1717767   3.424   5.349   6.951 -0.1876  0.2256  0.4731
  126MOL    O1817768   3.550   5.387   7.011 -0.7283 -0.5777  0.2491
  126MOL    H1917769   3.534   5.270   6.789  0.0843  0.1176 -2.2819
  126MOL    H2017770   3.434   5.408   6.750  0.7948 -0.5651  0.1151
  126MOL    H2117771   3.395   5.261   7.008  0.7058 -0.9218 -0.8059
  126MOL    H2217772   3.580   5.466   6.967 -2.4367  0.5549  1.0336
  126MOL    C2317773   3.313   5.455   6.972 -0.0083  0.0388  0.2018
  126MOL    C2417774   3.275   5.464   7.119 -0.0764  0.7340  0.8160
  126MOL    O2517775   3.216   5.594   7.119 -0.0629  0.2390  0.3509
  126MOL    H2617776   3.357   5.551   6.944  1.9464 -0.9724 -0.2724
  126MOL    H2717777   3.222   5.434   6.917 -0.2197  2.6660 -0.5436
  126MOL    H2817778   3.363   5.468   7.183  0.8818 -0.1243 -0.4220
  126MOL    H2917779   3.212   5.611   7.212 -2.4383 -2.5535  0.8366
  126MOL    C3017780   3.162   5.376   7.170 -0.1464 -0.8306  0.4411
  126MOL    C3117781   3.190   5.225   7.168 -0.0885 -0.4057  0.2841
  126MOL    O3217782   3.310   5.194   7.245 -0.1151  0.2446 -0.7817
  126MOL    H3317783   3.129   5.397   7.272 -1.6947 -1.9986  0.2109
  126MOL    H3417784   3.071   5.395   7.114  0.4686 -0.3190 -0.3887
  126MOL    H3517785   3.215   5.198   7.066  2.0619  0.0883  0.6596
  126MOL    H3617786   3.339   5.106   7.231 -0.7052  0.0119 -0.5566
  126MOL    C3717787   3.072   5.145   7.221  0.4517 -0.6628  0.9075
  126MOL    C3817788   3.044   5.000   7.172 -0.0921  0.1716  0.5645
  126MOL    O3917789   2.938   4.952   7.258  0.3021  0.1899 -0.1602
  126MOL    H4017790   3.081   5.144   7.330 -0.8682 -0.0863  1.0293
  126MOL    H4117791   2.978   5.198   7.205 -0.1743 -1.6803  1.1758
  126MOL    H4217792   3.141   4.957   7.198  0.4122  1.0468  0.1394
  126MOL    H4317793   2.960   4.877   7.311  1.9284  1.0702  0.4289
  126MOL    C4417794   3.003   4.982   7.025  0.0103  0.4871  0.1309
  126MOL    C4517795   2.999   4.839   6.977  0.1158  0.2625 -0.3445
  126MOL    O4617796   2.921   4.836   6.856 -1.0675  0.4976  0.2856
  126MOL    H4717797   2.908   5.030   7.005  0.1264  0.9725  0.7005
  126MOL    H4817798   3.077   5.028   6.960  0.5578 -0.1603  0.2880
  126MOL    H4917799   2.945   4.786   7.056  1.4910  1.1707  1.2562
  126MOL    H5017800   2.971   4.892   6.798 -1.4673  0.6062  0.0437
  126MOL    C5117801   3.141   4.775   6.959 -0.3879  0.1659 -0.2492
  126MOL    C5217802   3.140   4.621   6.941 -0.4993 -0.5650 -0.2491
  126MOL    O5317803   3.262   4.579   6.890 -0.2058  0.7725 -0.3827
  126MOL    H5417804   3.178   4.819   6.867  0.2350  0.5125  0.1620
  126MOL    H5517805   3.212   4.797   7.039  0.4459 -0.1725 -0.8881
  126MOL    H5617806   3.065   4.599   6.864  1.0166  0.5675 -2.1015
  126MOL    H5717807   3.259   4.487   6.869 -0.5575  0.6082  0.3861
  126MOL    C5817808   3.111   4.548   7.074 -0.3123  0.7840  0.2283
  126MOL    C5917809   3.097   4.393   7.064  0.0895 -0.9934 -0.2002
  126MOL    O6017810   3.215   4.350   7.131 -0.5495  0.0342 -0.0650
  126MOL    H6117811   3.181   4.568   7.154 -0.1912  0.3186  0.2426
  126MOL    H6217812   3.017   4.593   7.106 -0.9608  0.5112 -1.2127
  126MOL    H6317813   3.103   4.370   6.958  1.1915  1.0107 -0.6112
  126MOL    H6417814   3.297   4.378   7.093 -0.2083  0.7104  1.1664
  126MOL    C6517815   2.979   4.340   7.138 -0.1625 -0.1588 -0.6401
  126MOL    C6617816   2.857   4.353   7.053 -0.3805 -0.9928 -0.3635
  126MOL    O6717817   2.865   4.299   6.921 -0.2789  0.3522  0.1555
  126MOL    H6817818   2.990   4.233   7.158  0.2137  0.3795  2.1878
  126MOL    H6917819   2.965   4.395   7.231  2.5197 -1.1455  0.3916
  126MOL    H7017820   2.849   4.460   7.035 -0.0125 -0.8348  0.4312
  126MOL    H7117821   2.801   4.351   6.874 -0.6667  0.2401  0.5562
  126MOL    C7217822   2.721   4.302   7.117 -0.1823  0.3495 -0.2881
  126MOL    C7317823   2.681   4.364   7.261 -1.0976  0.5741 -0.3424
  126MOL    O7417824   2.769   4.327   7.368  0.2141 -0.1957  0.6887
  126MOL    H7517825   2.630   4.319   7.060  1.0196  2.8190 -1.6000
  126MOL    H7617826   2.727   4.194   7.131 -1.2419  0.0790 -1.7884
  126MOL    H7717827   2.578   4.335   7.284 -1.0097  0.4204 -0.1335
  126MOL    H7817828   2.780   4.234   7.354  2.3323  0.5210 -3.2920
  126MOL    C7917829   2.670   4.519   7.260 -0.5095  0.5641 -0.0560
  126MOL    C8017830   2.601   4.581   7.390 -0.3601  0.9940 -0.7313
  126MOL    O8117831   2.624   4.723   7.410  0.0043 -0.8436 -0.0473
  126MOL    H8217832   2.764   4.569   7.239 -0.2814 -0.3120 -1.1779
  126MOL    H8317833   2.607   4.544   7.175 -1.1478 -0.0196  0.2338
  126MOL    H8417834   2.648   4.525   7.472  0.1858  1.1403 -0.9378
  126MOL    H8517835   2.713   4.738   7.383 -1.1533 -0.5032 -4.0532
  126MOL    C8617836   2.451   4.563   7.401  1.1233 -0.1472  0.6095
  126MOL    C8717837   2.401   4.573   0.027  0.2956 -1.0266  0.3229
  126MOL    O8817838   2.404   4.705   0.070  0.1725 -0.5472 -0.3710
  126MOL    H8917839   2.416   4.640   7.332 -1.3602 -0.6784  1.2613
  126MOL    H9017840   2.426   4.468   7.355  2.7343 -0.4300  0.2684
  126MOL    H9117841   2.474   4.516   0.084  0.0289 -1.0413  0.6479
  126MOL    H9217842   2.486   4.741   0.039  0.4366 -0.9380 -0.1211
  126MOL    C9317843   2.250   4.511   0.058 -0.1219 -0.3710  0.8215
  126MOL    C9417844   2.238   4.364   0.021 -0.5459 -0.1447 -0.1838
  126MOL    O9517845   2.310   4.290   0.120  0.1618  0.0252 -0.0075
  126MOL    H9617846   2.227   4.515   0.165 -1.9734 -0.0644  0.4125
  126MOL    H9717847   2.181   4.581   0.012  0.8695  0.1023  0.0219
  126MOL    H9817848   2.268   4.334   7.440  1.0485  1.9469 -0.3588
  126MOL    H9917849   2.344   4.208   0.088  1.2299 -0.3314  1.9622
  126MOL   C10017850   2.089   4.324   0.039  0.0929  1.0098 -0.3904
  126MOL   C10117851   2.055   4.186   7.497  0.4942  0.3480 -0.1790
  126MOL   O10217852   1.919   4.165   0.018  0.1287 -0.3834 -0.3505
  126MOL   H10317853   2.070   4.336   0.145  0.4971  1.1458 -0.3334
  126MOL   H10417854   2.020   4.396   7.515 -1.2711 -1.4017 -2.3361
  126MOL   H10517855   2.113   4.122   0.044 -0.2783  0.3408  0.4995
  126MOL   H10617856   1.894   4.074   0.012  1.2705 -0.7028 -0.3449
  126MOL   C10717857   2.061   4.177   7.349  0.6360 -0.1146  0.0482
  126MOL   C10817858   2.022   4.038   7.285 -0.2912 -0.2459  0.7140
  126MOL   O10917859   1.973   4.057   7.158  0.2029 -0.5947 -0.1328
  126MOL   H11017860   1.987   4.251   7.319 -1.1125 -1.7690  0.1430
  126MOL   H11117861   2.159   4.197   7.305  1.0858 -0.8047  0.7320
  126MOL   H11217862   1.943   3.987   7.340 -0.1864 -1.3726 -0.1586
  126MOL   H11317863   1.930   3.976   7.135 -0.7531 -0.2661  0.4856
  126MOL   C11417864   2.147   3.943   7.274  0.1235  0.0765  0.0967
  126MOL   C11517865   2.201   3.874   7.405 -0.2176 -0.8231  0.2306
  126MOL   O11617866   2.127   3.750   7.405  0.3096  0.5036 -0.0785
  126MOL   H11717867   2.134   3.864   7.200  1.2055  1.0033 -1.0928
  126MOL   H11817868   2.236   3.989   7.232 -0.6167 -0.4074 -2.0502
  126MOL   H11917869   2.172   3.937   7.490 -0.6747 -0.8061  0.0664
  126MOL   H12017870   2.094   3.721   7.488 -1.7678  0.3130 -0.9481
  126MOL   C12117871   2.351   3.846   7.413 -0.2055  0.4714 -0.1482
  126MOL   C12217872   2.436   3.966   7.444  0.0115 -0.0801 -0.0571
  126MOL   O12317873   2.405   4.036   0.041 -0.0121 -0.3854  0.0487
  126MOL   H12417874   2.378   3.767   7.484 -0.8089 -2.5525 -3.1244
  126MOL   H12517875   2.386   3.807   7.317  0.0661 -0.4326  0.3033
  126MOL   H12617876   2.402   4.032   7.364  1.1283 -0.9818 -1.3111
  126MOL   H12717877   2.447   3.988   0.111  0.3980  0.2032  0.2114
  126MOL   C12817878   2.588   3.950   7.446  0.2889 -0.3057  0.1822
  126MOL   C12917879   2.650   3.933   7.307  0.7973 -0.0468 -0.2589
  126MOL   O13017880   2.760   4.006   7.307  0.2778 -0.2820  0.9965
  126MOL   H13117881   2.632   4.038   7.493 -1.1612 -0.0437  1.1107
  126MOL   H13217882   2.616   3.873   7.518  0.2397 -1.3982 -0.9590
  126MOL   H13317883   2.576   3.976   7.240 -1.6599  0.0230  2.3877
  126MOL   H13417884   2.817   3.985   7.380  2.3451  0.1224 -0.4781
  126MOL   C13517885   2.690   3.787   7.261 -0.3896  0.1351  0.7057
  126MOL   C13617886   2.751   3.788   7.119  0.5428  0.2786  0.1992
  126MOL   O13717887   2.804   3.661   7.072 -0.1152  0.2081 -0.0682
  126MOL   H13817888   2.775   3.752   7.320  1.2960  0.8336 -1.2574
  126MOL   H13917889   2.598   3.730   7.271 -0.4164  0.4549  2.5149
  126MOL   H14017890   2.830   3.863   7.108 -0.2610  0.9337 -1.2247
  126MOL   H14117891   2.800   3.673   6.978 -0.0823 -0.9796 -0.2300
  126MOL   H14217892   2.675   3.818   7.047  0.1629  0.1256  0.5390
  127MOL     C117893   4.822   3.892   6.249 -0.3588 -0.2369  0.8081
  127MOL     C217894   4.912   3.824   6.349  0.1007 -0.1178  0.2119
  127MOL     O317895   4.999   3.747   6.278  0.0548  0.5896 -0.3404
  127MOL     H417896   4.759   3.823   6.192  0.3251  0.9606 -1.4786
  127MOL     H517897   4.874   3.936   6.164  0.3899 -1.3521  0.6697
  127MOL     H617898   4.855   3.753   6.408  1.0005 -0.2440  0.9402
  127MOL     H717899   4.962   3.727   6.193  1.2460  0.4345 -0.8356
  127MOL     H817900   4.751   3.963   6.290 -0.9619 -0.6197  0.4470
  127MOL     C917901   4.996   3.931   6.427  0.1265  0.2569 -0.5356
  127MOL    C1017902   5.074   3.887   6.552  0.4102 -0.2216  0.4099
  127MOL    O1117903   5.189   3.976   6.575  0.1531 -0.1984  0.0075
  127MOL    H1217904   5.050   3.993   6.356  0.1377  2.2370  1.1727
  127MOL    H1317905   4.927   4.006   6.466  1.3246 -0.0085  2.1925
  127MOL    H1417906   5.104   3.783   6.541  2.4387  0.4220 -0.3534
  127MOL    H1517907   5.267   3.928   6.552  0.0893  0.0547 -0.7494
  127MOL    C1617908   4.985   3.905   6.674  0.1236  0.9261 -0.0268
  127MOL    C1717909   5.030   3.834   6.806 -0.2405  0.1821  0.0190
  127MOL    O1817910   4.919   3.854   6.892  0.4471  0.2781 -0.0329
  127MOL    H1917911   4.946   4.005   6.693 -0.1382  1.0433 -1.1319
  127MOL    H2017912   4.890   3.864   6.640  0.8685  0.0008 -1.0571
  127MOL    H2117913   5.118   3.891   6.832 -0.3675 -0.9264  3.1126
  127MOL    H2217914   4.916   3.947   6.912  0.5242  0.0942  0.8725
  127MOL    C2317915   5.063   3.686   6.802 -0.0547  0.0426 -0.8936
  127MOL    C2417916   4.962   3.593   6.724  0.0087 -0.1473  0.3256
  127MOL    O2517917   5.019   3.465   6.727 -0.3624 -0.2573 -0.5029
  127MOL    H2617918   5.162   3.662   6.763  0.1465 -1.3878  0.4572
  127MOL    H2717919   5.075   3.642   6.901 -0.4766 -1.4374 -1.4847
  127MOL    H2817920   4.953   3.616   6.618  0.7042 -0.3459  0.2191
  127MOL    H2917921   4.971   3.400   6.679  1.3239 -1.1019 -1.0743
  127MOL    C3017922   4.818   3.576   6.790  0.2528 -0.0124  0.4452
  127MOL    C3117923   4.703   3.624   6.697  0.3671 -0.0636 -0.4493
  127MOL    O3217924   4.705   3.558   6.573  0.1986  0.3735 -0.2602
  127MOL    H3317925   4.801   3.475   6.826  1.3229 -0.2655  0.2416
  127MOL    H3417926   4.824   3.631   6.884  1.5920 -2.1703  1.6587
  127MOL    H3517927   4.734   3.728   6.685  0.9500 -0.1874 -0.0398
  127MOL    H3617928   4.669   3.620   6.513  0.8043  2.8908  1.8644
  127MOL    C3717929   4.568   3.609   6.765 -0.6743  0.2662  0.1869
  127MOL    C3817930   4.563   3.673   6.907 -0.5493 -1.3103  0.6107
  127MOL    O3917931   4.610   3.808   6.883  0.1986 -0.2418  0.1528
  127MOL    H4017932   4.505   3.665   6.696 -0.6840  0.8258  0.6461
  127MOL    H4117933   4.535   3.506   6.773  0.5352 -0.2872 -1.8555
  127MOL    H4217934   4.627   3.626   6.981 -0.8674 -1.0022  1.0808
  127MOL    H4317935   4.687   3.827   6.934 -0.4766  0.4842  0.9269
  127MOL    C4417936   4.420   3.675   6.967 -0.5524  1.0125  1.0063
  127MOL    C4517937   4.396   3.761   7.094 -0.5460 -0.1846 -0.0716
  127MOL    O4617938   4.255   3.772   7.114 -0.1020 -0.1183 -0.1582
  127MOL    H4717939   4.359   3.713   6.885  0.6388  1.3229  0.2476
  127MOL    H4817940   4.391   3.572   6.990  0.7415  0.3910 -0.0396
  127MOL    H4917941   4.435   3.861   7.079  0.9016 -0.5654  1.1275
  127MOL    H5017942   4.210   3.710   7.059  0.7118 -1.3910  0.5840
  127MOL    C5117943   4.452   3.698   7.225 -0.1187  0.7962 -0.6186
  127MOL    C5217944   4.467   3.795   7.344 -0.3665 -0.2290 -0.0838
  127MOL    O5317945   4.333   3.818   7.384  0.2864 -0.2767 -0.1623
  127MOL    H5417946   4.408   3.603   7.254  0.9829  0.2726 -0.6148
  127MOL    H5517947   4.555   3.666   7.208 -0.6449 -0.3974 -1.6128
  127MOL    H5617948   4.519   3.886   7.313  0.5490  0.0999  2.3753
  127MOL    H5717949   4.298   3.828   7.297  0.2280  2.2095  0.0961
  127MOL    C5817950   4.556   3.737   7.458  0.8594 -0.7561 -0.0070
  127MOL    C5917951   4.554   3.828   0.063 -0.6014  0.8093 -0.3666
  127MOL    O6017952   4.475   3.768   0.166 -0.1020 -0.4149 -0.4118
  127MOL    H6117953   4.537   3.632   7.480  1.8157 -0.5301  1.9904
  127MOL    H6217954   4.657   3.731   7.417  1.5210 -0.5579  1.5561
  127MOL    H6317955   4.506   3.923   0.040  0.9253  1.2546 -1.7967
  127MOL    H6417956   4.388   3.805   0.159 -0.4221 -0.9801  0.4983
  127MOL    C6517957   4.694   3.864   0.126  1.0838  0.0106  1.1060
  127MOL    C6617958   4.702   3.973   0.240  0.1055  0.3053  0.9332
  127MOL    O6717959   4.603   3.952   0.336  0.1848  0.2795 -0.0910
  127MOL    H6817960   4.735   3.766   0.151 -1.2698 -1.2883 -0.0042
  127MOL    H6917961   4.755   3.894   0.041  0.0137 -2.3833 -0.5652
  127MOL    H7017962   4.675   4.068   0.194 -2.8453 -0.8768  0.1458
  127MOL    H7117963   4.545   3.892   0.293 -1.0636 -1.0608  3.3188
  127MOL    C7217964   4.841   3.987   0.314 -0.6632 -0.9119  0.3269
  127MOL    C7317965   4.967   4.010   0.225 -0.2408  0.2018  0.5081
  127MOL    O7417966   4.953   4.117   0.137 -0.3318  0.5397 -0.1260
  127MOL    H7517967   4.840   4.075   0.378  1.7520 -0.0684 -0.7243
  127MOL    H7617968   4.853   3.904   0.383  3.8863 -0.4181  0.2945
  127MOL    H7717969   4.984   3.922   0.163 -2.9693 -0.0388  0.0348
  127MOL    H7817970   5.021   4.181   0.155  0.0204 -0.1217  0.9615
  127MOL    C7917971   5.095   4.039   0.300 -0.2590  0.0357 -0.1192
  127MOL    C8017972   5.181   3.917   0.343 -0.2978  0.3902  0.0355
  127MOL    O8117973   5.284   3.982   0.409  0.5801  0.0389 -0.0621
  127MOL    H8217974   5.163   4.097   0.238  3.2102  0.0997  3.4990
  127MOL    H8317975   5.059   4.096   0.386 -2.3069  0.7247 -1.4129
  127MOL    H8417976   5.229   3.871   0.257  0.2492  1.3523 -0.1870
  127MOL    H8517977   5.366   3.960   0.366  1.1298 -0.0469  1.0028
  127MOL    C8617978   5.115   3.810   0.431 -0.1196  0.6044 -0.9772
  127MOL    C8717979   5.219   3.698   0.468  0.5713 -0.1804 -0.2431
  127MOL    O8817980   5.161   3.610   0.571 -0.0175 -0.1433 -0.4465
  127MOL    H8917981   5.073   3.860   0.518 -2.6806  0.0996 -1.8752
  127MOL    H9017982   5.041   3.764   0.366 -1.4169 -0.2774  1.0785
  127MOL    H9117983   5.309   3.747   0.507 -0.1476 -0.6140  2.0631
  127MOL    H9217984   5.224   3.540   0.581 -0.8985 -0.8980 -0.0991
  127MOL    C9317985   5.261   3.602   0.349 -0.8548 -0.2117  0.3614
  127MOL    C9417986   5.379   3.510   0.392  0.4219 -0.1201 -0.8970
  127MOL    O9517987   5.341   3.428   0.499  0.0655 -0.1920 -0.0558
  127MOL    H9617988   5.185   3.549   0.292 -0.8349  0.7298 -0.5513
  127MOL    H9717989   5.294   3.671   0.272  1.3880  1.0853  2.4063
  127MOL    H9817990   5.445   3.572   0.453  1.9752 -1.9391 -0.7218
  127MOL    H9917991   5.272   3.369   0.474 -0.6611 -0.0249  1.5222
  127MOL   C10017992   5.454   3.435   0.280  0.1965 -0.1083  0.1259
  127MOL   C10117993   5.507   3.511   0.159  0.6033 -0.0010  0.4104
  127MOL   O10217994   5.598   3.614   0.180  0.0716  1.2041  0.5620
  127MOL   H10317995   5.537   3.387   0.332  2.9726 -0.0904 -4.0564
  127MOL   H10417996   5.392   3.353   0.244 -0.7646 -0.7328  3.0813
  127MOL   H10517997   5.417   3.558   0.119  0.6074  1.4209  2.0171
  127MOL   H10617998   5.675   3.566   0.208 -0.8859 -0.0802  1.0565
  127MOL   C10717999   5.566   3.422   0.039  0.6345  0.4960 -0.3340
  127MOL   C10818000   5.622   3.507   7.440  0.0342 -0.5218  0.6831
  127MOL   O10918001   5.707   3.420   7.366  0.1277 -0.7933  0.2786
  127MOL   H11018002   5.649   3.376   0.093 -0.2849  0.3036  0.9561
  127MOL   H11118003   5.496   3.345   0.006 -0.1975  1.7718 -1.6056
  127MOL   H11218004   5.692   3.582   7.476  1.5489 -1.3692 -0.4301
  127MOL   H11318005   5.659   3.367   7.304  0.9787  1.6206 -2.5702
  127MOL   C11418006   5.515   3.560   7.347 -0.1281  0.1732 -0.0134
  127MOL   C11518007   5.575   3.635   7.227  0.4383  0.3645 -0.0348
  127MOL   O11618008   5.484   3.626   7.118  0.6083 -0.0910  0.2208
  127MOL   H11718009   5.435   3.490   7.324  0.6662 -0.2542 -1.5804
  127MOL   H11818010   5.462   3.633   7.409  0.2722 -1.6149  2.5336
  127MOL   H11918011   5.659   3.579   7.187  1.0743  0.8016  0.6771
  127MOL   H12018012   5.529   3.630   7.035 -1.2223 -1.8073 -0.9078
  127MOL   C12118013   5.620   3.778   7.261 -0.7287 -0.2143  0.0024
  127MOL   C12218014   5.750   3.816   7.199  0.1496 -0.4461 -0.1089
  127MOL   O12318015   5.757   3.960   7.206 -0.3105  0.4830 -0.6598
  127MOL   H12418016   5.537   3.843   7.234 -1.0019 -0.2049  0.8608
  127MOL   H12518017   5.624   3.790   7.369  0.4208 -0.2357 -0.0280
  127MOL   H12618018   5.749   3.788   7.093  0.1398  1.3343 -0.5984
  127MOL   H12718019   5.805   3.981   7.127 -1.4128 -2.5351 -2.1948
  127MOL   C12818020   5.875   3.747   7.247 -0.0649 -0.0322  0.3338
  127MOL   C12918021   5.991   3.722   7.144 -0.1278  0.3472 -0.6661
  127MOL   O13018022   6.108   3.674   7.211 -0.5770 -0.1148  0.0982
  127MOL   H13118023   5.913   3.789   7.340 -0.6965 -2.2014  1.6126
  127MOL   H13218024   5.850   3.646   7.279 -0.7142 -0.8162 -2.4759
  127MOL   H13318025   6.030   3.816   7.106  2.1403  0.7511  2.4743
  127MOL   H13418026   6.108   3.583   7.238 -0.5339 -0.4001 -0.8565
  127MOL   C13518027   5.960   3.624   7.017 -0.3659 -0.3570 -0.3288
  127MOL   C13618028   5.951   3.698   6.878  0.3555 -0.3299 -0.1953
  127MOL   O13718029   5.914   3.598   6.783  0.0769 -0.2784 -0.0270
  127MOL   H13818030   6.034   3.544   7.025  1.3758  1.1756 -0.7883
  127MOL   H13918031   5.865   3.580   7.049 -0.2763  0.4029  0.9717
  127MOL   H14018032   6.044   3.745   6.847  0.5487 -0.2211  0.5476
  127MOL   H14118033   5.983   3.592   6.718 -1.1396  0.3523 -1.4252
  127MOL   H14218034   5.872   3.773   6.871  0.5223 -0.0751  0.5696
  128MOL     C118035   1.194   4.789   2.316  0.0897 -0.3294  0.4658
  128MOL     C218036   1.304   4.710   2.242 -0.4494  0.3783 -0.1133
  128MOL     O318037   1.236   4.645   2.138  0.1962 -0.0728 -0.0574
  128MOL     H418038   1.115   4.727   2.360 -1.9459  2.2019  0.4770
  128MOL     H518039   1.152   4.860   2.245  1.7230 -1.1962 -1.3928
  128MOL     H618040   1.366   4.648   2.306 -0.5889  0.2479 -0.1023
  128MOL     H718041   1.302   4.611   2.079  0.1865 -0.7852  0.3290
  128MOL     H818042   1.251   4.841   2.393 -1.5545 -1.9960  2.9362
  128MOL     C918043   1.391   4.811   2.168  0.4378  0.4454 -0.6757
  128MOL    C1018044   1.525   4.754   2.123  0.1523 -0.2819 -0.2301
  128MOL    O1118045   1.513   4.628   2.045 -0.6587 -0.0708 -0.2901
  128MOL    H1218046   1.351   4.853   2.076  1.1791 -0.7540 -1.5563
  128MOL    H1318047   1.417   4.897   2.229  2.6409  1.2416 -2.6717
  128MOL    H1418048   1.575   4.722   2.215 -1.1228 -0.0946  0.5481
  128MOL    H1518049   1.597   4.590   2.024  0.8465  2.0223  1.6711
  128MOL    C1618050   1.625   4.839   2.041  0.3697  0.0252 -0.1059
  128MOL    C1718051   1.657   4.977   2.099 -0.3598  0.2482  0.1089
  128MOL    O1818052   1.707   4.977   2.237 -0.1310 -0.4480  0.0027
  128MOL    H1918053   1.722   4.788   2.033  0.2760 -0.0259 -0.9879
  128MOL    H2018054   1.586   4.858   1.941 -0.1250  2.0331  0.4550
  128MOL    H2118055   1.567   5.039   2.095  0.6939  1.8397  0.7138
  128MOL    H2218056   1.644   5.022   2.292 -0.5637  1.2913 -1.8707
  128MOL    C2318057   1.756   5.049   2.009  0.2834  0.5836  0.6377
  128MOL    C2418058   1.701   5.098   1.875 -0.0350  0.5206 -0.0214
  128MOL    O2518059   1.611   5.208   1.904  0.4516 -0.3766  0.1233
  128MOL    H2618060   1.801   5.132   2.063  0.4205  0.6192  0.4707
  128MOL    H2718061   1.837   4.978   1.989 -0.8721 -0.3353 -0.9634
  128MOL    H2818062   1.632   5.027   1.830  2.6150 -2.2436  0.1497
  128MOL    H2918063   1.521   5.185   1.889  0.0490  1.1213  0.1803
  128MOL    C3018064   1.805   5.146   1.777  0.0632  0.0943  0.1173
  128MOL    C3118065   1.861   5.033   1.699 -0.5648  0.6716  0.1696
  128MOL    O3218066   1.758   4.979   1.629 -0.4374 -0.2935  0.5043
  128MOL    H3318067   1.763   5.221   1.710 -0.6263  0.1801  0.6439
  128MOL    H3418068   1.887   5.187   1.836 -0.3107 -1.0974  1.5045
  128MOL    H3518069   1.901   4.951   1.759 -1.4338 -1.0463 -1.5400
  128MOL    H3618070   1.793   4.932   1.555 -0.3248  0.0956  0.3103
  128MOL    C3718071   1.968   5.093   1.607 -0.3527  0.5156  0.0393
  128MOL    C3818072   2.040   4.981   1.515 -0.9430 -0.6922  0.3171
  128MOL    O3918073   1.949   4.913   1.433  0.0392  0.2406 -0.1941
  128MOL    H4018074   1.926   5.178   1.552  1.0628 -0.1214 -2.0834
  128MOL    H4118075   2.043   5.139   1.671 -0.7434  0.2309  0.7128
  128MOL    H4218076   2.094   4.907   1.573  2.0205  1.4196  0.4234
  128MOL    H4318077   1.899   4.977   1.385  1.1256  0.8079 -0.5774
  128MOL    C4418078   2.147   5.055   1.423  0.5510 -0.3033 -0.6552
  128MOL    C4518079   2.274   5.098   1.489  0.6442 -0.5127  0.5187
  128MOL    O4618080   2.324   4.983   1.540 -0.0753 -0.1527 -0.2541
  128MOL    H4718081   2.174   4.983   1.346  1.7941 -1.1820  0.5876
  128MOL    H4818082   2.111   5.148   1.379 -1.8714 -0.7063  0.3799
  128MOL    H4918083   2.265   5.174   1.567  1.4394 -0.9442  1.0409
  128MOL    H5018084   2.354   4.938   1.462  0.5503  0.2631 -0.2556
  128MOL    C5118085   2.381   5.151   1.394 -0.2103  0.3996  0.6759
  128MOL    C5218086   2.527   5.181   1.444 -0.5255 -1.3050 -0.4303
  128MOL    O5318087   2.607   5.213   1.329  0.1104  0.2683 -0.3804
  128MOL    H5418088   2.376   5.090   1.304 -2.4146 -0.3618  1.2809
  128MOL    H5518089   2.356   5.248   1.350 -0.8860  0.3458  0.9441
  128MOL    H5618090   2.563   5.091   1.493  0.8075 -0.9207 -0.6843
  128MOL    H5718091   2.635   5.127   1.301 -1.3005  0.0913 -1.2778
  128MOL    C5818092   2.526   5.303   1.533  0.2204 -0.3022 -0.3211
  128MOL    C5918093   2.663   5.339   1.609  0.9999 -0.2817 -0.7353
  128MOL    O6018094   2.642   5.463   1.684  0.8815 -0.1553  0.0373
  128MOL    H6118095   2.479   5.388   1.484 -0.4133 -0.2004  0.4485
  128MOL    H6218096   2.459   5.273   1.614 -1.1556  2.0961 -0.4975
  128MOL    H6318097   2.739   5.355   1.533  0.6193 -0.5365 -1.1703
  128MOL    H6418098   2.633   5.538   1.627  1.0738 -1.2822 -1.5228
  128MOL    C6518099   2.713   5.225   1.690 -0.3037  0.0136 -0.0328
  128MOL    C6618100   2.622   5.148   1.787 -0.5982 -0.4756  0.4288
  128MOL    O6718101   2.676   5.022   1.818  0.3318 -0.1050  0.1514
  128MOL    H6818102   2.741   5.160   1.607 -1.6875  0.4233 -0.8329
  128MOL    H6918103   2.810   5.260   1.727  0.0090 -0.6700 -0.1830
  128MOL    H7018104   2.522   5.131   1.746 -0.1893  0.2755 -0.9012
  128MOL    H7118105   2.752   5.035   1.873  0.8150  0.8846 -0.7546
  128MOL    C7218106   2.602   5.238   1.913  0.4343 -0.4065 -0.1881
  128MOL    C7318107   2.486   5.186   2.005  0.0070  0.3790  0.2989
  128MOL    O7418108   2.485   5.264   2.125  0.7336  0.3916  0.2801
  128MOL    H7518109   2.690   5.230   1.976 -0.4390 -0.4622  1.0250
  128MOL    H7618110   2.577   5.342   1.890  0.6295 -0.0888  1.0172
  128MOL    H7718111   2.525   5.089   2.035  0.0614  0.0807 -0.7421
  128MOL    H7818112   2.481   5.352   2.089  1.1449  0.0267 -0.6696
  128MOL    C7918113   2.341   5.183   1.946  0.3164  0.3602  0.0196
  128MOL    C8018114   2.248   5.080   2.016  0.3773  0.0337  0.1617
  128MOL    O8118115   2.120   5.135   1.993  0.0964  0.2586 -0.0145
  128MOL    H8218116   2.311   5.287   1.954 -1.6959 -0.0802 -1.4870
  128MOL    H8318117   2.341   5.163   1.839  0.1130 -0.2698  0.1309
  128MOL    H8418118   2.269   5.092   2.122 -0.5428  2.4009  0.1159
  128MOL    H8518119   2.094   5.181   2.072  0.3328  0.9535 -0.3372
  128MOL    C8618120   2.265   4.939   1.960  0.6830 -0.5814  0.3608
  128MOL    C8718121   2.193   4.816   2.024 -0.5777  0.2248  0.1846
  128MOL    O8818122   2.252   4.689   1.981 -0.1777  0.3518  0.7326
  128MOL    H8918123   2.237   4.942   1.855  3.2322 -3.1580 -0.4779
  128MOL    H9018124   2.372   4.924   1.942 -0.0708 -1.9648 -3.4687
  128MOL    H9118125   2.089   4.811   1.991 -0.7514  0.3628  0.7140
  128MOL    H9218126   2.246   4.688   1.887 -3.4913 -0.1187  0.8981
  128MOL    C9318127   2.186   4.807   2.181  0.5673 -0.0178  0.3009
  128MOL    C9418128   2.067   4.888   2.228  0.6157  0.0839 -0.0261
  128MOL    O9518129   1.945   4.824   2.205  0.5004 -0.2022  0.0433
  128MOL    H9618130   2.151   4.709   2.215 -1.4686  0.1977 -1.1144
  128MOL    H9718131   2.281   4.831   2.229  0.2319 -0.2263  1.0730
  128MOL    H9818132   2.077   4.973   2.161  1.2660 -0.6473 -0.8687
  128MOL    H9918133   1.882   4.892   2.222  2.3630  1.2379  1.4760
  128MOL   C10018134   2.076   4.915   2.376 -0.2264  0.1275  0.1667
  128MOL   C10118135   2.204   4.988   2.428 -0.7596  0.1342 -0.5055
  128MOL   O10218136   2.214   5.129   2.401  0.4797 -0.5918  0.2490
  128MOL   H10318137   1.993   4.971   2.420 -0.1514  0.7658 -0.5035
  128MOL   H10418138   2.078   4.823   2.435 -2.5344  0.1028  0.2356
  128MOL   H10518139   2.297   4.953   2.383 -0.3852  1.3322 -0.6848
  128MOL   H10618140   2.304   5.154   2.397  0.8613 -1.5309  2.2346
  128MOL   C10718141   2.242   4.981   2.579  0.4369 -0.3015  0.8944
  128MOL   C10818142   2.271   4.840   2.634  0.0014  0.8261 -0.9033
  128MOL   O10918143   2.167   4.751   2.633 -0.5886 -0.2057 -0.8682
  128MOL   H11018144   2.330   5.044   2.593 -1.1781  1.6535  2.4783
  128MOL   H11118145   2.156   5.021   2.633  0.4176  0.8558  0.0193
  128MOL   H11218146   2.305   4.860   2.735  0.1105 -1.5350 -0.4485
  128MOL   H11318147   2.204   4.664   2.632 -2.3221 -0.9465 -1.5972
  128MOL   C11418148   2.381   4.771   2.560  0.4157 -0.6714  0.8842
  128MOL   C11518149   2.473   4.674   2.642  0.0717 -0.2097 -0.1114
  128MOL   O11618150   2.406   4.554   2.675  0.2710  0.5382 -0.2949
  128MOL   H11718151   2.346   4.729   2.465  1.3716 -4.2326  2.0193
  128MOL   H11818152   2.450   4.849   2.528 -0.9236  0.0024 -0.4498
  128MOL   H11918153   2.498   4.719   2.738  0.4536  0.4387 -0.5093
  128MOL   H12018154   2.470   4.485   2.665 -2.1589 -1.6354 -1.2505
  128MOL   C12118155   2.599   4.642   2.559  0.0069  0.4073  0.3102
  128MOL   C12218156   2.711   4.554   2.612 -0.5740 -0.0119 -0.7203
  128MOL   O12318157   2.663   4.425   2.661  0.7086 -0.1064  0.0309
  128MOL   H12418158   2.564   4.604   2.463  0.0476  2.1862 -0.4460
  128MOL   H12518159   2.646   4.739   2.539  0.5571 -0.0521 -0.6627
  128MOL   H12618160   2.753   4.603   2.699 -0.1118  0.7759 -1.3783
  128MOL   H12718161   2.738   4.368   2.670 -0.6600 -1.8121  1.0848
  128MOL   C12818162   2.820   4.527   2.509  0.1563  0.1691  0.1106
  128MOL   C12918163   2.884   4.651   2.448  0.5112 -0.4229  0.4173
  128MOL   O13018164   2.925   4.737   2.554 -0.0926  0.1751 -0.0593
  128MOL   H13118165   2.903   4.476   2.558  1.5278  2.8873  0.7060
  128MOL   H13218166   2.767   4.472   2.430 -2.5617  0.8153  1.4232
  128MOL   H13318167   2.811   4.703   2.385 -0.4047 -2.0334  0.1129
  128MOL   H13418168   2.905   4.828   2.537  0.8223  0.0568 -1.9255
  128MOL   C13518169   2.990   4.608   2.346 -0.4177 -0.5360  0.0327
  128MOL   C13618170   3.032   4.729   2.252  0.2512  0.5382  0.0899
  128MOL   O13718171   3.115   4.685   2.149  0.6200 -0.3186 -0.0660
  128MOL   H13818172   3.069   4.558   2.401  1.0274  2.7290  0.9726
  128MOL   H13918173   2.940   4.543   2.273  1.7198 -2.4221  0.1886
  128MOL   H14018174   3.073   4.808   2.314  0.5518  4.0296 -4.3336
  128MOL   H14118175   3.197   4.674   2.196  0.0214  0.3148  1.1472
  128MOL   H14218176   2.946   4.775   2.203 -0.7226 -1.0805  0.2261
  129MOL     C118177   5.703   6.018   3.854  0.5098  0.4424 -0.0837
  129MOL     C218178   5.722   6.058   4.010  0.2714  0.1616  0.4452
  129MOL     O318179   5.864   6.069   4.037 -0.9882  0.0167 -0.4366
  129MOL     H418180   5.740   6.091   3.783 -0.0469 -1.3813 -2.3058
  129MOL     H518181   5.598   6.001   3.831  0.2309 -0.2873  1.6039
  129MOL     H618182   5.693   5.975   4.074 -0.0400  0.4412  0.6693
  129MOL     H718183   5.898   6.043   3.953  0.5541  1.8162 -0.3924
  129MOL     H818184   5.761   5.927   3.834 -0.5789 -1.0572  3.2458
  129MOL     C918185   5.650   6.186   4.048 -0.1309 -0.3406 -0.4014
  129MOL    C1018186   5.653   6.201   4.198  0.0097 -0.2636  0.1648
  129MOL    O1118187   5.789   6.216   4.246  0.6672 -0.1890  0.4580
  129MOL    H1218188   5.684   6.275   3.996 -0.4726  0.5382  0.8426
  129MOL    H1318189   5.547   6.158   4.023 -0.6868  0.9201  0.4171
  129MOL    H1418190   5.618   6.108   4.242 -0.8802 -0.3946 -0.7977
  129MOL    H1518191   5.836   6.154   4.193  1.8861  0.4077  0.8284
  129MOL    C1618192   5.559   6.308   4.265  0.6429 -0.7077  0.4323
  129MOL    C1718193   5.404   6.282   4.275 -0.2152 -0.3207  0.1283
  129MOL    O1818194   5.382   6.151   4.323  0.2632  0.3137 -0.3883
  129MOL    H1918195   5.588   6.314   4.370 -0.8980 -0.2794  0.8497
  129MOL    H2018196   5.561   6.409   4.224 -3.0951 -0.5458  0.4846
  129MOL    H2118197   5.364   6.296   4.175  0.1245  1.5979  0.2339
  129MOL    H2218198   5.290   6.140   4.342  0.6410 -1.3884  0.6406
  129MOL    C2318199   5.333   6.383   4.373 -0.2156  0.3412 -0.0824
  129MOL    C2418200   5.315   6.522   4.311 -0.5090 -0.8478  0.4850
  129MOL    O2518201   5.211   6.520   4.216 -0.0073  0.0114  0.4062
  129MOL    H2618202   5.233   6.348   4.398 -0.4517  2.9537  2.9684
  129MOL    H2718203   5.387   6.390   4.468  0.7316 -1.1183 -0.5082
  129MOL    H2818204   5.404   6.557   4.259  0.5967 -0.4087  2.6188
  129MOL    H2918205   5.222   6.580   4.143 -1.3224  1.0656  1.0495
  129MOL    C3018206   5.290   6.637   4.408  0.2180 -0.2096 -0.8047
  129MOL    C3118207   5.358   6.774   4.380  0.0009  0.6826  0.4775
  129MOL    O3218208   5.262   6.846   4.301  0.2500 -0.5089  0.0661
  129MOL    H3318209   5.182   6.650   4.414  0.3930  1.8922 -1.9066
  129MOL    H3418210   5.324   6.608   4.507 -2.3197 -0.8890 -0.0937
  129MOL    H3518211   5.454   6.750   4.335 -1.0028  1.2510 -2.0647
  129MOL    H3618212   5.269   6.810   4.213 -0.8533 -1.0696  0.2000
  129MOL    C3718213   5.379   6.861   4.507  0.0761  0.0093  0.8231
  129MOL    C3818214   5.503   6.812   4.583 -0.4300 -0.1859 -0.1222
  129MOL    O3918215   5.611   6.875   4.520 -0.3042  0.1562  0.2194
  129MOL    H4018216   5.384   6.968   4.487  1.0813 -0.2483 -0.4215
  129MOL    H4118217   5.284   6.848   4.558 -2.0718 -1.8050 -3.3420
  129MOL    H4218218   5.508   6.704   4.570  1.5650 -0.5741  3.1399
  129MOL    H4318219   5.686   6.823   4.546 -1.9328 -2.3992 -0.0169
  129MOL    C4418220   5.507   6.854   4.730 -0.2763  0.0882 -0.1352
  129MOL    C4518221   5.415   6.770   4.820 -0.0663  0.2154  0.3641
  129MOL    O4618222   5.451   6.633   4.832  0.0024 -0.5282 -0.2972
  129MOL    H4718223   5.608   6.845   4.770  1.6087  1.7149 -4.2245
  129MOL    H4818224   5.485   6.960   4.737  3.3593  1.0636 -2.0992
  129MOL    H4918225   5.311   6.772   4.786 -0.5757 -2.3206  1.7377
  129MOL    H5018226   5.391   6.603   4.899 -0.4661  1.6288  0.3186
  129MOL    C5118227   5.402   6.836   4.960 -0.5632  0.1325 -0.2960
  129MOL    C5218228   5.283   6.792   5.047  0.6489  0.5371  0.1684
  129MOL    O5318229   5.314   6.666   5.086 -0.5515 -0.0310 -0.2387
  129MOL    H5418230   5.497   6.826   5.012 -0.6221 -0.3424 -0.2752
  129MOL    H5518231   5.391   6.941   4.933  0.2176  0.1936 -0.3917
  129MOL    H5618232   5.200   6.797   4.977  0.7501  2.1133  0.1316
  129MOL    H5718233   5.245   6.617   5.128  0.0331 -1.5790 -1.0224
  129MOL    C5818234   5.261   6.881   5.171 -0.9122  0.2894 -0.0225
  129MOL    C5918235   5.222   7.033   5.147  0.1728 -0.0652 -1.2178
  129MOL    O6018236   5.096   7.042   5.082 -0.1331  0.2058 -0.9944
  129MOL    H6118237   5.175   6.845   5.228 -0.8683  1.0155  0.5125
  129MOL    H6218238   5.344   6.874   5.241 -0.6822 -1.0551 -0.4133
  129MOL    H6318239   5.299   7.085   5.090  0.7799 -1.3089 -1.5424
  129MOL    H6418240   5.031   6.990   5.127  1.5558  1.0635  2.6799
  129MOL    C6518241   5.210   7.122   5.273 -0.8428  0.3546  0.1057
  129MOL    C6618242   5.333   7.205   5.310  0.2309  0.3716  0.0764
  129MOL    O6718243   5.295   7.297   5.416  0.3075  0.4389 -0.0954
  129MOL    H6818244   5.124   7.189   5.268 -0.8487  0.4307  1.0271
  129MOL    H6918245   5.177   7.064   5.359  0.5272  0.5170  0.7529
  129MOL    H7018246   5.354   7.259   5.218  2.7615 -0.3550  0.1669
  129MOL    H7118247   5.322   7.386   5.399 -0.5333  1.1953  2.3470
  129MOL    C7218248   5.462   7.131   5.364  0.3332  0.1036 -0.6454
  129MOL    C7318249   5.449   7.043   5.493  0.5784 -0.4145 -0.2645
  129MOL    O7418250   5.554   6.945   5.488  0.4722  0.2657 -0.1826
  129MOL    H7518251   5.492   7.059   5.288  0.6705  2.4352 -2.7568
  129MOL    H7618252   5.546   7.198   5.374  0.8985 -0.9625  2.4787
  129MOL    H7718253   5.357   6.988   5.477  0.4567 -0.1767 -0.3820
  129MOL    H7818254   5.548   6.898   5.407 -1.8118 -1.0971  0.7094
  129MOL    C7918255   5.455   7.119   5.631 -0.0181 -0.1303  0.0410
  129MOL    C8018256   5.413   7.031   5.745  0.0036 -0.3337  0.5768
  129MOL    O8118257   5.495   7.064   5.858 -0.2443  0.1815 -0.1737
  129MOL    H8218258   5.560   7.149   5.641 -0.3853  0.2975  2.9729
  129MOL    H8318259   5.404   7.215   5.617 -0.7301 -1.0029 -3.9115
  129MOL    H8418260   5.428   6.927   5.716  3.7166  0.7326 -1.6375
  129MOL    H8518261   5.499   7.159   5.854  0.5688  0.1901  0.8164
  129MOL    C8618262   5.273   7.060   5.793 -0.0545 -0.8484  0.2492
  129MOL    C8718263   5.151   7.060   5.690 -0.2381  0.1807 -0.1674
  129MOL    O8818264   5.120   6.929   5.661  0.2241 -0.3190 -0.6105
  129MOL    H8918265   5.251   6.994   5.876 -0.9582  1.7430  2.1523
  129MOL    H9018266   5.271   7.160   5.836  2.2324 -0.5140 -0.3369
  129MOL    H9118267   5.181   7.112   5.599 -1.1038  1.1326  0.0877
  129MOL    H9218268   5.145   6.883   5.740 -0.5452 -1.2745 -0.9196
  129MOL    C9318269   5.025   7.145   5.734 -0.5996 -0.7163 -0.6297
  129MOL    C9418270   4.908   7.167   5.631  0.4201 -0.4101 -0.5467
  129MOL    O9518271   4.880   7.044   5.564  0.0839  0.2003 -0.2687
  129MOL    H9618272   4.988   7.098   5.825  1.4519 -1.0168  0.0792
  129MOL    H9718273   5.063   7.236   5.779 -0.2735 -1.0712 -0.1807
  129MOL    H9818274   4.951   7.222   5.547  1.2724 -1.3347 -0.7263
  129MOL    H9918275   4.953   6.989   5.587 -0.4746 -0.7801 -0.8396
  129MOL   C10018276   4.788   7.235   5.703 -0.2252  0.5216 -0.0785
  129MOL   C10118277   4.660   7.276   5.621 -0.0606  0.2156  0.5242
  129MOL   O10218278   4.583   7.164   5.607  0.1953 -0.2673 -0.4672
  129MOL   H10318279   4.768   7.179   5.795  1.5537  0.6599  0.4172
  129MOL   H10418280   4.832   7.329   5.737  1.1523  0.5552 -1.9305
  129MOL   H10518281   4.685   7.305   5.519 -1.7481  0.6189  0.2049
  129MOL   H10618282   4.613   7.114   5.533  0.8659 -0.6335  0.0372
  129MOL   C10718283   4.571   7.383   5.694 -0.2605  0.7263 -0.3481
  129MOL   C10818284   4.634   7.518   5.738  0.2408 -0.4514  0.0771
  129MOL   O10918285   4.673   0.069   5.628 -0.0932 -0.1791  0.1301
  129MOL   H11018286   4.475   7.379   5.644 -0.9947  0.7031  1.0371
  129MOL   H11118287   4.550   7.327   5.785  2.1581 -1.3367 -0.9983
  129MOL   H11218288   4.728   7.518   5.793  0.3394 -0.9849 -0.0901
  129MOL   H11318289   4.739   0.026   5.576 -3.0574 -0.2146 -3.8731
  129MOL   C11418290   4.534   0.087   5.819  0.8334 -0.4891 -0.1875
  129MOL   C11518291   4.475   0.023   5.947  0.5611 -0.0822 -0.1042
  129MOL   O11618292   4.584   0.011   6.029 -1.5859 -0.3327 -0.5468
  129MOL   H11718293   4.579   0.186   5.831  1.1743 -0.6914  0.2322
  129MOL   H11818294   4.452   0.108   5.751  1.2949  0.2442 -0.5226
  129MOL   H11918295   4.427   7.448   5.922 -1.4396  1.1489 -1.0205
  129MOL   H12018296   4.559   7.465   6.093 -1.3088  1.1210  1.0887
  129MOL   C12118297   4.363   0.120   6.008 -0.4764 -0.0201 -0.2697
  129MOL   C12218298   4.268   0.055   6.112 -0.0473  0.3811  0.0048
  129MOL   O12318299   4.209   0.169   6.170 -0.0670 -0.0885  0.3701
  129MOL   H12418300   4.406   0.208   6.055 -0.9354  0.1578 -0.1858
  129MOL   H12518301   4.304   0.149   5.921 -2.1988  0.9346  1.1878
  129MOL   H12618302   4.318   7.517   6.190  0.0627  2.4841  1.5522
  129MOL   H12718303   4.273   0.238   6.184  1.8613 -1.9825  1.2270
  129MOL   C12818304   4.162   7.475   6.056 -1.0574  0.1865 -0.3824
  129MOL   C12918305   4.086   7.510   5.928 -0.9098 -0.1738  0.0980
  129MOL   O13018306   4.165   7.494   5.814  0.2066  0.0724 -0.0862
  129MOL   H13118307   4.224   7.391   6.023 -2.2563 -2.6848  4.2022
  129MOL   H13218308   4.105   7.439   6.142  0.9673 -0.7555  0.5933
  129MOL   H13318309   4.051   0.093   5.936 -2.2429 -0.5595 -0.5155
  129MOL   H13418310   4.155   0.053   5.763 -0.4980  0.8848  1.2729
  129MOL   C13518311   3.958   7.426   5.907  0.1180  0.6285  0.3065
  129MOL   C13618312   3.891   7.459   5.769 -0.2831  0.4649 -0.4432
  129MOL   O13718313   3.753   7.399   5.774 -0.1541  0.2978  0.2100
  129MOL   H13818314   3.974   7.319   5.922 -0.7156  0.5019  0.3246
  129MOL   H13918315   3.899   7.463   5.991 -0.1595 -0.3768  0.5615
  129MOL   H14018316   3.953   7.416   5.690 -0.7282 -0.5846 -0.2223
  129MOL   H14118317   3.704   7.440   5.704  0.1584 -1.5869 -1.1505
  129MOL   H14218318   3.884   0.047   5.756  0.5186  0.5212 -0.4320
  130MOL     C118319   2.307   7.253   3.363 -1.0086 -1.0101  0.1513
  130MOL     C218320   2.175   7.180   3.347 -0.1135  0.7926  0.0559
  130MOL     O318321   2.161   7.105   3.467 -0.2735 -0.2376  0.6086
  130MOL     H418322   2.301   7.310   3.456 -0.4030  0.3038 -0.6115
  130MOL     H518323   2.324   7.329   3.287 -2.6954  0.2406  0.9756
  130MOL     H618324   2.179   7.125   3.253 -1.7288  2.2337 -0.8863
  130MOL     H718325   2.102   7.035   3.444  0.8618 -0.4549 -1.8535
  130MOL     H818326   2.388   7.181   3.357 -1.0660 -1.2729  2.2068
  130MOL     C918327   2.045   7.265   3.344  0.4131 -0.1565  0.4570
  130MOL    C1018328   1.912   7.205   3.307  0.0884  0.3858 -0.6832
  130MOL    O1118329   1.805   7.288   3.341 -0.1577 -0.4172  0.2021
  130MOL    H1218330   2.042   7.319   3.439  1.5253  1.6765 -0.5199
  130MOL    H1318331   2.068   7.343   3.271 -1.3080 -1.3562 -1.4224
  130MOL    H1418332   1.903   7.113   3.365  3.0022  0.5418  0.1025
  130MOL    H1518333   1.837   7.368   3.304 -1.6694  0.7630  1.4005
  130MOL    C1618334   1.908   7.167   3.163 -0.3664  0.0688  0.1005
  130MOL    C1718335   1.801   7.084   3.094 -0.4297 -0.0501  0.4449
  130MOL    O1818336   1.724   7.173   3.011 -0.3018 -0.0798 -0.0862
  130MOL    H1918337   1.935   7.250   3.098  0.8587 -0.8029 -0.5234
  130MOL    H2018338   1.999   7.108   3.150 -0.5694 -0.7395  2.2438
  130MOL    H2118339   1.731   7.049   3.171 -1.0126 -0.0556 -0.0809
  130MOL    H2218340   1.651   7.122   2.977 -0.8735  1.6009 -1.4670
  130MOL    C2318341   1.838   6.972   2.994  0.2448  0.3513 -0.0227
  130MOL    C2418342   1.941   6.864   3.044 -0.0303  0.0783 -0.4976
  130MOL    O2518343   1.879   6.785   3.134 -0.5014  0.2747 -0.4933
  130MOL    H2618344   1.757   6.919   2.944  0.4611  0.6847 -0.7241
  130MOL    H2718345   1.899   7.032   2.926 -0.9979  0.8517 -0.7089
  130MOL    H2818346   2.026   6.913   3.093 -2.1885  1.2863  2.1256
  130MOL    H2918347   1.818   6.731   3.086 -1.2270 -0.3523  1.1035
  130MOL    C3018348   1.984   6.771   2.929 -0.1793  0.4508 -0.6159
  130MOL    C3118349   2.118   6.812   2.849  0.9607  0.5632 -0.4708
  130MOL    O3218350   2.232   6.793   2.925 -0.3620 -0.0919 -0.0675
  130MOL    H3318351   1.989   6.665   2.952  0.7276  0.4581 -0.7247
  130MOL    H3418352   1.902   6.781   2.858 -0.3329  0.0533 -0.4955
  130MOL    H3518353   2.117   6.915   2.815 -0.6112  2.1450  3.9485
  130MOL    H3618354   2.254   6.875   2.968 -2.7635  0.5298  0.0152
  130MOL    C3718355   2.130   6.719   2.725  0.6790  0.2249 -0.4957
  130MOL    C3818356   2.238   6.758   2.626 -0.4592  0.0316  0.5249
  130MOL    O3918357   2.367   6.742   2.688 -0.3713 -0.4697  0.1025
  130MOL    H4018358   2.167   6.624   2.764  0.6609  0.9768  1.4050
  130MOL    H4118359   2.039   6.701   2.668 -0.0159 -1.2494  1.0185
  130MOL    H4218360   2.228   6.859   2.588  0.9229  0.8603  2.2980
  130MOL    H4318361   2.348   6.741   2.780 -0.7001 -0.0184  0.0369
  130MOL    C4418362   2.245   6.663   2.505  0.0936  0.1018 -0.0853
  130MOL    C4518363   2.345   6.702   2.393  0.6506 -0.1244 -0.1881
  130MOL    O4618364   2.374   6.589   2.313 -0.2007 -0.3598 -0.1871
  130MOL    H4718365   2.261   6.561   2.538  0.3701 -0.3086 -1.4779
  130MOL    H4818366   2.147   6.665   2.457  0.5541  0.1104 -1.0316
  130MOL    H4918367   2.440   6.734   2.436 -1.1645  2.5434  1.9736
  130MOL    H5018368   2.291   6.555   2.285  0.6136 -2.1700 -0.4453
  130MOL    C5118369   2.287   6.814   2.303  0.2900 -0.7148  0.3034
  130MOL    C5218370   2.375   6.880   2.193 -0.6082 -0.1311  0.3247
  130MOL    O5318371   2.377   6.805   2.084 -0.0727  0.0175  0.1572
  130MOL    H5418372   2.196   6.778   2.254  2.1723 -1.5273 -2.7984
  130MOL    H5518373   2.268   6.898   2.370  0.0057 -0.0237 -0.6261
  130MOL    H5618374   2.476   6.872   2.232 -0.6649  1.4587  0.8705
  130MOL    H5718375   2.461   6.762   2.084  0.3558  0.8049 -0.7895
  130MOL    C5818376   2.327   7.025   2.157 -0.3987 -0.0608  0.4053
  130MOL    C5918377   2.432   7.118   2.083 -1.1611 -0.3076 -0.5462
  130MOL    O6018378   2.367   7.248   2.070 -0.6355 -0.4576 -0.2640
  130MOL    H6118379   2.245   7.022   2.085 -1.2508 -0.0908  1.3703
  130MOL    H6218380   2.285   7.074   2.245  0.3599 -0.2453  0.8722
  130MOL    H6318381   2.469   7.086   1.986 -0.4769  1.2361 -0.8208
  130MOL    H6418382   2.375   7.286   2.156  0.2456  0.3275 -0.6878
  130MOL    C6518383   2.553   7.145   2.175  0.0044  0.1576  0.8026
  130MOL    C6618384   2.637   7.271   2.143 -0.3805 -0.4407  0.7869
  130MOL    O6718385   2.724   7.269   2.257 -0.8517  0.1398  0.4609
  130MOL    H6818386   2.512   7.159   2.275 -1.4240 -1.0055  0.3969
  130MOL    H6918387   2.625   7.063   2.179  0.2855  0.2832 -1.0352
  130MOL    H7018388   2.582   7.365   2.150 -0.1780 -0.3217  0.7895
  130MOL    H7118389   2.797   7.327   2.246 -1.4511  0.7422 -0.4119
  130MOL    C7218390   2.721   7.273   2.013  0.1289 -0.6098 -0.0065
  130MOL    C7318391   2.654   7.315   1.881  0.0745 -0.5926  0.2132
  130MOL    O7418392   2.631   7.452   1.880  0.2725 -0.4373  0.5341
  130MOL    H7518393   2.821   7.315   2.030 -0.5465  0.1728  2.2354
  130MOL    H7618394   2.768   7.175   2.001  0.2920 -0.5576  0.2013
  130MOL    H7718395   2.561   7.258   1.872  1.1401 -2.2038 -0.8009
  130MOL    H7818396   2.544   7.468   1.848 -0.2371 -1.0140  1.6162
  130MOL    C7918397   2.733   7.275   1.761  0.5561  0.4209  0.0980
  130MOL    C8018398   2.657   7.281   1.621 -0.3634 -0.1978  0.0024
  130MOL    O8118399   2.728   7.351   1.517 -0.3156  0.1018  0.3879
  130MOL    H8218400   2.820   7.341   1.751  1.7977 -1.0211  1.2483
  130MOL    H8318401   2.775   7.177   1.782 -0.8779  0.4016  3.1511
  130MOL    H8418402   2.581   7.350   1.658  0.3453  0.1547  0.8318
  130MOL    H8518403   2.694   7.438   1.501 -1.8267 -0.6633 -0.6680
  130MOL    C8618404   2.601   7.154   1.562  0.0757  0.1536  0.0971
  130MOL    C8718405   2.494   7.084   1.649 -0.4929 -0.5194 -0.4920
  130MOL    O8818406   2.401   7.188   1.676  0.1727 -0.0389  0.0899
  130MOL    H8918407   2.560   7.184   1.466 -0.3472  1.9012  0.8166
  130MOL    H9018408   2.685   7.087   1.542  0.4962  0.4092  0.9466
  130MOL    H9118409   2.540   7.053   1.743 -2.5131 -2.0251  0.0302
  130MOL    H9218410   2.337   7.178   1.606  0.2563 -0.7248  0.1055
  130MOL    C9318411   2.422   6.958   1.600  0.1001  0.0884 -0.0610
  130MOL    C9418412   2.514   6.835   1.569  0.4222 -0.3653  0.1213
  130MOL    O9518413   2.424   6.727   1.548 -0.0550 -0.1576  0.0286
  130MOL    H9618414   2.351   6.919   1.673 -0.7278  0.1149 -0.8464
  130MOL    H9718415   2.355   6.992   1.521  2.3855 -0.2485 -2.2289
  130MOL    H9818416   2.570   6.811   1.659 -0.2383 -1.6136  0.2073
  130MOL    H9918417   2.403   6.700   1.636 -1.1109  1.1905  0.2200
  130MOL   C10018418   2.602   6.851   1.444 -0.4517  0.0056  0.3439
  130MOL   C10118419   2.540   6.902   1.309  0.1779  0.1364  0.5694
  130MOL   O10218420   2.634   6.997   1.251 -0.5690 -0.7071 -0.1831
  130MOL   H10318421   2.691   6.913   1.456 -1.6651  1.7134  0.6229
  130MOL   H10418422   2.648   6.752   1.433 -0.7507 -0.1493  0.4719
  130MOL   H10518423   2.449   6.956   1.334 -1.1458 -1.7362 -0.1009
  130MOL   H10618424   2.711   6.952   1.222 -0.6439 -0.2034 -1.1770
  130MOL   C10718425   2.501   6.791   1.218  0.2783  0.0628 -0.3587
  130MOL   C10818426   2.387   6.819   1.118  0.6246  0.4612 -0.2296
  130MOL   O10918427   2.417   6.786   0.985 -0.2512 -1.1017 -0.2407
  130MOL   H11018428   2.585   6.755   1.159 -0.2507 -2.8599  0.5853
  130MOL   H11118429   2.485   6.704   1.283  0.0806  1.8925  2.1190
  130MOL   H11218430   2.362   6.925   1.121  0.9453  0.5742 -1.3320
  130MOL   H11318431   2.346   6.817   0.931  0.7491 -0.4114 -1.2029
  130MOL   C11418432   2.252   6.746   1.143 -0.9181 -0.2573 -0.1269
  130MOL   C11518433   2.201   6.725   1.286  0.2383 -0.7079  0.2201
  130MOL   O11618434   2.139   6.846   1.333  0.1843  0.0575  0.0400
  130MOL   H11718435   2.173   6.785   1.078  0.7660  0.9009 -1.5553
  130MOL   H11818436   2.260   6.654   1.085 -3.1876 -0.6767  0.1958
  130MOL   H11918437   2.280   6.702   1.358 -0.2643  2.0512  1.7273
  130MOL   H12018438   2.155   6.849   1.426 -0.7516 -1.2546  0.2486
  130MOL   C12118439   2.095   6.617   1.305  0.5234  0.1204 -0.1911
  130MOL   C12218440   2.141   6.474   1.331 -0.2157  0.3167 -0.6820
  130MOL   O12318441   2.028   6.394   1.363  0.3125  0.2781 -0.2543
  130MOL   H12418442   2.037   6.652   1.391  0.0754 -4.5146  1.5120
  130MOL   H12518443   2.035   6.631   1.215  1.8744  1.3596 -0.9317
  130MOL   H12618444   2.193   6.472   1.427  1.1004  0.8371 -1.3691
  130MOL   H12718445   1.970   6.449   1.413  2.3266 -0.0036  2.5466
  130MOL   C12818446   2.227   6.405   1.225 -0.4061  0.2199 -0.6797
  130MOL   C12918447   2.323   6.296   1.286  0.3076 -1.3245 -0.3870
  130MOL   O13018448   2.386   6.226   1.180 -0.1528 -0.4414 -0.0829
  130MOL   H13118449   2.156   6.377   1.147  0.4239 -1.6348 -0.7990
  130MOL   H13218450   2.300   6.473   1.181  0.4028  0.7987  1.4952
  130MOL   H13318451   2.273   6.226   1.353  1.6265 -1.2192  0.7320
  130MOL   H13418452   2.323   6.206   1.112 -1.2351  0.3810  0.6593
  130MOL   C13518453   2.438   6.364   1.368  0.5941  0.1962 -0.2818
  130MOL   C13618454   2.540   6.264   1.420 -0.0232  0.3249 -0.5142
  130MOL   O13718455   2.634   6.335   1.504  0.1829  0.0264  0.0250
  130MOL   H13818456   2.481   6.437   1.299  0.7907  0.7718  0.4476
  130MOL   H13918457   2.394   6.418   1.451 -0.8825 -2.0256  0.4240
  130MOL   H14018458   2.599   6.231   1.336 -1.7149 -1.3955 -1.0619
  130MOL   H14118459   2.721   6.306   1.483 -0.1387 -0.7863 -0.2178
  130MOL   H14218460   2.499   6.186   1.484  0.5854  0.3302 -0.1135
  131MOL     C118461   3.216   4.925   4.502 -0.4432 -0.2392  0.2627
  131MOL     C218462   3.104   4.827   4.488  0.3596  0.6879  0.2393
  131MOL     O318463   2.988   4.907   4.516  0.5151 -0.1815 -0.0147
  131MOL     H418464   3.218   4.970   4.601 -1.1769  1.7057 -0.5785
  131MOL     H518465   3.214   4.998   4.422  1.2201 -1.6933 -1.1425
  131MOL     H618466   3.116   4.749   4.564  0.1920  2.0600  1.7139
  131MOL     H718467   3.007   4.957   4.594 -2.8410  0.7827  0.2572
  131MOL     H818468   3.315   4.880   4.499 -0.8488 -1.1074 -0.7667
  131MOL     C918469   3.094   4.767   4.344  0.7166 -0.2527  0.0410
  131MOL    C1018470   2.968   4.670   4.324 -0.4895 -0.1537 -0.0888
  131MOL    O1118471   2.981   4.606   4.197 -0.0216 -0.7110  0.2656
  131MOL    H1218472   3.090   4.858   4.285  0.9162  0.4972  1.1829
  131MOL    H1318473   3.181   4.706   4.319  0.0853 -0.6790 -1.1560
  131MOL    H1418474   2.876   4.729   4.325  0.5046  1.4157  0.7652
  131MOL    H1518475   2.918   4.651   4.143 -0.6371 -0.9251  0.8033
  131MOL    C1618476   2.964   4.568   4.438 -0.2521 -0.5807 -0.1522
  131MOL    C1718477   2.856   4.598   4.546  0.2245  0.0470  0.1196
  131MOL    O1818478   2.731   4.553   4.485 -0.3643 -0.4760 -0.1470
  131MOL    H1918479   2.932   4.479   4.384  0.3299 -0.3328 -0.9247
  131MOL    H2018480   3.063   4.555   4.481  0.9616  2.0678 -1.9415
  131MOL    H2118481   2.846   4.704   4.569 -1.0550 -0.0923  0.2620
  131MOL    H2218482   2.666   4.619   4.501  0.0309 -0.2168  0.4047
  131MOL    C2318483   2.865   4.525   4.678  0.1111 -0.3954  0.1560
  131MOL    C2418484   2.991   4.539   4.767  0.2022 -0.5306 -0.1226
  131MOL    O2518485   3.009   4.673   4.805 -0.1153  0.3923 -0.6068
  131MOL    H2618486   2.773   4.557   4.727  1.6708  1.2462  2.1520
  131MOL    H2718487   2.853   4.417   4.674 -1.7398 -0.2071  0.0204
  131MOL    H2818488   3.081   4.523   4.709  0.7930  1.6584  0.1442
  131MOL    H2918489   2.926   4.717   4.792 -1.3116 -1.7260 -0.3200
  131MOL    C3018490   2.970   4.449   4.894  0.0623  0.1924  0.6573
  131MOL    C3118491   3.078   4.460   5.010 -0.2039  0.4751 -0.5132
  131MOL    O3218492   3.048   4.369   5.115  0.1235 -0.1245 -0.1500
  131MOL    H3318493   2.877   4.475   4.944  0.0479  1.1913  0.1242
  131MOL    H3418494   2.962   4.351   4.848  0.5870  0.9789 -1.1233
  131MOL    H3518495   3.079   4.564   5.044  0.5997  1.1426 -2.5229
  131MOL    H3618496   3.092   4.399   5.193 -0.4829 -1.6169  0.7946
  131MOL    C3718497   3.216   4.423   4.974 -0.2303  0.5564 -0.0744
  131MOL    C3818498   3.325   4.466   5.067 -1.2413 -0.1155  0.2478
  131MOL    O3918499   3.437   4.417   5.007  0.5854  0.1365  0.4181
  131MOL    H4018500   3.217   4.315   4.957  0.3852  0.5251  0.1340
  131MOL    H4118501   3.229   4.458   4.871 -1.2296  1.5779  0.1434
  131MOL    H4218502   3.323   4.410   5.160 -1.1362 -2.1066 -0.9131
  131MOL    H4318503   3.453   4.335   5.052  1.1667 -0.0364 -0.1042
  131MOL    C4418504   3.331   4.612   5.108  0.3959 -0.0520  0.0384
  131MOL    C4518505   3.337   4.707   4.989  0.5676 -0.1799  0.1833
  131MOL    O4618506   3.288   4.826   5.031  0.1430  0.4260 -0.8786
  131MOL    H4718507   3.246   4.640   5.170 -0.8998  1.2427 -2.2359
  131MOL    H4818508   3.420   4.630   5.169  2.1050 -0.2767 -2.3234
  131MOL    H4918509   3.275   4.669   4.907  0.4018 -0.6140  0.5031
  131MOL    H5018510   3.301   4.882   4.957 -0.5370  2.0504  0.2143
  131MOL    C5118511   3.483   4.737   4.936 -0.7017  0.6823  0.2117
  131MOL    C5218512   3.490   4.819   4.802  0.0037 -0.0713 -0.4515
  131MOL    O5318513   3.420   4.940   4.812  0.3106 -0.1833 -0.0078
  131MOL    H5418514   3.540   4.784   5.016  1.2910  0.2002 -0.9117
  131MOL    H5518515   3.539   4.646   4.916 -1.2574  0.6933 -1.4015
  131MOL    H5618516   3.444   4.758   4.726 -1.8909  1.8814 -0.9191
  131MOL    H5718517   3.459   4.993   4.881 -2.4153  1.6823  0.1656
  131MOL    C5818518   3.634   4.867   4.765 -0.2250  0.1232 -0.0802
  131MOL    C5918519   3.740   4.760   4.780 -0.9734 -0.2382  0.6064
  131MOL    O6018520   3.728   4.647   4.690  0.2445 -0.5417  0.2433
  131MOL    H6118521   3.642   4.914   4.667 -1.5349 -0.1963 -0.3550
  131MOL    H6218522   3.669   4.943   4.834  2.0458  1.2991 -2.4241
  131MOL    H6318523   3.739   4.716   4.880  0.2352 -2.4578 -0.3351
  131MOL    H6418524   3.740   4.677   4.601 -1.8280 -1.3310 -0.3438
  131MOL    C6518525   3.884   4.821   4.769 -0.1789 -0.2012  0.3937
  131MOL    C6618526   3.981   4.764   4.870 -0.8251  0.1456 -0.1156
  131MOL    O6718527   4.115   4.795   4.833 -0.2389 -0.5598 -0.0633
  131MOL    H6818528   3.915   4.803   4.667  0.7546  0.6882  0.5160
  131MOL    H6918529   3.879   4.929   4.762 -1.4892 -0.3394 -1.1537
  131MOL    H7018530   3.977   4.655   4.880  0.4812  0.1116  0.1463
  131MOL    H7118531   4.139   4.713   4.791  1.0540 -0.8062  1.1119
  131MOL    C7218532   3.962   4.825   5.014  0.3445  0.1391 -0.1282
  131MOL    C7318533   3.985   4.719   5.127 -0.0229 -0.3490  0.1366
  131MOL    O7418534   4.007   4.773   5.252  0.0731 -0.5237 -0.2120
  131MOL    H7518535   4.031   4.909   5.025  1.2804 -0.7622  1.0641
  131MOL    H7618536   3.858   4.856   5.023  0.6743  1.0297  0.7020
  131MOL    H7718537   4.074   4.666   5.093 -0.6383 -1.4181  0.1661
  131MOL    H7818538   3.999   4.699   5.309 -1.8329  0.1865  0.5083
  131MOL    C7918539   3.867   4.625   5.140 -0.3186 -0.5099  0.5429
  131MOL    C8018540   3.907   4.502   5.224 -0.1191  1.1417  0.2692
  131MOL    O8118541   3.922   4.539   5.360  0.2848  0.2820  0.2296
  131MOL    H8218542   3.774   4.669   5.176 -0.2351 -0.9147  1.2894
  131MOL    H8318543   3.830   4.592   5.043 -1.6190 -1.4286  1.3209
  131MOL    H8418544   4.004   4.472   5.185  0.4497  3.9141 -0.5094
  131MOL    H8518545   3.956   4.470   5.415  0.9195 -1.0105 -1.7394
  131MOL    C8618546   3.806   4.386   5.200  0.2630 -0.1692 -0.1861
  131MOL    C8718547   3.853   4.250   5.257 -0.5693  0.6017  0.1353
  131MOL    O8818548   3.743   4.161   5.252  0.1937 -0.1081 -0.0818
  131MOL    H8918549   3.704   4.411   5.230  0.6942 -0.6287  1.7511
  131MOL    H9018550   3.784   4.366   5.095 -0.5089 -4.4758  0.7066
  131MOL    H9118551   3.885   4.248   5.361 -1.3140 -1.7075  0.3615
  131MOL    H9218552   3.674   4.197   5.198 -0.8933 -0.0923  1.3010
  131MOL    C9318553   3.965   4.197   5.164  0.6251 -0.5650  0.0350
  131MOL    C9418554   4.023   4.058   5.197  0.3316  0.0071  0.5495
  131MOL    O9518555   4.082   4.017   5.074  0.2967  0.3938  0.1580
  131MOL    H9618556   3.914   4.194   5.068  2.3392  2.3826 -1.0472
  131MOL    H9718557   4.050   4.265   5.161 -1.5074  2.1900 -2.9244
  131MOL    H9818558   3.940   3.989   5.214 -1.4159  1.4531 -1.9011
  131MOL    H9918559   4.019   4.004   5.005 -1.1966  2.6872  1.0265
  131MOL   C10018560   4.138   4.052   5.296 -0.4085 -0.6842  0.2436
  131MOL   C10118561   4.122   4.100   5.445 -0.2964 -0.2564 -0.0904
  131MOL   O10218562   4.106   4.236   5.435  0.7063 -0.4628 -0.7991
  131MOL   H10318563   4.175   3.950   5.303  1.6467 -0.0130 -0.2422
  131MOL   H10418564   4.228   4.104   5.262  0.1245 -0.9459  1.2376
  131MOL   H10518565   4.214   4.083   5.500  0.7326  5.6337  0.2582
  131MOL   H10618566   4.189   4.276   5.416 -0.2719  1.1285 -1.7658
  131MOL   C10718567   4.002   4.042   5.520 -0.3757  0.0311  0.5192
  131MOL   C10818568   4.023   3.896   5.563  0.0606  0.1279 -0.0240
  131MOL   O10918569   4.129   3.904   5.662  0.2147  0.2564  0.5423
  131MOL   H11018570   3.987   4.107   5.606  0.4941 -2.2371  2.4482
  131MOL   H11118571   3.910   4.048   5.463  0.3768  1.8188 -0.5418
  131MOL   H11218572   4.031   3.839   5.470 -1.4555  0.1540 -0.1871
  131MOL   H11318573   4.100   3.963   5.729  2.5311  2.0285  0.0524
  131MOL   C11418574   3.905   3.838   5.638 -0.1224 -0.2453 -0.1261
  131MOL   C11518575   3.916   3.684   5.649  0.6030  0.4825 -0.4671
  131MOL   O11618576   3.816   3.642   5.742  0.3176 -0.2968 -0.3394
  131MOL   H11718577   3.911   3.889   5.734  0.7375  0.7715 -0.7142
  131MOL   H11818578   3.810   3.868   5.592 -0.5793 -2.3870 -0.6318
  131MOL   H11918579   4.012   3.652   5.687 -0.4361  0.4387  2.2180
  131MOL   H12018580   3.859   3.581   5.799 -1.2126 -1.3163 -0.2698
  131MOL   C12118581   3.877   3.615   5.513  0.5969  0.1960 -0.4728
  131MOL   C12218582   3.980   3.529   5.451  0.8492 -0.5972 -0.6262
  131MOL   O12318583   3.999   3.414   5.533  0.1204  0.1313 -0.0519
  131MOL   H12418584   3.780   3.565   5.515  0.8459 -0.2620  0.0184
  131MOL   H12518585   3.840   3.690   5.442  0.8452  0.4383 -0.3450
  131MOL   H12618586   4.069   3.590   5.436  0.4125  0.5595  1.2919
  131MOL   H12718587   4.081   3.432   5.577 -0.8659  0.1062  1.8744
  131MOL   C12818588   3.934   3.477   5.319  0.5205  0.3700  0.5148
  131MOL   C12918589   3.982   3.564   5.199 -0.5102 -0.2524  0.3291
  131MOL   O13018590   3.953   3.487   5.075  0.0969  0.5486 -0.3656
  131MOL   H13118591   3.982   3.380   5.313  0.6372  0.3058  2.2326
  131MOL   H13218592   3.828   3.450   5.312  0.6248  0.2576 -0.7754
  131MOL   H13318593   4.090   3.573   5.199 -0.5869  0.8640 -1.8422
  131MOL   H13418594   3.862   3.461   5.070 -0.4768  2.2566  0.7937
  131MOL   C13518595   3.931   3.704   5.176 -0.3945 -0.3928 -0.0603
  131MOL   C13618596   3.773   3.710   5.147 -0.3763  0.9312 -0.1262
  131MOL   O13718597   3.729   3.842   5.127 -0.0355  0.1760  0.3880
  131MOL   H13818598   3.958   3.765   5.262 -1.6382 -0.5887  0.4795
  131MOL   H13918599   3.984   3.750   5.093 -2.8255  0.5336 -1.1419
  131MOL   H14018600   3.724   3.673   5.237  3.9886 -0.1991  1.8873
  131MOL   H14118601   3.692   3.878   5.206  0.2776 -0.0588  0.6409
  131MOL   H14218602   3.743   3.655   5.058  1.3435  0.5855 -0.5133
  132MOL     C118603   7.397   1.912   5.755  0.3525  0.2737 -0.5037
  132MOL     C218604   7.420   1.900   5.902  0.2334 -0.3226  0.4895
  132MOL     O318605   7.458   2.027   5.954  0.0626  0.6114 -0.2504
  132MOL     H418606   7.316   1.979   5.727  0.0490 -0.4479 -1.3557
  132MOL     H518607   7.380   1.812   5.716  0.8837  1.3514 -3.6368
  132MOL     H618608   7.503   1.832   5.922  1.4714  0.6970 -1.1212
  132MOL     H718609   7.485   2.011   6.043 -0.0392  1.3478 -0.0767
  132MOL     H818610   7.483   1.956   5.704  0.1467  2.1235  0.7000
  132MOL     C918611   7.298   1.854   5.981 -0.2077 -0.6489  0.1253
  132MOL    C1018612   7.235   1.718   5.949  0.8279 -0.4316  0.5101
  132MOL    O1118613   7.316   1.614   5.989  0.0955 -0.0663 -0.3337
  132MOL    H1218614   7.331   1.861   6.084  4.6796 -0.5393 -1.3153
  132MOL    H1318615   7.228   1.937   5.967  2.3609  1.5186 -0.0711
  132MOL    H1418616   7.242   1.714   5.840  0.6741  2.7258  0.3372
  132MOL    H1518617   7.297   1.597   6.080 -1.2833 -0.4425 -0.6782
  132MOL    C1618618   7.088   1.695   5.993 -0.2870 -0.1111  0.0028
  132MOL    C1718619   7.021   1.559   5.964  0.6414  1.2535 -0.4794
  132MOL    O1818620   7.092   1.445   6.025 -0.1234 -0.3094 -0.1080
  132MOL    H1918621   7.083   1.717   6.100 -0.7423  2.9496 -0.6009
  132MOL    H2018622   7.030   1.776   5.949  0.9593  1.1967  0.7313
  132MOL    H2118623   7.007   1.549   5.857 -0.2773  1.0520 -0.3446
  132MOL    H2218624   7.170   1.442   5.972  0.2317 -2.5042  0.4970
  132MOL    C2318625   6.872   1.541   6.019 -0.3918  0.4185  0.4352
  132MOL    C2418626   6.773   1.634   5.949 -0.2700  0.8219 -1.1724
  132MOL    O2518627   6.772   1.617   5.808  0.0963 -0.4483 -0.1473
  132MOL    H2618628   6.838   1.438   6.009  0.1473  0.1474  1.3929
  132MOL    H2718629   6.865   1.563   6.126  0.5386 -0.4409  0.6740
  132MOL    H2818630   6.788   1.739   5.975 -0.8289  1.1089 -1.9912
  132MOL    H2918631   6.848   1.658   5.769 -2.8687  3.0059 -2.6019
  132MOL    C3018632   6.626   1.590   5.989  0.2914 -0.0240  0.0745
  132MOL    C3118633   6.578   1.628   6.131 -0.1614  0.1228  0.5907
  132MOL    O3218634   6.581   1.766   6.155  0.7872  0.1216  0.5834
  132MOL    H3318635   6.554   1.639   5.923 -0.1849 -1.6890 -0.6647
  132MOL    H3418636   6.620   1.484   5.962 -0.3512 -0.1129  0.5647
  132MOL    H3518637   6.646   1.583   6.204  1.7888 -0.5553 -1.6039
  132MOL    H3618638   6.577   1.789   6.247  0.7344  0.8996  0.3897
  132MOL    C3718639   6.431   1.583   6.160  0.0591  0.2623  0.0196
  132MOL    C3818640   6.406   1.540   6.308  0.3601  0.0298  0.1344
  132MOL    O3918641   6.264   1.522   6.313 -0.4120 -0.0785 -0.4820
  132MOL    H4018642   6.352   1.650   6.126 -1.3574 -1.2384  0.3091
  132MOL    H4118643   6.426   1.496   6.095  0.8088 -0.7806  1.3101
  132MOL    H4218644   6.433   1.619   6.379  1.0997 -1.9549  2.1226
  132MOL    H4318645   6.244   1.454   6.376  1.3455  0.1274  0.3227
  132MOL    C4418646   6.471   1.403   6.348  0.0040  0.7606  0.2973
  132MOL    C4518647   6.409   1.337   6.477 -0.0083  0.0516 -0.2171
  132MOL    O4618648   6.308   1.251   6.437  0.6816  0.3587 -0.2362
  132MOL    H4718649   6.466   1.325   6.272 -0.1636  1.5821 -0.5564
  132MOL    H4818650   6.575   1.432   6.362  0.2711 -0.1519  0.2093
  132MOL    H4918651   6.364   1.399   6.555 -0.6783  0.0291 -0.5783
  132MOL    H5018652   6.280   1.205   6.514 -1.8615 -0.6991 -1.7002
  132MOL    C5118653   6.513   1.244   6.535  0.1946  0.2283  0.5493
  132MOL    C5218654   6.484   1.194   6.683  0.3525 -0.6195 -0.1129
  132MOL    O5318655   6.363   1.114   6.675  0.3229 -0.3533 -0.4741
  132MOL    H5418656   6.533   1.173   6.456  1.5197  1.7805 -0.5381
  132MOL    H5518657   6.608   1.298   6.540 -0.0098  0.7872 -1.2758
  132MOL    H5618658   6.480   1.276   6.755  0.1405  0.2811 -1.1297
  132MOL    H5718659   6.331   1.090   6.761 -0.2295  1.5564 -0.1432
  132MOL    C5818660   6.587   1.096   6.734  0.1368 -0.3452 -0.3797
  132MOL    C5918661   6.729   1.151   6.768  0.1014  0.1314 -0.3736
  132MOL    O6018662   6.749   1.149   6.907  0.1128  0.1930 -0.2255
  132MOL    H6118663   6.547   1.036   6.816 -2.2163  1.0541 -0.4675
  132MOL    H6218664   6.593   1.023   6.654  1.4251 -1.5591  0.7753
  132MOL    H6318665   6.761   1.245   6.723 -1.9817  0.6187 -0.8801
  132MOL    H6418666   6.731   1.064   6.943 -0.4370 -0.8206 -2.7493
  132MOL    C6518667   6.839   1.050   6.710  0.1514 -1.1782  0.0629
  132MOL    C6618668   6.993   1.067   6.733  0.3608  0.2687 -0.5317
  132MOL    O6718669   7.063   0.961   6.678 -0.1904  0.1210  0.3268
  132MOL    H6818670   6.815   0.947   6.740  1.8006 -2.3735 -2.5118
  132MOL    H6918671   6.816   1.041   6.604 -0.0750  0.1079  0.0003
  132MOL    H7018672   7.011   1.063   6.840 -1.1010  0.4806 -0.2667
  132MOL    H7118673   7.023   0.879   6.705  2.2092 -1.7268 -1.4355
  132MOL    C7218674   7.037   1.205   6.678 -0.5469 -0.2284 -0.4939
  132MOL    C7318675   7.036   1.234   6.528 -0.6078 -0.2360 -0.0539
  132MOL    O7418676   6.910   1.251   6.467 -0.1463 -0.0826 -0.2633
  132MOL    H7518677   6.978   1.286   6.721 -0.3553 -1.3485  1.9696
  132MOL    H7618678   7.138   1.224   6.713 -1.8905  1.6138  2.5769
  132MOL    H7718679   7.086   1.153   6.475  0.3714  0.0733  0.3793
  132MOL    H7818680   6.932   1.312   6.399 -0.4675  0.3895  0.0570
  132MOL    C7918681   7.128   1.355   6.509 -0.1851 -0.5804 -0.7723
  132MOL    C8018682   7.134   1.411   6.369  0.0863 -0.6390 -0.0541
  132MOL    O8118683   7.011   1.425   6.299  0.2468 -0.8006  0.4539
  132MOL    H8218684   7.088   1.433   6.574  0.5837  0.0963 -1.0969
  132MOL    H8318685   7.228   1.338   6.549 -0.2764  0.1586 -0.2174
  132MOL    H8418686   7.198   1.342   6.315 -0.0788 -1.6830  1.0634
  132MOL    H8518687   7.022   1.423   6.205 -0.5852 -0.8101  0.3510
  132MOL    C8618688   7.212   1.550   6.360  0.9550  0.3266  0.8221
  132MOL    C8718689   7.363   1.534   6.352  0.3407  0.2947 -0.6870
  132MOL    O8818690   7.386   1.483   6.224 -0.1510 -0.0903 -0.2722
  132MOL    H8918691   7.175   1.606   6.274 -0.9667  1.4854  2.3677
  132MOL    H9018692   7.199   1.614   6.447  1.8506  2.2637 -0.4296
  132MOL    H9118693   7.383   1.460   6.429  2.8833  0.4128 -1.1877
  132MOL    H9218694   7.441   1.408   6.240 -0.0804  0.6107  3.3029
  132MOL    C9318695   7.440   1.662   6.377  0.2253 -0.6357  0.3660
  132MOL    C9418696   7.432   1.716   6.519  0.1830  0.8346 -0.8984
  132MOL    O9518697   0.035   1.691   6.579  0.0853 -0.1971 -0.2125
  132MOL    H9618698   0.026   1.647   6.353  0.4243  0.7218  0.3833
  132MOL    H9718699   7.417   1.738   6.302  0.5981  1.2038  2.0963
  132MOL    H9818700   7.356   1.669   6.581  0.6392  0.3301 -0.7233
  132MOL    H9918701   0.030   1.684   6.673 -0.4609  1.0132 -0.1422
  132MOL   C10018702   7.400   1.863   6.520  0.4477 -0.5575  0.0412
  132MOL   C10118703   7.250   1.894   6.487 -0.0332 -0.0608  0.0692
  132MOL   O10218704   7.156   1.844   6.580 -0.4039  0.2295 -0.0399
  132MOL   H10318705   7.431   1.912   6.612  2.2118 -1.0882 -0.2508
  132MOL   H10418706   7.463   1.916   6.447  0.1412 -0.2450  0.0029
  132MOL   H10518707   7.229   1.856   6.388 -2.9666  1.9920 -0.1889
  132MOL   H10618708   7.080   1.811   6.535  0.1107 -1.3444  0.1953
  132MOL   C10718709   7.216   2.044   6.460  0.0845 -0.7513 -0.1467
  132MOL   C10818710   7.244   2.090   6.313  0.1724 -0.1279 -0.5033
  132MOL   O10918711   7.125   2.058   6.237  0.2121 -0.7881 -0.4437
  132MOL   H11018712   7.109   2.064   6.465  0.5582  1.4169  1.9488
  132MOL   H11118713   7.272   2.100   6.535  0.5463 -2.8842  1.1368
  132MOL   H11218714   7.334   2.039   6.278 -0.2590 -0.8675 -0.5635
  132MOL   H11318715   7.120   2.119   6.164 -0.4275 -3.4871 -2.7521
  132MOL   C11418716   7.270   2.234   6.289 -0.3301  0.3205  0.0504
  132MOL   C11518717   7.386   2.290   6.367 -0.8044 -0.5983  0.3453
  132MOL   O11618718   7.504   2.206   6.368  0.1569  0.2595 -0.4644
  132MOL   H11718719   7.285   2.260   6.184 -0.4231  0.5583  0.0950
  132MOL   H11818720   7.179   2.291   6.302 -2.3481 -2.1878 -2.5649
  132MOL   H11918721   7.359   2.315   6.470 -1.8993 -1.0421  0.1656
  132MOL   H12018722   0.049   2.259   6.414 -1.1416  2.1297 -0.7342
  132MOL   C12118723   7.434   2.429   6.314  0.1132  0.7195 -0.4552
  132MOL   C12218724   7.334   2.545   6.318  0.7579  0.0030  0.1753
  132MOL   O12318725   7.291   2.560   6.457  0.5013 -0.5599 -0.5363
  132MOL   H12418726   7.514   2.470   6.377 -0.3569 -0.8211  1.1676
  132MOL   H12518727   7.469   2.415   6.212 -0.5642 -1.3645 -0.4230
  132MOL   H12618728   7.255   2.509   6.251  1.4713 -1.1929 -0.0506
  132MOL   H12718729   7.213   2.510   6.474  1.8994 -3.1251 -1.3553
  132MOL   C12818730   7.405   2.680   6.283 -0.3696  0.6251  0.0095
  132MOL   C12918731   7.419   2.697   6.134  0.0223 -0.2705  0.4320
  132MOL   O13018732   7.287   2.715   6.070  0.2982 -0.9376 -0.1532
  132MOL   H13118733   7.341   2.763   6.316 -0.3660  1.0389 -1.0045
  132MOL   H13218734   7.500   2.699   6.332 -1.1515  0.3688  1.6457
  132MOL   H13318735   7.474   2.617   6.083  0.7879  0.5729 -0.0734
  132MOL   H13418736   7.269   2.632   6.028  1.9295 -1.2365 -0.3161
  132MOL   C13518737   7.495   2.818   6.088 -0.4536 -0.3040  0.1880
  132MOL   C13618738   7.443   2.951   6.153  0.6464 -0.0949 -0.2714
  132MOL   O13718739   7.506   3.059   6.093 -0.5256 -0.3346 -0.2342
  132MOL   H13818740   0.079   2.808   6.121 -0.3510 -3.6272 -0.9155
  132MOL   H13918741   7.497   2.825   5.979 -0.0696 -2.4482  0.0259
  132MOL   H14018742   7.458   2.956   6.261  1.7397  2.0039 -0.4918
  132MOL   H14118743   0.072   3.064   6.132  0.8060 -0.8453 -2.9789
  132MOL   H14218744   7.334   2.956   6.143  0.5949  2.1054  1.1374
  133MOL     C118745   1.046   6.775   6.951  0.2428 -0.1181 -0.3018
  133MOL     C218746   0.991   6.700   6.831 -0.1035  0.1050 -1.0835
  133MOL     O318747   0.970   6.782   6.717  0.0200  0.4881 -0.2832
  133MOL     H418748   1.137   6.824   6.916 -0.5261  2.2193  0.8472
  133MOL     H518749   1.051   6.710   7.038  0.6260  1.9950  1.2918
  133MOL     H618750   0.892   6.665   6.861  0.5325 -1.4851 -0.7982
  133MOL     H718751   0.993   6.873   6.730 -1.1168  0.8615 -0.8144
  133MOL     H818752   0.972   6.846   6.987  1.2380 -0.4931  2.6285
  133MOL     C918753   1.085   6.580   6.793 -0.2875  0.1517  0.1226
  133MOL    C1018754   1.020   6.475   6.703 -0.5775 -0.3871  0.5097
  133MOL    O1118755   0.910   6.420   6.757  0.6327  0.0753  0.1459
  133MOL    H1218756   1.176   6.606   6.740  0.6365 -0.9510  1.1600
  133MOL    H1318757   1.121   6.537   6.886  1.6620 -1.4438 -1.3418
  133MOL    H1418758   1.087   6.391   6.683  0.0280 -0.5358  2.9824
  133MOL    H1518759   0.891   6.357   6.690  2.3579 -0.2163 -0.0988
  133MOL    C1618760   0.985   6.513   6.564  0.0566 -0.4685  0.1760
  133MOL    C1718761   1.092   6.581   6.479 -0.1942  0.3071  0.4423
  133MOL    O1818762   1.194   6.487   6.449 -0.1010  0.1161  0.1483
  133MOL    H1918763   0.934   6.436   6.505 -0.8317 -0.5688  1.0522
  133MOL    H2018764   0.908   6.590   6.569 -1.0534 -1.5754  0.4834
  133MOL    H2118765   1.124   6.666   6.539 -0.2521 -0.8119  2.1204
  133MOL    H2218766   1.169   6.438   6.373  1.0528  1.0463 -0.8547
  133MOL    C2318767   1.052   6.651   6.349 -0.0108 -0.0546 -0.0017
  133MOL    C2418768   0.928   6.747   6.353 -0.2435 -0.0664 -0.0756
  133MOL    O2518769   0.960   6.848   6.450 -0.1750 -0.0637  0.1810
  133MOL    H2618770   1.134   6.717   6.319 -0.6002  1.0128  0.6682
  133MOL    H2718771   1.039   6.584   6.264  0.4693 -2.2395  1.6025
  133MOL    H2818772   0.842   6.686   6.381 -0.3555 -0.6068 -1.5425
  133MOL    H2918773   0.959   6.811   6.537  1.7112 -0.3372  0.0993
  133MOL    C3018774   0.900   6.817   6.221 -0.2272  0.3746  0.3404
  133MOL    C3118775   0.776   6.905   6.228  0.2678 -0.8297  0.5557
  133MOL    O3218776   0.779   6.984   6.108  0.0176 -0.1719  0.1256
  133MOL    H3318777   0.993   6.868   6.199 -1.4547  1.1107 -3.5402
  133MOL    H3418778   0.884   6.739   6.147 -2.1066  0.8403  0.2122
  133MOL    H3518779   0.788   6.982   6.304 -0.9905  0.2095 -0.2831
  133MOL    H3618780   0.823   7.064   6.134 -1.5269  0.5018  0.7443
  133MOL    C3718781   0.642   6.828   6.241  0.6158  0.0653  0.5039
  133MOL    C3818782   0.532   6.909   6.304 -0.4368 -0.1383  0.4429
  133MOL    O3918783   0.409   6.845   6.283  0.6369  0.3200 -0.6908
  133MOL    H4018784   0.617   6.781   6.147 -0.5204  1.2366  0.2059
  133MOL    H4118785   0.656   6.740   6.304  1.1076 -1.1893 -1.3435
  133MOL    H4218786   0.522   6.998   6.241  2.1469 -0.2535 -0.1982
  133MOL    H4318787   0.398   6.784   6.355 -0.5543  0.7310 -0.5055
  133MOL    C4418788   0.554   6.923   6.458  0.3903 -0.6098  0.0189
  133MOL    C4518789   0.464   7.031   6.526 -0.6710 -0.8588  0.3566
  133MOL    O4618790   0.473   7.033   6.659 -0.1986 -0.0657  0.3270
  133MOL    H4718791   0.535   6.823   6.499  1.5170 -0.5735  0.6462
  133MOL    H4818792   0.661   6.939   6.471  0.5077 -1.7811  0.5964
  133MOL    H4918793   0.358   7.006   6.513 -0.4864 -1.6575  0.3570
  133MOL    H5018794   0.449   6.952   6.701 -0.0469  0.2283  0.9802
  133MOL    C5118795   0.497   7.175   6.479  0.4131  0.1657  0.1795
  133MOL    C5218796   0.644   7.228   6.499  0.2283 -0.3162  0.3293
  133MOL    O5318797   0.661   7.346   6.428 -0.2570 -0.2000 -0.4251
  133MOL    H5418798   0.487   7.184   6.371  0.8369 -1.0062  0.0482
  133MOL    H5518799   0.424   7.250   6.512  0.7602  1.5520 -2.1359
  133MOL    H5618800   0.707   7.154   6.450  0.0727 -1.0699  1.2387
  133MOL    H5718801   0.580   7.393   6.415 -0.1627  0.5139  1.5086
  133MOL    C5818802   0.679   7.256   6.643 -0.5739  0.0456  0.0687
  133MOL    C5918803   0.830   7.276   6.676 -0.7310  0.3380  0.0658
  133MOL    O6018804   0.838   7.351   6.797 -0.6522 -0.2042 -0.4153
  133MOL    H6118805   0.613   7.333   6.682 -1.4950 -0.5367 -0.3084
  133MOL    H6218806   0.647   7.166   6.697 -0.2817 -1.1221 -1.6555
  133MOL    H6318807   0.876   7.336   6.598 -4.0269 -0.3577 -2.5197
  133MOL    H6418808   0.818   7.296   6.871  1.3281  0.9431  0.9898
  133MOL    C6518809   0.897   7.139   6.695  0.0186 -0.2836  0.3648
  133MOL    C6618810   1.053   7.150   6.720  0.1497 -0.0228 -0.0943
  133MOL    O6718811   1.103   7.030   6.787 -0.0520  0.8948  0.0578
  133MOL    H6818812   0.864   7.099   6.791 -0.9173  0.7056  0.4557
  133MOL    H6918813   0.863   7.069   6.619  0.8776  0.9185 -1.1411
  133MOL    H7018814   1.078   7.233   6.785 -0.8579 -0.3332  0.6897
  133MOL    H7118815   1.116   7.056   6.877  1.7435 -0.7018  0.2867
  133MOL    C7218816   1.123   7.167   6.581  0.1849  0.0208 -0.4950
  133MOL    C7318817   1.278   7.139   6.588 -0.1605 -0.3487 -0.3142
  133MOL    O7418818   1.328   7.166   6.457  0.1408 -0.2828 -0.0901
  133MOL    H7518819   1.078   7.102   6.506  1.2591  0.7839 -1.8339
  133MOL    H7618820   1.099   7.270   6.556  1.8869  0.7511  0.7547
  133MOL    H7718821   1.303   7.034   6.604 -0.2673 -0.4331 -0.6837
  133MOL    H7818822   1.309   7.258   6.457  1.5025  0.0364  1.7386
  133MOL    C7918823   1.370   7.217   6.684  0.6074 -0.3862  0.0568
  133MOL    C8018824   1.504   7.137   6.713 -0.9179 -0.7598  0.8738
  133MOL    O8118825   1.587   7.167   6.605  0.3750  0.1154  0.3377
  133MOL    H8218826   1.382   7.323   6.663 -0.2058 -0.7064 -2.2097
  133MOL    H8318827   1.313   7.210   6.776 -0.1794  1.9367 -0.2285
  133MOL    H8418828   1.490   7.029   6.715 -1.8275 -0.7989 -3.5252
  133MOL    H8518829   1.538   7.153   6.526  1.3989 -0.4046 -0.2245
  133MOL    C8618830   1.581   7.190   6.839 -0.0120 -0.1180  0.3042
  133MOL    C8718831   1.687   7.090   6.897  0.5428  0.4863  0.4476
  133MOL    O8818832   1.754   7.158   7.002 -0.0962 -0.4927  0.4003
  133MOL    H8918833   1.619   7.290   6.818 -2.2441  0.5733 -0.5933
  133MOL    H9018834   1.507   7.214   6.916  0.8786  0.7211  0.9019
  133MOL    H9118835   1.757   7.071   6.816  0.9807  2.3490  0.3649
  133MOL    H9218836   1.787   7.243   6.976  0.4246  0.0217  2.6435
  133MOL    C9318837   1.625   6.952   6.945 -0.3749  0.0916  0.7124
  133MOL    C9418838   1.492   6.948   7.024 -0.1636  0.0273 -0.0534
  133MOL    O9518839   1.467   6.814   7.048  0.4418  0.0523  0.3075
  133MOL    H9618840   1.598   6.901   6.853 -0.0805 -0.6735  1.0410
  133MOL    H9718841   1.697   6.890   6.999  1.1113  1.9945  0.9623
  133MOL    H9818842   1.408   6.993   6.971 -0.3947  1.8609  1.8175
  133MOL    H9918843   1.435   6.782   6.965  0.4760  3.3913 -1.1069
  133MOL   C10018844   1.506   7.014   7.162 -0.1122 -0.4490  0.6206
  133MOL   C10118845   1.387   6.989   7.263  0.2362  0.4499 -0.0717
  133MOL   O10218846   1.407   7.075   7.378 -0.3333  0.0238 -0.2232
  133MOL   H10318847   1.594   6.976   7.214 -1.5330 -0.2285  3.2825
  133MOL   H10418848   1.508   7.120   7.139  2.6886 -0.4409  0.7646
  133MOL   H10518849   1.388   6.884   7.290 -0.4038 -0.5362 -3.6545
  133MOL   H10618850   1.375   7.023   7.450  2.1219 -0.0427  0.8684
  133MOL   C10718851   1.245   6.997   7.208 -0.4703  0.2842 -0.2043
  133MOL   C10818852   1.179   7.138   7.202 -0.2171 -0.2679 -0.2802
  133MOL   O10918853   1.235   7.194   7.085 -0.4664  0.3757  0.0384
  133MOL   H11018854   1.235   6.949   7.110 -1.0439 -3.0984  1.4229
  133MOL   H11118855   1.187   6.933   7.274  0.1362  0.9664  0.9906
  133MOL   H11218856   1.205   7.196   7.290 -3.1854  0.6921  0.0134
  133MOL   H11318857   1.265   7.283   7.094  0.2924  0.2211 -0.8937
  133MOL   C11418858   1.026   7.142   7.173  0.3210  0.1390 -0.0732
  133MOL   C11518859   0.959   7.284   7.183  0.1083 -0.2274  0.1550
  133MOL   O11618860   0.823   7.275   7.132  0.1923  0.0627  0.1637
  133MOL   H11718861   1.007   7.101   7.074 -3.0793  2.2438 -0.3795
  133MOL   H11818862   0.968   7.081   7.242  1.3806  0.9629  1.5703
  133MOL   H11918863   1.011   7.356   7.121 -0.3237 -0.4798 -0.5032
  133MOL   H12018864   0.784   7.357   7.156 -2.4864 -1.1942  0.3325
  133MOL   C12118865   0.947   7.339   7.324 -0.0478  0.7481 -0.5392
  133MOL   C12218866   0.904   7.489   7.332  0.1707 -0.2047 -0.5450
  133MOL   O12318867   0.771   7.506   7.276 -0.1315 -0.3841  0.1139
  133MOL   H12418868   0.867   7.286   7.375 -0.0809 -0.2395 -1.5864
  133MOL   H12518869   1.035   7.308   7.380 -1.1454 -1.5265  0.0042
  133MOL   H12618870   0.966   0.046   7.285 -1.2116  1.0018 -0.4376
  133MOL   H12718871   0.736   0.068   7.309  0.6585  1.2924 -3.0013
  133MOL   C12818872   0.883   0.008   7.480  0.3315 -0.1309 -0.2618
  133MOL   C12918873   1.002   7.511   0.061  0.1826  0.2473  0.3295
  133MOL   O13018874   1.116   0.037   7.511  0.0629  0.2575 -0.4012
  133MOL   H13118875   0.856   0.114   7.476  0.6009  0.0265  1.5175
  133MOL   H13218876   0.803   7.469   0.006 -0.9423  2.5290  1.1035
  133MOL   H13318877   1.017   7.408   0.095  0.5891  0.4149  0.6623
  133MOL   H13418878   1.197   7.518   0.021  0.4920  1.4770  0.0476
  133MOL   C13518879   0.988   0.083   0.183  0.4301  0.1333 -0.3945
  133MOL   C13618880   0.874   0.035   0.268 -0.3839  0.0359  0.0282
  133MOL   O13718881   0.877   0.106   0.396 -0.4878  0.0966  0.3409
  133MOL   H13818882   1.077   0.076   0.246 -0.0206  1.0873  0.3631
  133MOL   H13918883   0.989   0.189   0.157 -0.6554  0.5410  1.1437
  133MOL   H14018884   0.885   7.447   0.281  0.2475  0.0512 -0.3252
  133MOL   H14118885   0.909   0.053   0.467  1.3130  0.8779  0.1637
  133MOL   H14218886   0.778   0.058   0.222  0.0896 -0.0522 -1.0198
  134MOL     C118887   0.871   3.186   1.621  0.2396 -0.7075  0.9765
  134MOL     C218888   0.937   3.232   1.754 -0.7249 -0.6311  1.1487
  134MOL     O318889   0.916   3.131   1.847  0.0091 -0.3124  0.0866
  134MOL     H418890   0.905   3.086   1.596  0.3763 -0.4568  0.1602
  134MOL     H518891   0.889   3.260   1.543 -0.9168 -0.8570  0.5574
  134MOL     H618892   0.889   3.327   1.779 -0.5219  0.0959 -1.1068
  134MOL     H718893   0.995   3.078   1.843 -0.6625 -1.4178  1.0756
  134MOL     H818894   0.762   3.186   1.629 -0.0366  0.7055 -2.1090
  134MOL     C918895   1.088   3.248   1.730 -0.0072 -0.3004  0.6763
  134MOL    C1018896   1.136   3.378   1.659 -0.6137  0.0444 -0.2203
  134MOL    O1118897   1.103   3.496   1.734  0.0728 -0.2476  0.5480
  134MOL    H1218898   1.153   3.247   1.817  1.6180  0.3291 -0.5065
  134MOL    H1318899   1.134   3.170   1.670  0.6532  1.0719 -0.6310
  134MOL    H1418900   1.106   3.377   1.554 -3.3933 -2.6962  0.5388
  134MOL    H1518901   1.012   3.513   1.716 -0.4685 -2.4908  1.0306
  134MOL    C1618902   1.295   3.384   1.650  0.6468  0.1848  0.3033
  134MOL    C1718903   1.367   3.300   1.551  0.4834 -0.0783 -0.1471
  134MOL    O1818904   1.334   3.339   1.423  0.4266 -0.5048 -0.0825
  134MOL    H1918905   1.322   3.488   1.635 -1.8811  1.2664  2.8992
  134MOL    H2018906   1.345   3.374   1.747 -0.7453 -0.3973  0.9743
  134MOL    H2118907   1.343   3.195   1.562 -1.1782  0.3694  0.6121
  134MOL    H2218908   1.263   3.286   1.391 -0.8855  1.3349 -0.2645
  134MOL    C2318909   1.521   3.305   1.568  0.3827  0.2597 -0.1485
  134MOL    C2418910   1.620   3.261   1.459  0.4397  0.6442 -0.6078
  134MOL    O2518911   1.747   3.298   1.496  0.3779 -0.1267 -0.0325
  134MOL    H2618912   1.537   3.412   1.578 -1.3378  0.4786  0.5546
  134MOL    H2718913   1.548   3.268   1.667  0.8546  1.7140  0.2726
  134MOL    H2818914   1.593   3.320   1.371  0.5672 -0.7299 -1.5790
  134MOL    H2918915   1.747   3.380   1.543  0.0744  0.4957 -1.1116
  134MOL    C3018916   1.620   3.109   1.431  0.0939 -0.1868  0.4180
  134MOL    C3118917   1.713   3.060   1.318  0.1439 -0.4343 -0.4462
  134MOL    O3218918   1.689   2.921   1.315 -0.3573 -0.0205  0.3504
  134MOL    H3318919   1.645   3.058   1.524  1.0777  0.8684  0.7340
  134MOL    H3418920   1.516   3.084   1.411 -0.7961  0.6769  3.7364
  134MOL    H3518921   1.819   3.077   1.335 -0.2489  1.1318  0.5996
  134MOL    H3618922   1.774   2.889   1.342  1.0981  3.3248 -0.0612
  134MOL    C3718923   1.673   3.100   1.168 -0.2772  0.4063 -0.8273
  134MOL    C3818924   1.794   3.105   1.078  0.2602  0.0486 -0.6143
  134MOL    O3918925   1.763   3.062   0.946  0.2197 -0.0853  0.2724
  134MOL    H4018926   1.586   3.053   1.122 -1.5830  1.8300  0.1156
  134MOL    H4118927   1.636   3.203   1.169 -0.5437  0.3113  0.0050
  134MOL    H4218928   1.859   3.024   1.112 -0.1867 -0.1920 -0.3180
  134MOL    H4318929   1.845   3.066   0.899 -0.8826 -0.1366 -1.6658
  134MOL    C4418930   1.851   3.248   1.054  0.2502  0.7089 -0.6873
  134MOL    C4518931   1.902   3.323   1.179  0.3303 -0.8136  0.2052
  134MOL    O4618932   2.031   3.266   1.198 -0.3934  0.3140  0.3224
  134MOL    H4718933   1.927   3.254   0.976 -0.5389  0.2959 -1.4993
  134MOL    H4818934   1.778   3.309   1.002 -0.0592 -1.0675 -2.3655
  134MOL    H4918935   1.834   3.290   1.259 -0.5934 -2.0389 -1.0576
  134MOL    H5018936   2.087   3.319   1.253  1.1554 -1.9220  0.9603
  134MOL    C5118937   1.899   3.478   1.162 -0.3243 -0.6734  0.6304
  134MOL    C5218938   1.768   3.559   1.185  0.2312 -0.0805  0.1615
  134MOL    O5318939   1.781   3.701   1.180  0.2896 -0.0876  0.4900
  134MOL    H5418940   1.977   3.514   1.229 -0.5312 -0.6569  0.8661
  134MOL    H5518941   1.944   3.506   1.067  0.2564  0.6331  1.2751
  134MOL    H5618942   1.740   3.520   1.283  1.4855 -3.7263 -0.8353
  134MOL    H5718943   1.759   3.736   1.265 -3.0829  0.4263 -0.5566
  134MOL    C5818944   1.652   3.527   1.088 -0.2761  0.4009 -0.3984
  134MOL    C5918945   1.522   3.602   1.109 -0.1301 -0.0100 -0.7370
  134MOL    O6018946   1.440   3.586   1.001 -0.0731 -0.1308 -0.2813
  134MOL    H6118947   1.690   3.552   0.989 -1.7683  0.7123 -0.8998
  134MOL    H6218948   1.621   3.423   1.095  0.0454  0.2416 -1.2499
  134MOL    H6318949   1.549   3.708   1.109 -0.4129  0.0635 -0.4210
  134MOL    H6418950   1.434   3.669   0.956  0.8240 -0.8931 -1.8768
  134MOL    C6518951   1.436   3.563   1.229 -0.6147  0.0279 -0.7205
  134MOL    C6618952   1.303   3.644   1.254  0.0679  0.4807  0.5684
  134MOL    O6718953   1.271   3.624   1.387  0.0335  0.6090  0.6188
  134MOL    H6818954   1.411   3.457   1.223  3.1390 -1.1413  1.9634
  134MOL    H6918955   1.488   3.575   1.324 -0.7393 -0.7465 -0.5502
  134MOL    H7018956   1.227   3.600   1.190  2.3882 -0.1009 -1.8515
  134MOL    H7118957   1.273   3.530   1.397  1.2108  0.6068  0.4504
  134MOL    C7218958   1.299   3.801   1.231  0.0998 -0.6129 -0.2279
  134MOL    C7318959   1.172   3.879   1.277 -0.7229  0.3903  0.1056
  134MOL    O7418960   1.201   4.018   1.244  0.0971  0.8602 -0.4404
  134MOL    H7518961   1.378   3.842   1.294 -1.7350  1.1530  1.0054
  134MOL    H7618962   1.331   3.819   1.128  0.0462 -1.2038 -0.3465
  134MOL    H7718963   1.170   3.877   1.386  0.7117  2.1523  0.1962
  134MOL    H7818964   1.284   4.043   1.281 -1.0991  3.0355  0.8589
  134MOL    C7918965   1.046   3.842   1.203  0.4586 -0.1377 -0.5570
  134MOL    C8018966   0.918   3.810   1.294  1.0682 -0.2160  0.2652
  134MOL    O8118967   0.839   3.739   1.206 -0.0877 -0.2234  0.2573
  134MOL    H8218968   1.029   3.905   1.116 -1.0692  1.1222  0.6228
  134MOL    H8318969   1.065   3.746   1.155 -1.6072  0.5385 -2.8176
  134MOL    H8418970   0.862   3.899   1.322  2.2333  0.6103 -0.0047
  134MOL    H8518971   0.854   3.771   1.118  1.5397 -3.2814 -0.6522
  134MOL    C8618972   0.948   3.712   1.404 -0.6945  0.1591 -0.6350
  134MOL    C8718973   0.829   3.662   1.502  0.0612  0.3164  0.2943
  134MOL    O8818974   0.867   3.546   1.575 -0.4292  0.4314 -0.0493
  134MOL    H8918975   0.995   3.626   1.357 -1.4310  0.1823 -1.4259
  134MOL    H9018976   1.025   3.753   1.470  0.3133  1.9322 -2.8447
  134MOL    H9118977   0.746   3.641   1.434  0.5948  0.9613 -0.5680
  134MOL    H9218978   0.873   3.478   1.510  0.8128  1.1180 -0.6802
  134MOL    C9318979   0.777   3.777   1.597  0.4010 -0.0092  0.2209
  134MOL    C9418980   0.685   3.724   1.703 -0.4718 -0.5288 -0.1546
  134MOL    O9518981   0.633   3.844   1.767  0.0587  0.3870 -0.0119
  134MOL    H9618982   0.870   3.817   1.636  0.4456  0.3697 -0.2721
  134MOL    H9718983   0.741   3.860   1.537  0.6475  0.2934  0.4876
  134MOL    H9818984   0.733   3.670   1.784 -1.6758  0.8134  1.5094
  134MOL    H9918985   0.609   3.820   1.855 -2.2495  2.4740 -0.0075
  134MOL   C10018986   0.565   3.640   1.642 -0.2541 -0.5083 -0.2180
  134MOL   C10118987   0.465   3.578   1.751  0.0117 -0.0552  0.2995
  134MOL   O10218988   0.350   3.523   1.694  0.2009 -0.1197 -0.4851
  134MOL   H10318989   0.507   3.708   1.580  0.6557 -0.2177 -0.7651
  134MOL   H10418990   0.611   3.557   1.588  0.5541  0.0321 -0.3732
  134MOL   H10518991   0.427   3.665   1.805 -2.1864  0.1692 -1.5391
  134MOL   H10618992   0.373   3.511   1.603  2.9906 -0.5938  0.2461
  134MOL   C10718993   0.538   3.475   1.847 -1.0583  0.1915  0.2212
  134MOL   C10818994   0.536   3.493   2.001 -0.5855 -0.2977  0.7205
  134MOL   O10918995   0.607   3.614   2.019 -0.0617  0.4792  0.2224
  134MOL   H11018996   0.506   3.373   1.828  1.0548 -0.8113  1.9036
  134MOL   H11118997   0.645   3.474   1.824 -1.3290  1.2549 -1.1487
  134MOL   H11218998   0.589   3.409   2.045 -0.2122 -1.6078 -2.0937
  134MOL   H11318999   0.544   3.676   2.053 -0.8165 -1.8190  3.2388
  134MOL   C11419000   0.398   3.516   2.064 -0.1717 -0.2998  0.1937
  134MOL   C11519001   0.315   3.384   2.063 -0.2678  0.1771 -0.0578
  134MOL   O11619002   0.369   3.308   2.172 -0.4129 -0.6437  0.1709
  134MOL   H11719003   0.402   3.558   2.165 -0.7211  0.2442 -0.0031
  134MOL   H11819004   0.345   3.590   2.003  0.1513  2.2186  2.8242
  134MOL   H11919005   0.319   3.321   1.974 -0.1171  0.7871 -0.4824
  134MOL   H12019006   0.338   3.219   2.170 -1.2369 -0.3553  0.3054
  134MOL   C12119007   0.164   3.403   2.096  0.4090 -0.1975  0.0203
  134MOL   C12219008   0.071   3.444   1.974  0.0025  0.1610 -0.9874
  134MOL   O12319009   0.116   3.390   1.848 -0.0835 -0.2787 -0.1341
  134MOL   H12419010   0.123   3.309   2.133  1.1076 -0.9250 -1.0331
  134MOL   H12519011   0.153   3.480   2.173  1.6310 -0.1319  0.1473
  134MOL   H12619012   0.088   3.551   1.960 -0.2686  0.4259  0.5927
  134MOL   H12719013   0.190   3.440   1.818 -0.0960  0.1765  0.5815
  134MOL   C12819014   7.446   3.397   1.998  0.7837 -0.5052 -0.2214
  134MOL   C12919015   7.344   3.497   1.940 -1.0597 -0.0439  0.6665
  134MOL   O13019016   7.249   3.427   1.862 -0.2027  0.3462 -0.0673
  134MOL   H13119017   7.441   3.298   1.952 -1.6237  0.0217 -1.1716
  134MOL   H13219018   7.428   3.380   2.104  0.1509  1.2438 -0.0361
  134MOL   H13319019   7.393   3.571   1.877 -1.0365  1.6107  2.5712
  134MOL   H13419020   7.270   3.451   1.773  1.4902  1.0357  0.4927
  134MOL   C13519021   7.277   3.568   2.053 -0.6073 -0.4429 -1.3988
  134MOL   C13619022   7.161   3.656   2.013 -0.0245 -0.1203 -1.0025
  134MOL   O13719023   7.116   3.728   2.126 -0.3140 -0.2475  0.0684
  134MOL   H13819024   7.246   3.504   2.135 -1.9413  0.3704 -1.2438
  134MOL   H13919025   7.353   3.634   2.096 -2.0460  1.3838 -1.5769
  134MOL   H14019026   7.080   3.595   1.973  0.7137 -1.5343 -0.3757
  134MOL   H14119027   7.044   3.680   2.164  0.7203 -0.8256  1.3226
  134MOL   H14219028   7.199   3.718   1.932  3.1710 -0.5936  0.0731
  135MOL     C119029   1.007   1.539   4.821  0.0965  0.0414  0.1559
  135MOL     C219030   0.864   1.531   4.758  0.0022 -0.2991 -0.0239
  135MOL     O319031   0.812   1.663   4.774 -0.0531 -0.3823  0.3143
  135MOL     H419032   1.010   1.566   4.926  2.4586 -0.1712  0.1876
  135MOL     H519033   1.059   1.621   4.771  1.5712  0.1155  1.7552
  135MOL     H619034   0.804   1.468   4.824  1.8316 -2.5457 -0.4696
  135MOL     H719035   0.748   1.646   4.841 -2.3834 -0.7299 -1.9158
  135MOL     H819036   1.056   1.442   4.810 -0.3838 -0.3230  1.2873
  135MOL     C919037   0.854   1.493   4.604 -0.4100  0.6794 -0.4892
  135MOL    C1019038   0.909   1.351   4.569 -0.5254  0.1200  0.0119
  135MOL    O1119039   0.824   1.266   4.645 -0.0701 -1.0601  0.8343
  135MOL    H1219040   0.751   1.499   4.569 -1.0755 -0.1602  1.3110
  135MOL    H1319041   0.906   1.558   4.534 -0.8750 -1.5627 -2.9911
  135MOL    H1419042   1.012   1.329   4.595  0.2829 -0.1920 -3.1904
  135MOL    H1519043   0.743   1.312   4.661 -0.8776 -2.0725 -0.2152
  135MOL    C1619044   0.890   1.313   4.418  0.0873 -0.5715 -0.0780
  135MOL    C1719045   0.904   1.164   4.375 -0.0761  0.3213  1.2538
  135MOL    O1819046   0.782   1.106   4.410  0.4390  0.1341  0.4687
  135MOL    H1919047   0.792   1.353   4.390  0.6384  0.6585 -0.2721
  135MOL    H2019048   0.959   1.379   4.366  1.3392 -1.3530  0.5630
  135MOL    H2119049   0.984   1.121   4.435  0.0863  0.0856  0.8691
  135MOL    H2219050   0.759   1.137   4.496 -0.0811 -0.5783  0.5918
  135MOL    C2319051   0.937   1.153   4.231 -0.4092 -0.2014  0.4061
  135MOL    C2419052   0.921   1.015   4.167 -0.7039  0.0060  0.0795
  135MOL    O2519053   0.932   1.023   4.026 -0.3547 -0.0608 -0.0746
  135MOL    H2619054   0.870   1.221   4.179 -0.9469 -1.2846 -0.3296
  135MOL    H2719055   1.034   1.200   4.215 -1.4683  2.4683  1.4471
  135MOL    H2819056   0.819   0.978   4.182 -0.3337 -1.6909 -1.3170
  135MOL    H2919057   0.880   1.094   3.991  0.6378  0.8400  0.2589
  135MOL    C3019058   1.012   0.913   4.233  0.1488  0.6937 -0.2284
  135MOL    C3119059   1.167   0.946   4.238  0.2023 -0.3545 -0.8940
  135MOL    O3219060   1.217   0.856   4.336 -0.2316  0.2559  0.0073
  135MOL    H3319061   0.977   0.909   4.336  0.6595 -0.6200 -0.0940
  135MOL    H3419062   0.996   0.819   4.182 -0.3098  0.9412 -0.5374
  135MOL    H3519063   1.180   1.046   4.280  1.9729 -0.8976 -0.1000
  135MOL    H3619064   1.196   0.767   4.311  0.4073  0.1254 -0.0672
  135MOL    C3719065   1.241   0.920   4.109  0.7604  0.3417  0.4793
  135MOL    C3819066   1.381   0.985   4.084  0.5225 -0.8143 -0.0340
  135MOL    O3919067   1.427   0.941   3.963  0.1091 -0.1911  0.0325
  135MOL    H4019068   1.253   0.813   4.096  1.5373  0.0719  3.3051
  135MOL    H4119069   1.175   0.962   4.033 -0.8882 -2.2589  0.4412
  135MOL    H4219070   1.451   0.947   4.158  2.1859  0.0076 -1.1516
  135MOL    H4319071   1.436   0.847   3.959  2.0168 -0.0856  1.3538
  135MOL    C4419072   1.368   1.144   4.065 -0.1997 -0.0984  0.4305
  135MOL    C4519073   1.504   1.212   4.064 -0.4315  0.5604  0.0925
  135MOL    O4619074   1.507   1.342   3.999 -0.5416  0.0496 -0.3211
  135MOL    H4719075   1.304   1.160   3.979  1.6919  1.7930 -0.6802
  135MOL    H4819076   1.312   1.196   4.143  0.0487 -0.1159  0.6214
  135MOL    H4919077   1.577   1.146   4.016 -1.2499 -1.4505  1.5579
  135MOL    H5019078   1.569   1.336   3.928  0.5929 -0.3235  0.6800
  135MOL    C5119079   1.543   1.241   4.210 -0.2608  0.2081  0.6706
  135MOL    C5219080   1.672   1.313   4.243  0.2089 -0.3352 -0.7098
  135MOL    O5319081   1.701   1.319   4.380  0.2910  0.3325 -0.0601
  135MOL    H5419082   1.463   1.308   4.242 -1.1181 -0.9962  1.0976
  135MOL    H5519083   1.521   1.150   4.267  0.7322 -1.0662 -0.9315
  135MOL    H5619084   1.662   1.418   4.216  3.1012  0.4979  1.1321
  135MOL    H5719085   1.746   1.238   4.398  1.6818  0.8984 -0.9435
  135MOL    C5819086   1.783   1.247   4.166  0.1171 -0.5221  0.7025
  135MOL    C5919087   1.928   1.296   4.201 -0.1528 -0.4644 -0.2300
  135MOL    O6019088   2.019   1.241   4.119 -0.6508 -0.2311  0.1897
  135MOL    H6119089   1.790   1.138   4.175  0.8348 -0.4887  0.5692
  135MOL    H6219090   1.768   1.264   4.060  1.3101  1.2454  0.7954
  135MOL    H6319091   1.939   1.267   4.305 -0.9966 -0.8082 -0.2350
  135MOL    H6419092   2.013   1.274   4.031  0.0899 -0.7690 -0.0612
  135MOL    C6519093   1.951   1.450   4.180 -0.3879 -0.1925 -0.3035
  135MOL    C6619094   2.073   1.506   4.260 -0.3350 -0.3031  0.2173
  135MOL    O6719095   2.076   1.642   4.233  0.2621 -0.3210  0.0407
  135MOL    H6819096   1.970   1.472   4.075 -2.1040  2.7106 -0.0416
  135MOL    H6919097   1.864   1.506   4.211 -0.0420  2.0079 -3.1190
  135MOL    H7019098   2.165   1.466   4.218  0.9824  3.4837 -0.7331
  135MOL    H7119099   2.141   1.658   4.167 -0.9435  1.3488 -0.7584
  135MOL    C7219100   2.063   1.486   4.409  0.1088 -0.4398  0.0032
  135MOL    C7319101   2.136   1.358   4.454  0.7055 -0.4468  0.3177
  135MOL    O7419102   2.281   1.379   4.442  0.0133  0.1586 -0.5268
  135MOL    H7519103   2.099   1.576   4.458 -0.8961 -0.1097  0.1345
  135MOL    H7619104   1.957   1.477   4.430  0.0639  0.6480  0.2619
  135MOL    H7719105   2.112   1.267   4.400  1.9949  0.7977 -2.4492
  135MOL    H7819106   2.297   1.467   4.474  0.0202  0.1536 -0.5173
  135MOL    C7919107   2.113   1.325   4.604  0.4655 -0.4589 -0.6561
  135MOL    C8019108   1.990   1.245   4.650 -0.5912 -0.0144 -0.0081
  135MOL    O8119109   1.999   1.126   4.572  0.2959  0.7082  0.4568
  135MOL    H8219110   2.207   1.284   4.644  0.4316  1.6182  1.6188
  135MOL    H8319111   2.107   1.421   4.655  0.3624  1.0690 -3.4770
  135MOL    H8419112   1.899   1.296   4.618 -0.8191  1.1557  2.4248
  135MOL    H8519113   2.085   1.087   4.562  1.3426  2.7701  1.1218
  135MOL    C8619114   1.988   1.208   4.802  0.4680  0.1032 -0.2600
  135MOL    C8719115   1.851   1.188   4.867  0.3377 -0.0725  0.3347
  135MOL    O8819116   1.858   1.166   5.002  0.0717 -0.3124 -0.9362
  135MOL    H8919117   2.047   1.117   4.814 -0.0176  0.0246  1.7966
  135MOL    H9019118   2.039   1.282   4.865  2.1256 -0.8374 -0.4771
  135MOL    H9119119   1.815   1.092   4.829 -0.0017  0.0660  0.3019
  135MOL    H9219120   1.812   1.243   5.034 -0.3280 -0.8852 -0.1026
  135MOL    C9319121   1.763   1.303   4.839 -0.4441  0.0712 -0.4718
  135MOL    C9419122   1.630   1.311   4.915 -0.6907 -0.3159 -0.1914
  135MOL    O9519123   1.660   1.360   5.045  0.1503 -0.2564  0.1139
  135MOL    H9619124   1.810   1.395   4.873  0.7672 -0.0410 -1.8371
  135MOL    H9719125   1.737   1.313   4.734 -1.5474  0.1374 -0.2009
  135MOL    H9819126   1.583   1.213   4.924  0.3099 -1.0593 -2.8705
  135MOL    H9919127   1.581   1.396   5.083  0.5799 -1.0802  1.8454
  135MOL   C10019128   1.537   1.414   4.850 -0.6012 -0.6044  0.2817
  135MOL   C10119129   1.469   1.360   4.723  0.5679  0.1556  0.1812
  135MOL   O10219130   1.379   1.254   4.756 -0.1082  0.2489  0.1560
  135MOL   H10319131   1.459   1.451   4.916 -0.5378 -0.5275  0.3129
  135MOL   H10419132   1.603   1.497   4.826 -2.1785  0.6213  0.1099
  135MOL   H10519133   1.536   1.328   4.644  0.8991 -1.0046  0.9151
  135MOL   H10619134   1.438   1.183   4.774 -0.6682 -1.0660 -2.9197
  135MOL   C10719135   1.390   1.475   4.641  0.9243 -0.6590 -0.9032
  135MOL   C10819136   1.336   1.423   4.502 -0.0011 -0.2816 -0.0855
  135MOL   O10919137   1.249   1.315   4.523  0.1147 -0.0044 -0.6681
  135MOL   H11019138   1.304   1.511   4.697  1.8560  0.1903  0.0087
  135MOL   H11119139   1.453   1.564   4.629 -0.9054  0.9874  1.2796
  135MOL   H11219140   1.431   1.400   4.455  1.7249  2.9607  1.6844
  135MOL   H11319141   1.286   1.276   4.600 -0.3220 -1.1130 -1.0019
  135MOL   C11419142   1.263   1.529   4.418  0.7067  0.3374 -0.3852
  135MOL   C11519143   1.337   1.660   4.380 -0.3727  0.3459  1.2259
  135MOL   O11619144   1.431   1.616   4.285 -0.0415  0.2380  0.3984
  135MOL   H11719145   1.236   1.481   4.324 -2.5018  0.3284  0.4900
  135MOL   H11819146   1.167   1.549   4.465  0.5346 -0.3092 -0.4523
  135MOL   H11919147   1.378   1.699   4.473  1.1326  0.3467  0.5710
  135MOL   H12019148   1.388   1.575   4.211 -1.3480 -1.8154  2.2227
  135MOL   C12119149   1.235   1.760   4.323 -0.1415 -0.3710 -0.4519
  135MOL   C12219150   1.188   1.868   4.422 -0.0493 -0.0012  1.0449
  135MOL   O12319151   1.106   1.945   4.345  0.2980 -0.3607 -0.6502
  135MOL   H12419152   1.263   1.792   4.223 -0.4514 -1.6057 -0.9358
  135MOL   H12519153   1.148   1.703   4.289 -0.5944 -0.0617  0.1682
  135MOL   H12619154   1.271   1.928   4.458  0.3738  1.0023 -1.4629
  135MOL   H12719155   1.154   2.016   4.303 -2.2167  2.5328  1.1967
  135MOL   C12819156   1.111   1.826   4.543  0.2963  0.5302 -0.4331
  135MOL   C12919157   1.042   1.937   4.630  0.8282  0.0807 -1.2941
  135MOL   O13019158   0.996   1.884   4.762 -0.5162  0.7624  0.1544
  135MOL   H13119159   1.035   1.755   4.510 -0.1197  0.4055  0.7799
  135MOL   H13219160   1.183   1.771   4.603 -0.1122  2.0465  1.4803
  135MOL   H13319161   0.961   1.971   4.565 -1.9480  1.0381  2.4940
  135MOL   H13419162   0.935   1.814   4.746  0.7704 -0.9174  2.3465
  135MOL   C13519163   1.104   2.068   4.659  0.5292  0.7200  0.2300
  135MOL   C13619164   1.224   2.058   4.756 -0.8064  0.4327 -0.1168
  135MOL   O13719165   1.268   2.183   4.792 -0.0895  0.1715  0.2688
  135MOL   H13819166   1.152   2.104   4.568  0.9362 -0.7695 -0.1483
  135MOL   H13919167   1.029   2.143   4.686 -0.0419  1.1969 -2.5806
  135MOL   H14019168   1.300   2.001   4.703 -1.0579 -2.1568  2.1620
  135MOL   H14119169   1.207   2.210   4.858 -1.3649  0.7991 -1.1444
  135MOL   H14219170   1.202   2.004   4.848 -1.1609  0.3781 -0.2319
  136MOL     C119171   7.170   2.261   3.347 -0.3545  0.6443 -0.6441
  136MOL     C219172   7.139   2.338   3.222 -0.7932 -0.3535 -0.4745
  136MOL     O319173   7.105   2.475   3.265 -0.6240  0.2345 -0.1865
  136MOL     H419174   7.079   2.254   3.406  1.0670  0.7676  1.5924
  136MOL     H519175   7.241   2.312   3.411  0.6782 -0.6903 -0.7077
  136MOL     H619176   7.049   2.293   3.180 -1.3934  1.3978 -1.1043
  136MOL     H719177   7.013   2.486   3.245 -0.7841 -1.3143 -0.3416
  136MOL     H819178   7.215   2.165   3.323  0.2573  1.4371 -2.8328
  136MOL     C919179   7.253   2.352   3.120  0.4462 -0.3037 -0.0417
  136MOL    C1019180   7.215   2.420   2.989  0.7943  0.1869 -0.1111
  136MOL    O1119181   7.336   2.427   2.914  0.3307  0.6489  0.3647
  136MOL    H1219182   7.329   2.408   3.174  0.6799  1.8574 -2.4880
  136MOL    H1319183   7.294   2.253   3.101 -0.1649 -0.9588  1.9172
  136MOL    H1419184   7.179   2.520   3.013  4.2069  0.7534  3.0932
  136MOL    H1519185   7.370   2.340   2.905  0.9501  0.7100  1.8819
  136MOL    C1619186   7.107   2.354   2.900  0.0588 -0.5648 -0.8441
  136MOL    C1719187   7.067   2.424   2.769 -0.8153  0.3078 -0.7231
  136MOL    O1819188   7.053   2.326   2.665  0.4204 -0.4785 -0.4379
  136MOL    H1919189   7.145   2.254   2.883  0.4335 -0.4258 -0.8418
  136MOL    H2019190   7.018   2.329   2.957 -1.1834  0.2732 -2.3755
  136MOL    H2119191   7.151   2.478   2.724 -1.1321  1.0365 -0.4436
  136MOL    H2219192   7.056   2.379   2.587 -1.0412 -0.2454 -0.3594
  136MOL    C2319193   6.938   2.506   2.790 -0.2294 -0.1066  0.7634
  136MOL    C2419194   6.896   2.601   2.680 -0.9814  0.1745  0.1401
  136MOL    O2519195   6.771   2.658   2.713 -0.2372 -0.1998 -0.2769
  136MOL    H2619196   6.857   2.435   2.802 -0.1628 -0.1774  0.7942
  136MOL    H2719197   6.950   2.556   2.886  0.1516  0.3643  0.4721
  136MOL    H2819198   6.890   2.538   2.591 -3.9207  0.3701  0.1651
  136MOL    H2919199   6.716   2.607   2.655  1.9750 -0.3351 -2.2918
  136MOL    C3019200   6.991   2.719   2.661 -0.8571 -0.7329  0.2044
  136MOL    C3119201   6.974   2.797   2.528  0.0892  0.5958 -0.1021
  136MOL    O3219202   7.065   2.908   2.528 -0.2115  0.3441 -0.4150
  136MOL    H3319203   6.982   2.787   2.745 -2.2845 -0.8635  0.1770
  136MOL    H3419204   7.098   2.702   2.670 -0.5390  1.6145  1.1577
  136MOL    H3519205   6.872   2.837   2.528 -0.8249 -1.6489  0.6021
  136MOL    H3619206   7.034   2.972   2.590 -0.2928  0.7400 -0.8587
  136MOL    C3719207   7.004   2.718   2.397 -0.9517 -0.2973 -0.1857
  136MOL    C3819208   7.123   2.622   2.403  0.6585 -0.1660  0.2377
  136MOL    O3919209   7.092   2.496   2.456 -0.6341 -0.6504  0.4276
  136MOL    H4019210   6.909   2.664   2.390 -2.6146  2.6325 -1.1264
  136MOL    H4119211   7.006   2.777   2.306 -0.2527 -0.5603 -0.3387
  136MOL    H4219212   7.205   2.663   2.463  1.0260 -2.2986  1.2812
  136MOL    H4319213   7.110   2.433   2.388  0.4117  0.7611 -0.6112
  136MOL    C4419214   7.184   2.595   2.259 -0.6574 -0.2373  0.6136
  136MOL    C4519215   7.304   2.683   2.202 -0.2899 -0.3003 -0.6391
  136MOL    O4619216   7.319   2.652   2.061 -0.4962  0.2406 -0.1404
  136MOL    H4719217   7.219   2.492   2.252 -2.4520 -0.7479 -1.4006
  136MOL    H4819218   7.103   2.599   2.187 -1.3767  1.4434  1.4785
  136MOL    H4919219   7.388   2.662   2.269  0.0636 -1.1553 -1.3474
  136MOL    H5019220   7.358   2.566   2.069 -0.0671  0.6188  2.4141
  136MOL    C5119221   7.286   2.841   2.226 -0.7714  0.1554 -0.0201
  136MOL    C5219222   7.370   2.928   2.140  1.0259  0.5245 -0.2820
  136MOL    O5319223   7.327   3.062   2.152  0.8277  0.5201  0.2720
  136MOL    H5419224   7.182   2.849   2.193 -0.8427 -1.4363 -0.2218
  136MOL    H5519225   7.294   2.881   2.327 -1.7989  0.4450 -0.0461
  136MOL    H5619226   7.361   2.889   2.039  1.8422  1.1428 -0.6029
  136MOL    H5719227   7.255   3.075   2.092  0.0961  2.1684  1.4748
  136MOL    C5819228   7.513   2.915   2.184 -0.1375 -0.3920 -0.1106
  136MOL    C5919229   0.101   2.980   2.092 -0.0855  0.5352 -0.7376
  136MOL    O6019230   0.210   3.012   2.176 -0.8398  0.2587  0.0783
  136MOL    H6119231   0.017   2.943   2.287  1.9569 -1.9734 -0.1162
  136MOL    H6219232   0.028   2.811   2.177  0.5622 -0.0936 -1.1357
  136MOL    H6319233   0.048   3.070   2.060 -0.0685  1.1420  0.9032
  136MOL    H6419234   0.227   2.932   2.223 -0.7561  0.1117 -0.1974
  136MOL    C6519235   0.158   2.898   1.974 -0.1655 -1.0570 -0.6475
  136MOL    C6619236   0.255   2.981   1.886 -0.0016  0.5771 -0.0629
  136MOL    O6719237   0.374   3.017   1.959 -0.3592  0.3713  0.0568
  136MOL    H6819238   0.205   2.814   2.024  1.2086 -0.0197 -0.1878
  136MOL    H6919239   0.073   2.856   1.919 -1.1890 -0.4985  0.4778
  136MOL    H7019240   0.206   3.072   1.851 -0.7578  0.2982  0.2795
  136MOL    H7119241   0.356   3.026   2.051 -0.7670  2.0359 -0.1817
  136MOL    C7219242   0.288   2.914   1.750  0.9534  0.5202  0.2939
  136MOL    C7319243   0.385   3.001   1.668  0.3979  0.2256  0.5249
  136MOL    O7419244   0.508   3.008   1.736 -0.2243  0.8259  1.0286
  136MOL    H7519245   0.313   2.808   1.756  2.4684  0.7491 -1.4543
  136MOL    H7619246   0.190   2.914   1.702  0.4804  2.5236  1.2078
  136MOL    H7719247   0.348   3.102   1.652  1.3116  0.4494 -0.2600
  136MOL    H7819248   0.484   3.028   1.825 -1.4877 -0.7579  1.0717
  136MOL    C7919249   0.415   2.932   1.534  0.8014  0.1480 -0.0612
  136MOL    C8019250   0.516   3.003   1.434 -0.2625  0.1624  0.5727
  136MOL    O8119251   0.560   2.921   1.327 -0.1191  0.3538 -0.0002
  136MOL    H8219252   0.455   2.831   1.542 -0.4304 -0.4397 -1.3956
  136MOL    H8319253   0.318   2.931   1.486  0.0585 -0.6830  1.4220
  136MOL    H8419254   0.598   3.044   1.494 -0.2746  0.6818  0.2433
  136MOL    H8519255   0.596   2.840   1.362 -0.7477  0.7495  1.6161
  136MOL    C8619256   0.448   3.131   1.370 -0.4165  0.0114  0.3745
  136MOL    C8719257   0.531   3.217   1.261 -0.4406  0.5323 -0.5836
  136MOL    O8819258   0.433   3.315   1.216  0.3791  0.6731 -0.7983
  136MOL    H8919259   0.351   3.105   1.327 -0.4111 -1.6461  1.3122
  136MOL    H9019260   0.416   3.193   1.454  0.5089  0.9728  0.0309
  136MOL    H9119261   0.555   3.156   1.174  2.0244 -1.1578  1.2123
  136MOL    H9219262   0.363   3.266   1.176 -0.1846  0.6112  0.2485
  136MOL    C9319263   0.644   3.286   1.333 -0.4407  0.4354  0.1360
  136MOL    C9419264   0.719   3.388   1.248 -0.1154  0.6894 -0.2381
  136MOL    O9519265   0.838   3.411   1.310  0.1111  0.0653  0.4365
  136MOL    H9619266   0.614   3.343   1.421  0.0235 -0.5735  0.9643
  136MOL    H9719267   0.709   3.209   1.373  1.0614  1.2303 -0.7249
  136MOL    H9819268   0.665   3.482   1.234  2.0005  1.9317 -0.2957
  136MOL    H9919269   0.869   3.497   1.283  1.0181 -0.7086 -1.0417
  136MOL   C10019270   0.773   3.346   1.115  0.8543 -0.0391 -0.0786
  136MOL   C10119271   0.680   3.363   0.992 -0.3457  0.1866 -0.0285
  136MOL   O10219272   0.647   3.498   0.977 -0.5099 -0.6846 -0.0576
  136MOL   H10319273   0.852   3.414   1.084  0.6073  0.9194  1.3369
  136MOL   H10419274   0.808   3.242   1.118 -0.1576 -0.3855 -0.1669
  136MOL   H10519275   0.585   3.310   1.001 -0.8968  0.9875 -0.9760
  136MOL   H10619276   0.566   3.515   1.023  1.0094  0.5223  2.2978
  136MOL   C10719277   0.747   3.311   0.863  0.4565 -0.5304 -0.7126
  136MOL   C10819278   0.658   3.318   0.741  0.4669 -0.6596 -0.0024
  136MOL   O10919279   0.724   3.264   0.631 -0.2034  0.3172  0.0149
  136MOL   H11019280   0.833   3.372   0.834  0.2221  1.1932  2.0647
  136MOL   H11119281   0.783   3.209   0.882  0.7827 -0.2226  0.3617
  136MOL   H11219282   0.650   3.426   0.731  0.2633 -0.6516  0.2426
  136MOL   H11319283   0.707   3.171   0.630  0.7422  0.1296  0.3115
  136MOL   C11419284   0.513   3.263   0.748 -0.0484  0.0490  0.1435
  136MOL   C11519285   0.408   3.357   0.687 -0.4582  0.0749 -0.7488
  136MOL   O11619286   0.290   3.280   0.701 -0.2645  0.6750 -0.0851
  136MOL   H11719287   0.520   3.166   0.698  1.0064 -1.0756  2.4011
  136MOL   H11819288   0.479   3.244   0.850 -0.3713  0.4827  0.1181
  136MOL   H11919289   0.439   3.379   0.584  0.8675  0.7916 -0.2122
  136MOL   H12019290   0.294   3.201   0.649 -0.3056 -0.4894  1.6381
  136MOL   C12119291   0.398   3.483   0.771 -0.7056  0.7021  0.1233
  136MOL   C12219292   0.307   3.593   0.703 -0.1488  0.4460 -0.4463
  136MOL   O12319293   0.275   3.698   0.797 -1.0190  0.1799 -0.1662
  136MOL   H12419294   0.349   3.448   0.862  1.6672  0.3412  1.3063
  136MOL   H12519295   0.488   3.535   0.805 -0.3638  1.6067 -2.0853
  136MOL   H12619296   0.210   3.549   0.681  0.0527  0.0650 -0.5652
  136MOL   H12719297   0.209   3.747   0.751 -0.6178  0.6274 -0.2704
  136MOL   C12819298   0.372   3.647   0.577  0.9412 -0.4707 -0.0494
  136MOL   C12919299   0.279   3.646   0.452  0.4199 -0.4982 -0.4667
  136MOL   O13019300   0.351   3.712   0.349 -0.2496 -0.5246 -0.0536
  136MOL   H13119301   0.402   3.750   0.594 -3.2170  0.6431  1.2333
  136MOL   H13219302   0.462   3.595   0.547  1.0461 -1.3047  1.6878
  136MOL   H13319303   0.194   3.708   0.478  0.4430 -0.4846 -0.4232
  136MOL   H13419304   0.388   3.790   0.389  0.7451 -0.9511 -0.1277
  136MOL   C13519305   0.225   3.509   0.403  0.8931 -0.3192 -0.1156
  136MOL   C13619306   0.124   3.532   0.284 -0.2761  0.2186 -0.0581
  136MOL   O13719307   0.053   3.414   0.242  1.0081 -0.3919  0.2980
  136MOL   H13819308   0.304   3.437   0.380  2.2577  0.8098  0.9770
  136MOL   H13919309   0.168   3.469   0.486 -0.2556  0.4055 -0.5506
  136MOL   H14019310   0.192   3.556   0.203  0.9621 -2.0900  0.2468
  136MOL   H14119311   0.062   3.357   0.317  0.3120 -0.9211 -0.0195
  136MOL   H14219312   0.057   3.614   0.310  2.2439  2.7109 -1.0963
  137MOL     C119313   3.505   2.715   1.856 -0.1094 -0.1577 -0.0638
  137MOL     C219314   3.411   2.593   1.861  0.3533 -0.5304 -0.0753
  137MOL     O319315   3.354   2.600   1.991 -0.7183 -0.3426 -0.0885
  137MOL     H419316   3.449   2.809   1.853  2.2942  1.3310  0.2162
  137MOL     H519317   3.562   2.712   1.764 -1.1605 -0.4254 -0.7217
  137MOL     H619318   3.465   2.501   1.842 -2.0046 -1.4766 -2.4257
  137MOL     H719319   3.317   2.514   2.006 -0.5904 -0.2894  0.5582
  137MOL     H819320   3.566   2.717   1.946 -0.9078 -3.1842  0.5843
  137MOL     C919321   3.293   2.605   1.763  0.2686  0.3244 -1.0544
  137MOL    C1019322   3.324   2.636   1.618 -1.5707  0.8620  0.4959
  137MOL    O1119323   3.396   2.534   1.554 -0.5470 -0.7141  0.3934
  137MOL    H1219324   3.235   2.513   1.760  0.7939 -0.0283 -0.5331
  137MOL    H1319325   3.231   2.688   1.797  0.9278  0.2025  0.4687
  137MOL    H1419326   3.382   2.728   1.625 -1.9276  1.0302  1.3156
  137MOL    H1519327   3.378   2.535   1.462 -0.7905  0.0781  0.4498
  137MOL    C1619328   3.192   2.657   1.542  0.1913 -0.7417  0.0044
  137MOL    C1719329   3.190   2.730   1.403 -0.1638 -1.3609 -0.1635
  137MOL    O1819330   3.303   2.683   1.336 -0.2000 -0.9862  0.0306
  137MOL    H1919331   3.153   2.555   1.539  0.7185 -0.9855  1.0632
  137MOL    H2019332   3.129   2.718   1.606 -0.0189 -0.2183 -0.6958
  137MOL    H2119333   3.196   2.839   1.408  1.1769 -1.4788  1.2081
  137MOL    H2219334   3.369   2.751   1.331 -0.8464 -0.4467 -1.2961
  137MOL    C2319335   3.075   2.695   1.306  0.5544 -0.0989  0.0806
  137MOL    C2419336   2.937   2.723   1.370 -0.1612 -0.4946 -0.0945
  137MOL    O2519337   2.936   2.867   1.400 -0.3802  0.2213 -0.0999
  137MOL    H2619338   3.079   2.745   1.209 -1.8308  0.0697  0.0384
  137MOL    H2719339   3.078   2.591   1.274  1.5864  0.0646 -0.3922
  137MOL    H2819340   2.919   2.673   1.465 -1.1721 -1.6358 -0.8798
  137MOL    H2919341   2.854   2.883   1.444 -0.4133  1.0802 -0.4623
  137MOL    C3019342   2.808   2.702   1.274  0.5529 -0.2087  0.3483
  137MOL    C3119343   2.771   2.553   1.250  0.0102  0.6064 -0.0462
  137MOL    O3219344   2.719   2.500   1.372  0.3595 -0.0848  0.2737
  137MOL    H3319345   2.728   2.760   1.320  1.2374  2.2128 -1.4084
  137MOL    H3419346   2.827   2.752   1.179 -3.4610 -1.0118 -0.9912
  137MOL    H3519347   2.857   2.489   1.235 -0.8239 -0.2921 -1.1010
  137MOL    H3619348   2.698   2.408   1.360  1.0801 -0.1370 -0.6395
  137MOL    C3719349   2.676   2.533   1.131  0.0315  0.2541 -0.5099
  137MOL    C3819350   2.743   2.533   0.989 -0.7209  0.1214 -0.4412
  137MOL    O3919351   2.645   2.475   0.903 -0.6332  0.1254 -0.3243
  137MOL    H4019352   2.635   2.434   1.150  1.4869 -0.1523  0.6186
  137MOL    H4119353   2.593   2.600   1.153  0.4155  0.0665  1.6308
  137MOL    H4219354   2.828   2.465   0.981 -0.8284 -0.2410  1.2029
  137MOL    H4319355   2.661   2.504   0.815 -0.8287  1.0473 -0.0645
  137MOL    C4419356   2.782   2.660   0.919  0.6209 -0.0193 -0.1056
  137MOL    C4519357   2.845   2.656   0.784 -0.2816  0.1068 -0.5263
  137MOL    O4619358   2.760   2.581   0.695  0.2411 -0.3606  0.9875
  137MOL    H4719359   2.694   2.723   0.912  0.7402  0.4074  1.8174
  137MOL    H4819360   2.847   2.717   0.985 -1.3014  1.1632  0.7712
  137MOL    H4919361   2.937   2.599   0.798 -1.2195 -1.2451  0.2399
  137MOL    H5019362   2.791   2.603   0.608 -1.8677  3.5681  1.1056
  137MOL    C5119363   2.877   2.800   0.731 -0.2056 -0.5751 -0.1374
  137MOL    C5219364   2.974   2.815   0.607  0.1008 -0.1691 -0.1651
  137MOL    O5319365   2.912   2.799   0.484 -0.3781 -0.1119 -0.1624
  137MOL    H5419366   2.784   2.854   0.717 -0.5345 -0.4466  2.2296
  137MOL    H5519367   2.918   2.855   0.816  0.7029  0.8687 -1.4865
  137MOL    H5619368   3.051   2.739   0.622  0.5883  0.1632 -0.9652
  137MOL    H5719369   2.891   2.710   0.460  0.0325 -0.6720  1.5173
  137MOL    C5819370   3.041   2.959   0.601 -0.3937  0.3318  0.1745
  137MOL    C5919371   3.156   2.981   0.497 -0.6112  0.3761 -0.1342
  137MOL    O6019372   3.203   3.120   0.485  0.1317  0.2553 -0.4100
  137MOL    H6119373   2.963   3.033   0.585 -1.2421 -0.5601  0.1452
  137MOL    H6219374   3.071   2.967   0.706  0.3834 -1.9331  0.1361
  137MOL    H6319375   3.117   2.944   0.402  1.4979 -1.0488 -0.4910
  137MOL    H6419376   3.240   3.127   0.399 -3.0632  2.1711 -1.6989
  137MOL    C6519377   3.288   2.893   0.518  0.3972 -0.1938 -0.2782
  137MOL    C6619378   3.363   2.858   0.384  0.7894  0.3946  0.3442
  137MOL    O6719379   3.491   2.903   0.412  0.0147  0.4945  0.5921
  137MOL    H6819380   3.351   2.938   0.595  2.2167  0.0946 -1.8872
  137MOL    H6919381   3.249   2.801   0.560 -2.2376  1.5980  1.3992
  137MOL    H7019382   3.327   2.911   0.296  0.9095 -0.6247 -0.3383
  137MOL    H7119383   3.482   2.993   0.436 -1.6064  0.5236 -0.0708
  137MOL    C7219384   3.359   2.706   0.353 -0.6339  0.3751  0.6683
  137MOL    C7319385   3.230   2.642   0.297  0.0376 -0.4172 -0.1411
  137MOL    O7419386   3.205   2.697   0.169 -0.0581  1.0714 -0.0285
  137MOL    H7519387   3.434   2.668   0.284 -0.6322  1.5005  0.0482
  137MOL    H7619388   3.373   2.641   0.440 -0.9024 -1.4179 -0.5936
  137MOL    H7719389   3.143   2.666   0.359 -0.7726 -2.1568 -0.5786
  137MOL    H7819390   3.123   2.744   0.173 -0.8250 -0.0971 -1.2765
  137MOL    C7919391   3.232   2.484   0.283 -0.0265  0.2570 -0.2602
  137MOL    C8019392   3.239   2.390   0.409 -0.0190 -0.2698  0.2850
  137MOL    O8119393   3.161   2.449   0.512 -0.0444 -0.2743 -0.6139
  137MOL    H8219394   3.142   2.452   0.232 -1.3223 -1.2658  2.8502
  137MOL    H8319395   3.311   2.465   0.209 -1.4941 -0.6666 -1.6117
  137MOL    H8419396   3.340   2.397   0.450 -0.4678 -2.0732  1.7664
  137MOL    H8519397   3.199   2.421   0.594 -2.6852 -0.3092  0.6345
  137MOL    C8619398   3.199   2.245   0.396 -0.2176  0.3046  0.5879
  137MOL    C8719399   3.290   2.162   0.305  0.3239  0.3794  0.4857
  137MOL    O8819400   3.397   2.102   0.378  0.7232 -0.0139 -0.3106
  137MOL    H8919401   3.207   2.203   0.497  0.4394  0.9539  0.8066
  137MOL    H9019402   3.092   2.241   0.372  0.3062  0.7179 -1.9678
  137MOL    H9119403   3.324   2.229   0.225 -2.2138  0.6050 -0.4336
  137MOL    H9219404   3.372   2.015   0.402  1.3213  0.1705  0.9931
  137MOL    C9319405   3.208   2.049   0.237  0.1926 -0.5988 -0.1559
  137MOL    C9419406   3.103   2.103   0.140 -0.1707  0.0526  0.5511
  137MOL    O9519407   3.172   2.173   0.041 -0.0286 -0.2319  0.2279
  137MOL    H9619408   3.279   1.997   0.172 -0.1826 -1.8075  0.3729
  137MOL    H9719409   3.171   1.987   0.319  1.1250 -0.6966  0.1953
  137MOL    H9819410   3.033   2.173   0.185 -0.3703 -0.0813  0.4524
  137MOL    H9919411   3.233   2.116   7.517  1.2994  0.5907  0.9929
  137MOL   C10019412   3.019   1.986   0.079 -0.0436  0.1893 -0.5120
  137MOL   C10119413   2.862   1.986   0.097 -0.4289 -0.0967 -0.3303
  137MOL   O10219414   2.809   2.106   0.052 -1.0239 -0.0064  0.4329
  137MOL   H10319415   3.040   1.978   7.492 -2.8446 -1.9114 -0.9828
  137MOL   H10419416   3.061   1.896   0.125  0.4996 -0.0067 -1.3781
  137MOL   H10519417   2.860   1.982   0.206 -1.5408  1.3669 -0.2868
  137MOL   H10619418   2.716   2.095   0.036 -1.2171  0.1957  1.3467
  137MOL   C10719419   2.781   1.880   0.018  0.7404 -0.9124 -0.7475
  137MOL   C10819420   2.847   1.742   0.009  0.8056 -1.1407 -0.7866
  137MOL   O10919421   2.839   1.682   0.138  0.3056  0.2979  0.6446
  137MOL   H11019422   2.684   1.869   0.067  0.9722  0.1118 -0.0437
  137MOL   H11119423   2.780   1.914   7.434  1.9140  2.2169  0.2009
  137MOL   H11219424   2.954   1.734   7.508  1.2263 -3.0100  1.8770
  137MOL   H11319425   2.896   1.607   0.133 -1.2324 -0.8727  0.0833
  137MOL   C11419426   2.771   1.650   7.438  0.4624 -0.3861 -0.6805
  137MOL   C11519427   2.754   1.681   7.287  0.6447  0.2446  0.0250
  137MOL   O11619428   2.879   1.673   7.215 -0.3695  0.2649 -0.0749
  137MOL   H11719429   2.798   1.546   7.456  0.6366 -0.2309 -0.0413
  137MOL   H11819430   2.675   1.641   7.489 -0.3460 -0.9190 -2.2511
  137MOL   H11919431   2.708   1.778   7.270 -0.4799 -0.1442  0.8197
  137MOL   H12019432   2.852   1.670   7.125 -1.4123  1.7660  0.1751
  137MOL   C12119433   2.663   1.580   7.217 -0.4025  0.5228  0.0108
  137MOL   C12219434   2.611   1.613   7.073  0.1452 -0.3987 -0.2314
  137MOL   O12319435   2.720   1.653   6.986  0.2476 -0.4382 -0.1169
  137MOL   H12419436   2.712   1.483   7.220  1.1280  1.3179  2.8087
  137MOL   H12519437   2.568   1.572   7.271 -0.6218  0.7906 -0.3276
  137MOL   H12619438   2.543   1.698   7.087  0.1501 -0.5015  0.4600
  137MOL   H12719439   2.678   1.670   6.904 -0.0716  0.6711  0.2770
  137MOL   C12819440   2.523   1.502   7.005  0.5716  0.1290 -0.0669
  137MOL   C12919441   2.382   1.535   6.947  0.2343  0.1820  0.0720
  137MOL   O13019442   2.397   1.597   6.819  0.5635 -0.0018 -0.0517
  137MOL   H13119443   2.585   1.451   6.931 -0.0412 -2.9273  1.4476
  137MOL   H13219444   2.512   1.415   7.070  0.3539  1.1461  1.2788
  137MOL   H13319445   2.321   1.595   7.015  0.0229  1.5292 -1.2682
  137MOL   H13419446   2.422   1.528   6.759  1.8553 -0.2945  0.7909
  137MOL   C13519447   2.296   1.403   6.929 -0.7852 -0.3948 -0.1527
  137MOL   C13619448   2.143   1.427   6.928  0.0894 -0.2765  0.3164
  137MOL   O13719449   2.082   1.303   6.914  0.3151  0.5094  0.0952
  137MOL   H13819450   2.323   1.344   6.841  0.5585 -0.6315  0.4052
  137MOL   H13919451   2.314   1.338   7.014  1.5237 -0.1558 -0.4325
  137MOL   H14019452   2.128   1.499   6.848  2.4473  0.9917  0.9693
  137MOL   H14119453   1.995   1.316   6.949  0.6742 -1.2226  1.7017
  137MOL   H14219454   2.113   1.473   7.022  3.0630 -0.7217  1.5468
  138MOL     C119455   7.035   6.395   3.356 -0.4032 -0.3633 -0.0063
  138MOL     C219456   6.965   6.529   3.349 -0.8652  0.0857 -0.4321
  138MOL     O319457   6.872   6.526   3.455 -0.3459  0.8121 -0.2625
  138MOL     H419458   6.966   6.310   3.354 -0.7778 -0.1697  2.9554
  138MOL     H519459   7.091   6.383   3.448  2.8293 -0.9622 -1.9553
  138MOL     H619460   6.906   6.528   3.258  1.0208 -1.9852 -1.6665
  138MOL     H719461   6.814   6.600   3.451 -0.4851  0.6909 -0.4790
  138MOL     H819462   7.114   6.391   3.281 -0.3499  0.5982  0.0009
  138MOL     C919463   7.057   6.657   3.343  0.3243 -0.0261 -0.1423
  138MOL    C1019464   7.134   6.669   3.209  0.3627 -0.2925 -0.2354
  138MOL    O1119465   7.046   6.653   3.098 -0.3094  0.4048 -0.6051
  138MOL    H1219466   6.986   6.740   3.349 -1.2608 -1.4662  1.4257
  138MOL    H1319467   7.118   6.655   3.434  1.0198 -2.0164 -0.6370
  138MOL    H1419468   7.207   6.588   3.200  0.5185 -0.2318  0.4614
  138MOL    H1519469   7.097   6.639   3.020 -1.1424 -1.0629 -0.8978
  138MOL    C1619470   7.204   6.804   3.208  0.1654 -0.2178 -0.0093
  138MOL    C1719471   7.317   6.831   3.308  0.5363  0.6057 -0.0191
  138MOL    O1819472   7.428   6.758   3.282 -0.0790  0.0395 -0.7824
  138MOL    H1919473   7.252   6.805   3.110  1.1714  1.2134  0.4817
  138MOL    H2019474   7.135   6.885   3.184 -0.7643 -0.7146  0.9433
  138MOL    H2119475   7.280   6.790   3.402 -0.9816  0.2587 -0.7621
  138MOL    H2219476   7.476   6.790   3.207 -0.9270  1.3599 -0.7833
  138MOL    C2319477   7.341   6.976   3.337  0.0749 -0.0590 -0.7246
  138MOL    C2419478   7.227   7.038   3.427  0.1610  0.2906 -0.3289
  138MOL    O2519479   7.272   7.036   3.558  0.2824  0.4353  0.1716
  138MOL    H2619480   7.433   6.995   3.392 -0.4228  0.3885 -0.0313
  138MOL    H2719481   7.345   7.022   3.238 -1.7903  0.4211 -0.5970
  138MOL    H2819482   7.146   6.965   3.428 -0.2659  0.7459 -1.4987
  138MOL    H2919483   7.196   7.036   3.614  0.3162  0.9911  0.2196
  138MOL    C3019484   7.183   7.177   3.379  0.1212 -0.4252  0.1797
  138MOL    C3119485   7.096   7.172   3.252 -0.1113 -0.0140  0.3448
  138MOL    O3219486   6.968   7.131   3.295 -0.1973  0.0198  0.3542
  138MOL    H3319487   7.133   7.236   3.456  0.4277 -1.1445  0.9323
  138MOL    H3419488   7.280   7.219   3.351 -0.5708  1.5447  0.6731
  138MOL    H3519489   7.143   7.106   3.180 -1.2207 -0.4863  0.0501
  138MOL    H3619490   6.921   7.112   3.215 -0.5784  0.5997  0.4357
  138MOL    C3719491   7.068   7.311   3.189  0.3564  0.5419 -0.4115
  138MOL    C3819492   7.183   7.387   3.128 -0.0534 -0.1122  0.1239
  138MOL    O3919493   7.270   7.457   3.216  0.5352 -0.0658  0.4825
  138MOL    H4019494   6.988   7.288   3.118  1.7763  1.6861 -2.4485
  138MOL    H4119495   7.027   7.367   3.272 -0.2471 -0.9919  0.3429
  138MOL    H4219496   7.134   7.469   3.075 -1.4331 -0.9381  0.1029
  138MOL    H4319497   7.218   7.509   3.275 -1.2212 -0.9724 -0.2411
  138MOL    C4419498   7.270   7.308   3.027  0.0174  0.1305 -0.5278
  138MOL    C4519499   7.197   7.260   2.898 -0.2601 -0.6199  0.4686
  138MOL    O4619500   7.147   7.377   2.833 -0.2406 -0.4774 -0.6427
  138MOL    H4719501   7.356   7.367   2.996 -0.7214  0.9383 -1.0701
  138MOL    H4819502   7.325   7.233   3.083  1.1273  1.4464  0.1674
  138MOL    H4919503   7.104   7.206   2.918 -0.0593 -0.5198  1.6973
  138MOL    H5019504   7.053   7.376   2.839 -0.2950 -3.4637 -1.4048
  138MOL    C5119505   7.276   7.171   2.797  0.2509 -0.2776  0.3987
  138MOL    C5219506   7.301   7.026   2.852  0.2578 -0.2646 -0.2499
  138MOL    O5319507   7.183   6.960   2.904  0.5221  0.5582 -0.7388
  138MOL    H5419508   7.223   7.162   2.702 -0.1289  1.8150  0.3787
  138MOL    H5519509   7.371   7.216   2.767 -0.2117 -0.3621 -1.2643
  138MOL    H5619510   7.357   7.036   2.944  1.5781 -2.7902 -0.7552
  138MOL    H5719511   7.197   6.867   2.895 -2.8898 -0.3457  2.3040
  138MOL    C5819512   7.362   6.936   2.753  0.2458  0.6727  0.6350
  138MOL    C5919513   7.383   6.794   2.806 -0.4749  0.1079  0.3321
  138MOL    O6019514   7.265   6.721   2.837  0.0970  0.3248  0.3821
  138MOL    H6119515   7.289   6.931   2.673  2.1848 -0.5869 -1.1106
  138MOL    H6219516   7.453   6.991   2.729  1.2620 -1.2354  0.0300
  138MOL    H6319517   7.451   6.805   2.891 -1.8513  0.8039  1.3706
  138MOL    H6419518   7.288   6.631   2.821 -1.8718  0.2275 -2.3548
  138MOL    C6519519   7.456   6.715   2.701 -0.3551 -1.0505  0.4605
  138MOL    C6619520   0.006   6.586   2.753 -0.0391 -0.4744 -0.0149
  138MOL    O6719521   7.451   6.512   2.844 -0.4186 -0.1408  0.1172
  138MOL    H6819522   7.393   6.685   2.617 -0.3236  0.9674 -0.3216
  138MOL    H6919523   0.016   6.777   2.659 -0.8480  0.4222  1.6448
  138MOL    H7019524   0.086   6.622   2.817 -0.9196  0.0800  0.7796
  138MOL    H7119525   7.505   6.442   2.878  0.6431  0.2032 -0.8368
  138MOL    C7219526   0.054   6.491   2.641 -0.3675  0.1341 -0.2400
  138MOL    C7319527   0.166   6.555   2.552 -0.2572  0.0727 -0.1315
  138MOL    O7419528   0.284   6.572   2.625 -0.1210 -0.0699  0.4014
  138MOL    H7519529   0.084   6.394   2.678  2.0592  1.6975  2.0533
  138MOL    H7619530   7.484   6.475   2.581 -0.8060 -1.3220  0.7681
  138MOL    H7719531   0.138   6.654   2.517  1.5000  1.3475  1.9627
  138MOL    H7819532   0.312   6.485   2.649 -1.9638 -0.6488  0.5131
  138MOL    C7919533   0.207   6.471   2.422  0.5137 -0.6581 -0.3747
  138MOL    C8019534   0.104   6.470   2.312 -0.2678 -0.2826  0.1229
  138MOL    O8119535   0.180   6.488   2.190 -0.6441  0.1886  0.7241
  138MOL    H8219536   0.300   6.516   2.386  0.6734 -1.7986 -1.4353
  138MOL    H8319537   0.236   6.366   2.430 -0.0028 -0.8208 -0.6445
  138MOL    H8419538   0.043   6.559   2.332 -0.4936 -0.1573 -1.0998
  138MOL    H8519539   0.248   6.548   2.218 -0.0391 -0.6878  1.1623
  138MOL    C8619540   0.008   6.344   2.318  1.0239  0.2129  0.1711
  138MOL    C8719541   7.412   6.345   2.206  0.6950  0.2334 -0.1621
  138MOL    O8819542   7.477   6.308   2.083  0.5134  0.1298  0.3704
  138MOL    H8919543   0.057   6.247   2.307  1.0005  0.1144  0.9236
  138MOL    H9019544   7.471   6.355   2.410 -0.2587  1.4429 -0.7412
  138MOL    H9119545   7.367   6.444   2.197  0.5923  0.1224 -0.8998
  138MOL    H9219546   0.022   6.373   2.062 -0.4918  0.5961 -1.3191
  138MOL    C9319547   7.304   6.237   2.238 -0.3009  0.2401  0.1811
  138MOL    C9419548   7.183   6.278   2.326  0.4906 -0.0907  0.2378
  138MOL    O9519549   7.121   6.390   2.257  0.2796 -0.4152 -0.2154
  138MOL    H9619550   7.253   6.204   2.148 -0.4814  1.3016 -0.1111
  138MOL    H9719551   7.364   6.151   2.269 -1.8233 -1.3956 -1.2640
  138MOL    H9819552   7.223   6.308   2.423 -0.3116  0.9481  0.2624
  138MOL    H9919553   7.146   6.460   2.314  0.2091 -0.2867 -0.3431
  138MOL   C10019554   7.085   6.161   2.340  0.4352 -0.6956  0.0073
  138MOL   C10119555   6.963   6.194   2.431 -0.2321  0.3259 -0.4050
  138MOL   O10219556   6.877   6.290   2.366  0.0523  0.0474 -0.3512
  138MOL   H10319557   7.062   6.132   2.237  1.5650 -1.3930 -0.0600
  138MOL   H10419558   7.143   6.079   2.383 -2.2720 -0.5434  4.1716
  138MOL   H10519559   7.007   6.238   2.520 -0.6946  1.3158 -0.6504
  138MOL   H10619560   6.935   6.356   2.332  1.1056 -1.0646 -0.7362
  138MOL   C10719561   6.878   6.061   2.459  0.1984 -0.1993  0.3775
  138MOL   C10819562   6.953   5.945   2.521 -0.4631 -0.4998 -0.2376
  138MOL   O10919563   6.999   5.997   2.647 -0.2202 -0.3525  0.8724
  138MOL   H11019564   6.805   6.093   2.534  0.2831  1.5891 -0.2734
  138MOL   H11119565   6.833   6.023   2.368 -1.5589 -0.4038  1.3067
  138MOL   H11219566   7.048   5.927   2.469  0.7844  1.0127  1.4721
  138MOL   H11319567   6.933   5.974   2.710 -1.0854 -2.4356 -0.7397
  138MOL   C11419568   6.875   5.815   2.530  0.1855  0.4977 -0.2339
  138MOL   C11519569   6.891   5.711   2.419 -0.0493 -0.0343 -0.1327
  138MOL   O11619570   7.019   5.649   2.448  0.3435 -0.1657  0.1537
  138MOL   H11719571   6.901   5.769   2.625  1.9726 -1.6771 -1.7420
  138MOL   H11819572   6.773   5.853   2.534  0.1370  0.4861 -1.1445
  138MOL   H11919573   6.905   5.756   2.320  1.6590  1.1251  0.6075
  138MOL   H12019574   7.044   5.597   2.374 -0.0632 -1.0391  0.6283
  138MOL   C12119575   6.778   5.606   2.421  0.0288 -0.0471  0.8777
  138MOL   C12219576   6.747   5.524   2.289 -0.0952 -0.2542 -0.5701
  138MOL   O12319577   6.636   5.437   2.320  0.1329  0.1078  0.7350
  138MOL   H12419578   6.802   5.535   2.500  0.6075  2.0763  2.6690
  138MOL   H12519579   6.681   5.653   2.438  0.7020  1.6140  0.2002
  138MOL   H12619580   6.819   5.453   2.247 -0.6809 -1.5901  0.6382
  138MOL   H12719581   6.623   5.372   2.252  0.4487  1.2308 -0.4229
  138MOL   C12819582   6.701   5.613   2.162 -0.7524 -0.6364  0.0236
  138MOL   C12919583   6.664   5.532   2.035 -0.0500  0.3907 -0.9091
  138MOL   O13019584   6.593   5.612   1.944 -0.4866  0.6826 -0.2716
  138MOL   H13119585   6.617   5.669   2.200  1.1939  1.4523  1.3670
  138MOL   H13219586   6.782   5.682   2.137 -3.7622  3.1263  0.3081
  138MOL   H13319587   6.598   5.447   2.050  2.2220 -1.1199  0.8635
  138MOL   H13419588   6.503   5.586   1.955  0.5692 -2.7452  0.8532
  138MOL   C13519589   6.791   5.459   1.966 -0.3181  0.6123 -0.1205
  138MOL   C13619590   6.780   5.401   1.826  0.3130  0.4136 -0.2141
  138MOL   O13719591   6.897   5.339   1.798  0.0312  0.4841 -0.4435
  138MOL   H13819592   6.878   5.522   1.986 -0.7091  0.0047  4.0270
  138MOL   H13919593   6.803   5.377   2.038  3.2228  0.3846 -0.8739
  138MOL   H14019594   6.778   5.489   1.763  1.5740  1.1056  0.6891
  138MOL   H14119595   6.895   5.299   1.713  1.7805 -0.6064 -0.0139
  138MOL   H14219596   6.692   5.340   1.808 -1.1438  1.8629  1.7946
  139MOL     C119597   4.211   7.216   6.406  0.1423  0.0059  0.7260
  139MOL     C219598   4.245   7.096   6.495 -0.0553  0.4280 -0.2653
  139MOL     O319599   4.184   6.984   6.426 -0.6612 -0.4691 -0.3180
  139MOL     H419600   4.260   7.220   6.309 -1.9179 -2.9551 -0.4945
  139MOL     H519601   4.240   7.306   6.460  2.3727 -0.6346  0.6617
  139MOL     H619602   4.189   7.107   6.588  0.2492  0.8939 -0.1363
  139MOL     H719603   4.203   6.988   6.334  0.5768 -0.3038 -0.0697
  139MOL     H819604   4.106   7.212   6.378  0.2612  0.8931  0.1261
  139MOL     C919605   4.386   7.060   6.516  0.1502 -0.0933  0.4404
  139MOL    C1019606   4.470   7.147   6.610 -0.0559  0.1831  0.7548
  139MOL    O1119607   4.410   7.139   6.744  0.2465  0.2033 -0.2641
  139MOL    H1219608   4.385   6.963   6.564  2.5310  0.4097  1.5837
  139MOL    H1319609   4.448   7.061   6.427  0.0102  0.3827  0.3429
  139MOL    H1419610   4.450   7.252   6.587 -2.0320 -0.7170 -1.8997
  139MOL    H1519611   4.446   7.065   6.790  1.8181  0.2192 -1.4307
  139MOL    C1619612   4.618   7.109   6.619  0.5159 -0.0212 -0.4573
  139MOL    C1719613   4.703   7.189   6.525  0.0639 -0.0839  0.4252
  139MOL    O1819614   4.717   7.327   6.571  0.2526 -0.2045 -0.1192
  139MOL    H1919615   4.652   7.128   6.721  0.3322 -1.2292 -0.1563
  139MOL    H2019616   4.633   7.003   6.596  1.5482  0.1991 -0.8263
  139MOL    H2119617   4.648   7.194   6.431  0.9144 -0.6233 -0.1017
  139MOL    H2219618   4.754   7.317   6.658 -0.5666  0.0066  0.2594
  139MOL    C2319619   4.842   7.134   6.493  0.0930 -0.5657 -0.0048
  139MOL    C2419620   4.863   7.013   6.402  0.3900  0.3076  0.1705
  139MOL    O2519621   4.824   6.902   6.476  0.5129  0.3938  0.1191
  139MOL    H2619622   4.898   7.207   6.434  1.5152 -0.6239  1.2372
  139MOL    H2719623   4.897   7.118   6.586  1.9736 -0.6152 -1.0930
  139MOL    H2819624   4.968   7.000   6.374  0.3251 -1.5432  0.7450
  139MOL    H2919625   4.903   6.869   6.516  0.6125 -1.0902 -1.2322
  139MOL    C3019626   4.786   7.016   6.269 -0.1673  0.3630 -0.4335
  139MOL    C3119627   4.789   7.130   6.168  0.9132 -0.2838 -0.0646
  139MOL    O3219628   4.910   7.111   6.090  0.1577 -0.0831 -0.8841
  139MOL    H3319629   4.799   6.916   6.228 -1.6411 -0.8826  1.9924
  139MOL    H3419630   4.681   7.015   6.299  0.0784  1.9245  0.5347
  139MOL    H3519631   4.795   7.228   6.216 -2.7827  0.6170 -1.2492
  139MOL    H3619632   4.958   7.191   6.103 -0.0305 -0.1287  0.1362
  139MOL    C3719633   4.665   7.121   6.072  0.4137  0.0777 -0.0485
  139MOL    C3819634   4.524   7.150   6.138  0.2531  0.3208  0.0882
  139MOL    O3919635   4.533   7.286   6.174  0.1284 -0.4776  0.6793
  139MOL    H4019636   4.661   7.184   5.984 -2.3660  0.2806  0.1910
  139MOL    H4119637   4.664   7.020   6.031  0.4225  0.4773 -1.0459
  139MOL    H4219638   4.513   7.090   6.228  1.2911 -1.5335 -1.0042
  139MOL    H4319639   4.542   7.306   6.266  1.7701 -1.6082  0.7926
  139MOL    C4419640   4.398   7.147   6.044  0.2592 -0.7040 -0.1263
  139MOL    C4519641   4.351   7.002   6.021  0.0971  0.3081 -0.1354
  139MOL    O4619642   4.283   6.948   6.145 -0.5401  0.4095 -0.5731
  139MOL    H4719643   4.320   7.204   6.093  0.8962  0.0317  0.0463
  139MOL    H4819644   4.425   7.187   5.947 -0.8271 -1.1468 -0.6172
  139MOL    H4919645   4.437   6.940   5.995 -0.1274  0.2631 -0.7754
  139MOL    H5019646   4.255   6.858   6.140  1.1589 -0.1591 -0.1681
  139MOL    C5119647   4.248   6.981   5.908  0.5116 -0.6335  0.2015
  139MOL    C5219648   4.281   7.035   5.767  0.1303  0.5303  0.1430
  139MOL    O5319649   4.395   6.977   5.710 -0.0721 -0.3920 -0.0810
  139MOL    H5419650   4.229   6.875   5.894 -0.4531 -0.4581  0.2002
  139MOL    H5519651   4.151   7.019   5.938 -0.3030  0.0142 -3.0130
  139MOL    H5619652   4.311   7.140   5.761 -1.5186  1.0226  0.2306
  139MOL    H5719653   4.459   7.045   5.696 -1.2608  1.0383  1.2202
  139MOL    C5819654   4.168   7.009   5.666  0.2185  0.3853  0.0986
  139MOL    C5919655   4.073   7.133   5.651 -0.7157  0.4576 -0.0868
  139MOL    O6019656   4.146   7.228   5.568 -0.3313  0.3723 -0.0032
  139MOL    H6119657   4.206   6.981   5.568 -0.7341  2.8486 -1.0182
  139MOL    H6219658   4.109   6.927   5.707  1.5834  0.0295  1.3955
  139MOL    H6319659   4.066   7.176   5.751  0.7406  1.3819 -0.3642
  139MOL    H6419660   4.140   7.315   5.604 -0.9005  0.6381 -0.7372
  139MOL    C6519661   3.928   7.112   5.589  0.8415 -0.3776 -0.1376
  139MOL    C6619662   3.822   7.039   5.679 -0.1984 -0.5281  0.4640
  139MOL    O6719663   3.818   7.099   5.811 -1.1181 -0.1307 -1.0799
  139MOL    H6819664   3.884   7.208   5.560  0.9619 -0.5356 -0.8569
  139MOL    H6919665   3.933   7.058   5.495 -2.0653 -1.2694  0.1708
  139MOL    H7019666   3.859   6.937   5.690 -0.2510 -0.5943  0.0282
  139MOL    H7119667   3.809   7.193   5.804 -0.7075 -0.2540 -3.8205
  139MOL    C7219668   3.677   7.047   5.624 -1.0033 -0.6068 -0.9447
  139MOL    C7319669   3.636   6.954   5.499 -0.1459  0.3197 -0.3068
  139MOL    O7419670   3.631   6.816   5.532 -0.3121 -0.5856 -0.0137
  139MOL    H7519671   3.608   7.037   5.708 -1.4668  1.8983 -0.9974
  139MOL    H7619672   3.657   7.151   5.600  0.5825  0.5557  2.4316
  139MOL    H7719673   3.721   6.967   5.432 -0.7767  3.0188 -0.6358
  139MOL    H7819674   3.652   6.763   5.456  1.9540  0.1563  0.0614
  139MOL    C7919675   3.511   6.988   5.417  0.7158 -0.0346 -0.1295
  139MOL    C8019676   3.502   7.133   5.356 -0.5988  0.2319 -0.3481
  139MOL    O8119677   3.499   7.106   5.220  0.0583 -0.0371 -0.5259
  139MOL    H8219678   3.512   6.916   5.335  0.1517  0.3224 -0.4522
  139MOL    H8319679   3.420   6.965   5.473  1.5047  3.1672  2.6334
  139MOL    H8419680   3.599   7.177   5.381  0.5292 -1.8974 -0.8346
  139MOL    H8519681   3.454   7.025   5.203 -0.0188 -0.2726  0.7543
  139MOL    C8619682   3.379   7.218   5.403 -0.4859 -0.0855  0.5554
  139MOL    C8719683   3.373   7.244   5.557  0.6999  0.1273  0.8523
  139MOL    O8819684   3.474   7.343   5.593  0.5465  0.2022 -0.1151
  139MOL    H8919685   3.394   7.313   5.350  0.4165  0.2927  1.4715
  139MOL    H9019686   3.285   7.172   5.374 -1.0684  1.2620  0.2467
  139MOL    H9119687   3.384   7.163   5.629 -0.3423 -0.9554 -0.1920
  139MOL    H9219688   3.468   7.355   5.687  2.7055 -0.9610  0.2111
  139MOL    C9319689   3.242   7.322   5.594 -0.2739  0.2430  0.3164
  139MOL    C9419690   3.142   7.246   5.676  0.0961 -0.4236 -0.1349
  139MOL    O9519691   3.022   7.325   5.698 -0.2518 -0.5045 -0.1843
  139MOL    H9619692   3.261   7.405   5.663  0.1098 -1.6991  2.6168
  139MOL    H9719693   3.198   7.369   5.506  2.4600  0.8650 -0.7802
  139MOL    H9819694   3.181   7.217   5.773  0.6957 -0.5906 -0.4268
  139MOL    H9919695   3.036   7.418   5.688 -1.1085 -0.3597 -0.0790
  139MOL   C10019696   3.099   7.121   5.601 -0.3239 -0.3849 -0.0597
  139MOL   C10119697   3.017   7.022   5.692 -0.1445 -0.0492 -0.1264
  139MOL   O10219698   2.955   6.927   5.608  0.4780  0.3831  0.4647
  139MOL   H10319699   3.040   7.145   5.512  2.1040  0.6138 -1.4709
  139MOL   H10419700   3.188   7.072   5.560  1.0640  2.3692 -0.4847
  139MOL   H10519701   2.941   7.077   5.748  0.4900 -0.0704  0.7690
  139MOL   H10619702   2.901   6.975   5.547 -1.2678 -3.2746 -1.0274
  139MOL   C10719703   3.099   6.948   5.801 -0.7658 -0.0783  1.1678
  139MOL   C10819704   3.222   6.863   5.757  0.6473  0.1259  0.2968
  139MOL   O10919705   3.324   6.885   5.849 -0.4657  0.2655  0.1508
  139MOL   H11019706   3.135   7.026   5.868  0.8781 -0.1497  0.4074
  139MOL   H11119707   3.044   6.886   5.871 -1.8178  0.5627  0.9107
  139MOL   H11219708   3.252   6.905   5.661  0.8553 -1.8471 -0.5244
  139MOL   H11319709   3.398   6.825   5.845  1.7117  2.8853 -0.0969
  139MOL   C11419710   3.201   6.712   5.733  0.2159  0.2225 -0.1504
  139MOL   C11519711   3.260   6.646   5.604  0.4954 -0.0994 -0.2336
  139MOL   O11619712   3.233   6.504   5.616  0.3751  0.0366 -0.5420
  139MOL   H11719713   3.252   6.660   5.814  2.3371  0.1600 -1.4863
  139MOL   H11819714   3.097   6.678   5.742  0.3292  0.2032  1.3094
  139MOL   H11919715   3.367   6.662   5.596  0.2096  1.2111 -1.7550
  139MOL   H12019716   3.139   6.500   5.619  0.3350  0.4567 -1.1082
  139MOL   C12119717   3.199   6.701   5.473 -0.1841  0.6590 -0.0312
  139MOL   C12219718   3.264   6.662   5.338 -0.2600 -0.1820  0.3256
  139MOL   O12319719   3.249   6.527   5.319 -0.2145 -0.6617  0.1098
  139MOL   H12419720   3.091   6.688   5.471 -0.3055  1.8346 -1.5285
  139MOL   H12519721   3.207   6.809   5.483  2.5763  0.5958 -1.1729
  139MOL   H12619722   3.372   6.674   5.334 -0.0662 -2.1965 -0.5956
  139MOL   H12719723   3.245   6.491   5.406 -0.7730 -1.6292 -0.3032
  139MOL   C12819724   3.203   6.731   5.215  0.0040  0.5425  0.4966
  139MOL   C12919725   3.208   6.883   5.204  0.4388  0.2562  0.6714
  139MOL   O13019726   3.336   6.905   5.148 -0.5773  0.4371 -0.3494
  139MOL   H13119727   3.249   6.692   5.124  0.9491  2.4755  0.1075
  139MOL   H13219728   3.098   6.704   5.222  0.2783 -0.9133 -0.7982
  139MOL   H13319729   3.206   6.934   5.301  0.1840 -1.2150  1.4541
  139MOL   H13419730   3.337   6.873   5.060 -1.9555 -1.0905  0.1646
  139MOL   C13519731   3.099   6.954   5.110  0.0874 -0.3866  0.0103
  139MOL   C13619732   2.971   7.003   5.183  0.0636 -0.0806  0.4007
  139MOL   O13719733   2.892   7.073   5.084 -0.4241  0.6088  0.2629
  139MOL   H13819734   3.147   7.042   5.067 -1.9264  0.6686 -0.1569
  139MOL   H13919735   3.075   6.887   5.027 -2.4612 -1.9202  1.9011
  139MOL   H14019736   2.993   7.058   5.274  1.7373 -0.5567  0.3148
  139MOL   H14119737   2.867   7.158   5.115  1.3074  2.2913 -2.7388
  139MOL   H14219738   2.910   6.921   5.220 -0.0426 -0.0696  0.2467
  140MOL     C119739   6.768   5.840   0.980 -0.7940 -0.8153 -0.0940
  140MOL     C219740   6.923   5.865   0.997  0.6578  1.2844 -0.4741
  140MOL     O319741   6.952   5.960   0.899 -0.0175 -0.1094  0.2880
  140MOL     H419742   6.707   5.929   0.995 -0.0379 -0.2754 -0.1749
  140MOL     H519743   6.738   5.764   1.052 -0.1435 -0.4707  0.5532
  140MOL     H619744   6.968   5.769   0.973  1.7220  0.9828  2.5156
  140MOL     H719745   6.988   5.925   0.819  0.7611 -0.7584  0.9097
  140MOL     H819746   6.739   5.799   0.883 -1.2433  1.2078 -0.8554
  140MOL     C919747   6.964   5.928   1.134  0.0935  0.2878  0.4087
  140MOL    C1019748   7.071   5.851   1.210 -0.6812  0.2942 -0.1180
  140MOL    O1119749   7.103   5.922   1.327  0.2127 -0.4135 -0.0815
  140MOL    H1219750   6.996   6.031   1.119 -0.0085  0.2238 -0.2411
  140MOL    H1319751   6.875   5.940   1.196 -0.0952  2.5189 -0.2768
  140MOL    H1419752   7.162   5.850   1.151 -0.6233 -0.6187 -0.0352
  140MOL    H1519753   7.157   5.990   1.289 -0.9686 -1.2784 -3.4374
  140MOL    C1619754   7.038   5.702   1.244 -0.0228 -0.2977  0.0802
  140MOL    C1719755   6.908   5.676   1.316  0.5568  0.4434 -0.4544
  140MOL    O1819756   6.837   5.570   1.251 -0.3721 -0.6321 -0.3901
  140MOL    H1919757   7.034   5.649   1.149 -1.0565  2.5063 -1.5057
  140MOL    H2019758   7.118   5.652   1.298  0.3079  0.4101  0.2606
  140MOL    H2119759   6.847   5.766   1.321  0.9601  0.7537 -1.0943
  140MOL    H2219760   6.749   5.569   1.286  0.4677  0.7430  1.8764
  140MOL    C2319761   6.916   5.639   1.473 -0.3179  0.5466 -0.2756
  140MOL    C2419762   6.996   5.741   1.553 -0.2391  0.1885 -1.2771
  140MOL    O2519763   6.936   5.867   1.544 -0.2348  0.1836  0.2967
  140MOL    H2619764   6.814   5.623   1.507  0.6360 -0.5324  2.1799
  140MOL    H2719765   6.965   5.543   1.489  0.0794  0.6920 -0.5980
  140MOL    H2819766   7.097   5.757   1.516 -0.0823 -1.2440 -1.4982
  140MOL    H2919767   6.983   5.891   1.465 -1.5477 -1.6357 -1.0962
  140MOL    C3019768   6.995   5.708   1.703  0.3134 -0.2125 -0.5152
  140MOL    C3119769   7.093   5.779   1.800  0.3047 -0.4095 -0.0708
  140MOL    O3219770   7.029   5.903   1.829 -0.3592 -0.3724  0.7488
  140MOL    H3319771   6.894   5.711   1.742  0.1578 -0.4351 -0.8955
  140MOL    H3419772   7.017   5.602   1.703  0.0696 -0.2637  1.0097
  140MOL    H3519773   7.189   5.793   1.751  0.1277 -0.7700 -0.5152
  140MOL    H3619774   6.982   5.935   1.753 -0.4289  0.3761  1.1130
  140MOL    C3719775   7.109   5.698   1.932  0.2941 -0.1837 -0.3555
  140MOL    C3819776   7.211   5.764   2.030  0.1751 -0.2879  0.1297
  140MOL    O3919777   7.167   5.893   2.065  0.0413  0.0033 -0.0400
  140MOL    H4019778   7.013   5.678   1.979 -0.4587 -0.7199 -2.1155
  140MOL    H4119779   7.149   5.602   1.899 -1.7600 -1.8754  1.9407
  140MOL    H4219780   7.309   5.782   1.985  1.0632 -0.5307  1.9310
  140MOL    H4319781   7.149   5.934   1.982  0.5089 -0.0731 -0.1829
  140MOL    C4419782   7.220   5.672   2.156  0.2811 -0.5924  0.1500
  140MOL    C4519783   7.308   5.719   2.276  0.0059 -0.4012 -0.4796
  140MOL    O4619784   7.317   5.611   2.369  0.0126 -0.2324 -0.4769
  140MOL    H4719785   7.121   5.640   2.190  0.2710 -0.0713  0.6009
  140MOL    H4819786   7.260   5.575   2.124 -0.6498 -0.2154 -2.2803
  140MOL    H4919787   7.263   5.808   2.320  3.0759  0.1228  1.7012
  140MOL    H5019788   7.256   5.618   2.441  0.3433  0.3532 -0.2530
  140MOL    C5119789   7.454   5.736   2.226  0.1477 -0.0222 -0.6267
  140MOL    C5219790   0.042   5.779   2.326  0.4314  0.1706 -0.1279
  140MOL    O5319791   0.163   5.777   2.258  0.6875  0.1371 -0.1111
  140MOL    H5419792   7.495   5.645   2.182  1.8165  0.3650  0.0845
  140MOL    H5519793   7.460   5.795   2.135 -0.2589 -1.1375 -1.3938
  140MOL    H5619794   0.065   5.708   2.405  0.1745 -0.5016 -0.6432
  140MOL    H5719795   0.161   5.846   2.193 -0.2403 -0.1669 -0.4152
  140MOL    C5819796   0.024   5.919   2.377  0.0424 -0.7410 -0.0516
  140MOL    C5919797   0.075   5.949   2.516  0.6527 -0.0674 -0.2031
  140MOL    O6019798   0.070   6.099   2.545 -0.5559  0.5849  0.4517
  140MOL    H6119799   0.058   5.994   2.305 -0.8904 -1.4406 -1.2345
  140MOL    H6219800   7.440   5.948   2.394  0.5366 -0.1512  2.0458
  140MOL    H6319801   0.174   5.904   2.528  0.5235 -0.2940  0.0174
  140MOL    H6419802   0.134   6.110   2.614 -0.9101  3.5563  0.3326
  140MOL    C6519803   7.494   5.906   2.631 -0.4261  0.4189  0.2453
  140MOL    C6619804   7.496   5.756   2.668 -0.4202 -0.0860 -0.3807
  140MOL    O6719805   0.109   5.733   2.707 -0.2450  0.1113 -0.0105
  140MOL    H6819806   7.518   5.952   2.727 -1.0801 -0.8476  1.0262
  140MOL    H6919807   7.396   5.940   2.597  0.6050  0.7924 -2.4234
  140MOL    H7019808   7.477   5.691   2.583  0.6194 -1.9811  0.7923
  140MOL    H7119809   0.123   5.657   2.762  0.0458 -2.7768 -3.8504
  140MOL    C7219810   7.395   5.728   2.778 -0.2331  0.3202 -0.4536
  140MOL    C7319811   7.246   5.764   2.746  0.0232  0.1037  0.0845
  140MOL    O7419812   7.223   5.725   2.614  0.3498 -0.0294 -0.3115
  140MOL    H7519813   7.397   5.621   2.801  2.3892  0.5737  0.7059
  140MOL    H7619814   7.416   5.774   2.874 -1.4123 -0.7366  0.3402
  140MOL    H7719815   7.235   5.872   2.761  1.6468  0.2439  0.3456
  140MOL    H7819816   7.144   5.755   2.571 -0.4052 -1.3405  0.1095
  140MOL    C7919817   7.145   5.679   2.834  0.9772 -0.1508  0.0932
  140MOL    C8019818   7.130   5.729   2.977 -0.4034  0.3792  0.1579
  140MOL    O8119819   7.112   5.869   2.972  0.0539  0.3748 -0.6176
  140MOL    H8219820   7.045   5.676   2.789  0.7528 -1.2151  0.6439
  140MOL    H8319821   7.184   5.579   2.851 -0.0680 -0.2180  2.2891
  140MOL    H8419822   7.215   5.702   3.038  0.5259 -3.4275 -2.6037
  140MOL    H8519823   7.190   5.914   3.003  0.3118  0.4216 -1.3289
  140MOL    C8619824   7.014   5.677   3.060  0.8686 -0.0042  0.1767
  140MOL    C8719825   6.997   5.537   3.110  0.0872 -0.3939  0.5070
  140MOL    O8819826   7.041   5.536   3.241 -0.8949  0.2541  0.4014
  140MOL    H8919827   7.000   5.750   3.139  0.4744  0.0287  0.0797
  140MOL    H9019828   6.935   5.691   2.986  2.0936  2.0999 -0.7711
  140MOL    H9119829   7.052   5.469   3.045 -0.7118  0.5605 -1.2280
  140MOL    H9219830   7.047   5.445   3.264  1.3761  0.6582  1.5804
  140MOL    C9319831   6.852   5.488   3.110  0.0014 -0.3112 -0.4668
  140MOL    C9419832   6.794   5.443   2.976 -0.9615  0.4533 -0.2150
  140MOL    O9519833   6.820   5.296   2.973 -0.0185  0.1606 -0.1557
  140MOL    H9619834   6.850   5.401   3.177 -0.6614 -0.2367 -0.3914
  140MOL    H9719835   6.801   5.567   3.164  0.4511 -0.9282  0.8918
  140MOL    H9819836   6.853   5.472   2.889  0.7217  1.5324  1.2650
  140MOL    H9919837   6.902   5.275   2.931 -0.1596  0.1713 -0.4381
  140MOL   C10019838   6.650   5.461   2.943  0.6323  0.0405  0.0664
  140MOL   C10119839   6.605   5.582   2.853  0.0270 -0.4008 -0.3381
  140MOL   O10219840   6.459   5.579   2.836 -0.3514 -0.1417 -0.0160
  140MOL   H10319841   6.618   5.375   2.884  2.7613 -0.3009 -0.6026
  140MOL   H10419842   6.590   5.450   3.033 -0.8572  1.2489 -0.7422
  140MOL   H10519843   6.654   5.583   2.756 -1.1358 -1.2964 -0.9590
  140MOL   H10619844   6.439   5.660   2.791 -1.3007  0.1438  0.8741
  140MOL   C10719845   6.620   5.718   2.915  0.1132  0.6136 -0.2597
  140MOL   C10819846   6.603   5.830   2.808 -0.0647  0.1543 -0.8957
  140MOL   O10919847   6.474   5.829   2.756  0.1296  0.1104 -0.4247
  140MOL   H11019848   6.555   5.727   3.003 -0.0966 -1.1952 -0.2030
  140MOL   H11119849   6.721   5.732   2.952 -0.5311  0.9627  1.4436
  140MOL   H11219850   6.673   5.812   2.726  0.8904 -0.2825  0.0103
  140MOL   H11319851   6.420   5.835   2.834  1.6642 -1.7693  0.8390
  140MOL   C11419852   6.626   5.969   2.868 -0.5062  0.2107  0.1574
  140MOL   C11519853   6.755   5.988   2.953  0.0301  0.5683 -0.4469
  140MOL   O11619854   6.861   5.952   2.865 -0.8254  0.2208 -0.3853
  140MOL   H11719855   6.614   6.044   2.790  0.6367  3.8044  3.3136
  140MOL   H11819856   6.537   5.986   2.929 -0.7217  1.5864 -0.5196
  140MOL   H11919857   6.745   5.937   3.049  1.2270 -1.3680 -1.3197
  140MOL   H12019858   6.942   5.945   2.913 -0.7948  1.2932 -0.2649
  140MOL   C12119859   6.776   6.133   2.992  0.4546  0.2176  0.0322
  140MOL   C12219860   6.696   6.179   3.113 -0.1184 -0.4406  0.0038
  140MOL   O12319861   6.760   6.132   3.236  0.5350 -0.6705  0.6905
  140MOL   H12419862   6.884   6.148   2.993  0.7076 -1.4541  1.4561
  140MOL   H12519863   6.747   6.194   2.907  1.1724  0.3232 -0.1409
  140MOL   H12619864   6.602   6.125   3.110 -0.9204  1.0176 -1.9472
  140MOL   H12719865   6.710   6.155   3.312  0.2104 -0.2704  0.3549
  140MOL   C12819866   6.684   6.329   3.107 -0.3297  0.5413  0.2618
  140MOL   C12919867   6.564   6.387   3.182  0.2275  0.8800 -0.6375
  140MOL   O13019868   6.588   6.526   3.195  0.3865 -0.2016 -0.0457
  140MOL   H13119869   6.769   6.376   3.156 -1.3678  0.0818  2.5238
  140MOL   H13219870   6.678   6.369   3.005  1.2041 -1.4777 -0.6631
  140MOL   H13319871   6.576   6.343   3.280  1.9204  1.1370 -0.7212
  140MOL   H13419872   6.638   6.565   3.125 -0.8405 -1.8066 -1.8620
  140MOL   C13519873   6.426   6.364   3.117 -0.4060  0.4978  0.7613
  140MOL   C13619874   6.308   6.423   3.200  0.8269 -0.5827 -0.7816
  140MOL   O13719875   6.194   6.416   3.123 -0.5164  0.0067 -0.5043
  140MOL   H13819876   6.418   6.414   3.020 -0.2083  0.6909  0.8453
  140MOL   H13919877   6.407   6.258   3.101  1.7567  0.2533 -0.3206
  140MOL   H14019878   6.323   6.531   3.211 -3.0791 -0.1285  1.0026
  140MOL   H14119879   6.137   6.489   3.143  0.2660  0.7100 -0.7834
  140MOL   H14219880   6.284   6.380   3.297 -1.9628  0.5196 -0.9294
  141MOL     C119881   0.593   6.756   5.025  0.7923 -0.4162 -0.3083
  141MOL     C219882   0.742   6.734   5.057 -0.0078 -0.2889  0.6258
  141MOL     O319883   0.749   6.603   5.103 -0.1928  0.7258  0.0389
  141MOL     H419884   0.563   6.854   4.988  2.2053  0.1117 -0.0816
  141MOL     H519885   0.529   6.732   5.111 -0.0995  1.0848 -0.5329
  141MOL     H619886   0.770   6.807   5.133 -0.8541  1.2237 -0.4778
  141MOL     H719887   0.750   6.591   5.196 -0.9484  1.9912  0.2257
  141MOL     H819888   0.561   6.694   4.942  1.6619 -0.9391 -0.2523
  141MOL     C919889   0.828   6.732   4.931  0.1886  0.0720  0.1313
  141MOL    C1019890   0.816   6.865   4.855  0.1810  0.1931  0.4530
  141MOL    O1119891   0.893   6.976   4.917 -0.2035  0.2400  0.0400
  141MOL    H1219892   0.931   6.711   4.958  0.7124  0.7126 -1.3331
  141MOL    H1319893   0.795   6.652   4.865  1.5335 -1.2509  1.0564
  141MOL    H1419894   0.714   6.894   4.830  0.6748  1.5349 -0.0621
  141MOL    H1519895   0.982   6.945   4.925  0.4544  1.3116 -2.6576
  141MOL    C1619896   0.878   6.855   4.710  0.1487  0.1434 -0.3940
  141MOL    C1719897   0.865   6.977   4.618 -0.4117 -0.1188  1.1638
  141MOL    O1819898   0.943   6.950   4.509  0.6118 -0.1170 -0.5269
  141MOL    H1919899   0.984   6.837   4.725 -0.0527 -2.0130 -1.3758
  141MOL    H2019900   0.849   6.764   4.657  2.6192 -0.8208 -0.1802
  141MOL    H2119901   0.895   7.072   4.663  0.4381 -0.6842  1.7938
  141MOL    H2219902   0.937   6.859   4.487 -0.8513  0.0578 -0.8863
  141MOL    C2319903   0.726   7.007   4.560  0.5693  0.1034  0.1809
  141MOL    C2419904   0.713   7.144   4.498 -0.4318  0.4657 -0.0077
  141MOL    O2519905   0.800   7.151   4.384 -0.1687  0.0264 -0.0263
  141MOL    H2619906   0.686   6.935   4.488  1.3584 -2.2070  1.9799
  141MOL    H2719907   0.663   7.005   4.649  0.7902  1.8091  0.3821
  141MOL    H2819908   0.761   7.213   4.567 -2.2233  1.0644  0.6832
  141MOL    H2919909   0.879   7.105   4.409 -0.8925 -0.4320  1.4592
  141MOL    C3019910   0.568   7.193   4.473 -0.1164 -0.1380  0.0641
  141MOL    C3119911   0.468   7.200   4.595 -0.5586 -0.2089 -0.3559
  141MOL    O3219912   0.538   7.286   4.680  0.1153  0.1301 -0.0578
  141MOL    H3319913   0.576   7.299   4.450 -0.7804  0.0646  0.7541
  141MOL    H3419914   0.528   7.140   4.386 -2.0157 -0.1371  0.9082
  141MOL    H3519915   0.445   7.105   4.645  0.9134 -0.5124 -0.2027
  141MOL    H3619916   0.480   7.330   4.740 -1.7220  0.5004 -2.0537
  141MOL    C3719917   0.334   7.266   4.561 -0.2670 -0.7077 -0.4125
  141MOL    C3819918   0.233   7.178   4.490 -0.1140  0.4456  0.2248
  141MOL    O3919919   0.157   7.090   4.572 -0.2664 -0.0593 -0.0962
  141MOL    H4019920   0.280   7.305   4.648  0.0759  0.7061 -0.8304
  141MOL    H4119921   0.363   7.353   4.504  3.1142 -1.3726  0.1883
  141MOL    H4219922   0.293   7.115   4.424 -1.2706 -0.2133 -0.2079
  141MOL    H4319923   0.221   7.063   4.637  0.1638 -0.0993 -0.5392
  141MOL    C4419924   0.144   7.255   4.396  0.5460  0.0647  0.6155
  141MOL    C4519925   0.083   7.387   4.457 -0.5395 -0.0120  0.3536
  141MOL    O4619926   0.035   7.449   4.342 -0.4021  0.0101  0.3807
  141MOL    H4719927   0.208   7.285   4.313 -0.1286 -3.7045 -1.3810
  141MOL    H4819928   0.055   7.200   4.365  0.2293  1.1755 -0.5378
  141MOL    H4919929   0.145   7.462   4.506  1.7004  1.0688 -3.9075
  141MOL    H5019930   0.113   7.497   4.319 -0.7187 -0.5400 -1.9952
  141MOL    C5119931   7.475   7.363   4.541 -1.0171  0.5175  0.1985
  141MOL    C5219932   7.387   7.494   4.578 -0.0804 -0.3047  0.5110
  141MOL    O5319933   7.260   7.450   4.608 -0.0654  0.0905 -0.3998
  141MOL    H5419934   7.414   7.277   4.512 -0.2480  0.2861 -0.7302
  141MOL    H5519935   7.519   7.331   4.636 -2.9482 -2.1235  0.2441
  141MOL    H5619936   7.382   0.037   4.489 -2.4710 -2.4077 -0.8820
  141MOL    H5719937   7.220   7.443   4.522  2.7438 -1.3387 -1.6619
  141MOL    C5819938   7.434   0.040   4.701 -0.0799  0.3243 -0.7025
  141MOL    C5919939   7.360   0.170   4.741  0.4364  0.1711  0.3185
  141MOL    O6019940   7.406   0.203   4.872 -0.3446 -0.5688 -0.3596
  141MOL    H6119941   7.408   7.489   4.780  3.1645 -0.7140 -0.4791
  141MOL    H6219942   0.020   0.065   4.710  0.0793 -0.2907 -0.8473
  141MOL    H6319943   7.252   0.163   4.744  0.4460 -1.2393 -1.6536
  141MOL    H6419944   7.406   0.117   4.913  0.6816 -0.8458 -0.9209
  141MOL    C6519945   7.375   0.280   4.635 -0.4445  0.0960  0.2662
  141MOL    C6619946   7.334   0.421   4.677  0.1775 -0.4041 -0.4086
  141MOL    O6719947   7.412   0.470   4.787 -0.6349  0.3140  0.2403
  141MOL    H6819948   7.481   0.284   4.611 -0.4276  0.0550  0.3322
  141MOL    H6919949   7.314   0.254   4.549 -0.9974  2.0375  0.0444
  141MOL    H7019950   7.228   0.428   4.699  0.0327 -0.1834 -1.1565
  141MOL    H7119951   7.417   0.390   4.836  0.1802 -0.3797 -0.9496
  141MOL    C7219952   7.340   0.528   4.568  0.4153  0.2645  0.5533
  141MOL    C7319953   7.259   0.485   4.442  0.4349  0.3974  0.1598
  141MOL    O7419954   7.121   0.518   4.465 -0.2328  0.2629 -0.1320
  141MOL    H7519955   7.327   0.623   4.620 -0.3654  1.1268 -1.1899
  141MOL    H7619956   7.440   0.529   4.525  0.8470  0.8595  1.5530
  141MOL    H7719957   7.280   0.383   4.412 -3.3291 -1.1830  2.5168
  141MOL    H7819958   7.065   0.471   4.405 -1.3242  1.3745 -0.0011
  141MOL    C7919959   7.293   0.578   4.320 -0.0198  0.7777  0.0836
  141MOL    C8019960   7.435   0.573   4.254 -0.2189  0.2671  0.1889
  141MOL    O8119961   7.467   0.441   4.217  0.0184  0.0678  0.2775
  141MOL    H8219962   7.234   0.549   4.233  1.9218  0.2490 -1.0827
  141MOL    H8319963   7.272   0.682   4.347  0.8241  1.1128 -0.5072
  141MOL    H8419964   7.515   0.608   4.318 -0.5038 -0.3147  0.8679
  141MOL    H8519965   0.038   0.449   4.192  0.2344 -2.9824 -0.0918
  141MOL    C8619966   7.446   0.665   4.126  0.0300 -0.3479 -0.0190
  141MOL    C8719967   0.044   0.772   4.123  0.0739  0.4731  0.1336
  141MOL    O8819968   0.037   0.832   3.988 -0.0248 -0.1145  0.1402
  141MOL    H8919969   7.455   0.604   4.037  3.5443 -1.8751  1.2972
  141MOL    H9019970   7.354   0.723   4.117 -0.3700 -1.0453 -0.4293
  141MOL    H9119971   0.136   0.715   4.122  0.0618  0.4447 -1.3759
  141MOL    H9219972   0.068   0.921   3.979 -0.4506 -0.1530 -1.9855
  141MOL    C9319973   0.063   0.871   4.236 -0.0419  0.5249  0.3340
  141MOL    C9419974   7.456   0.940   4.295 -0.1279 -0.1536 -0.4446
  141MOL    O9519975   7.499   1.015   4.408 -0.0583  0.3427  0.3566
  141MOL    H9619976   0.106   0.817   4.321  2.9316  0.6047 -1.0427
  141MOL    H9719977   0.141   0.945   4.221  3.3066 -2.2924  2.7665
  141MOL    H9819978   7.382   0.863   4.315 -0.2157  0.2639  0.8654
  141MOL    H9919979   0.042   1.081   4.381  1.9406 -1.0884  1.4276
  141MOL   C10019980   7.379   1.027   4.190  0.3178 -0.3582 -0.0548
  141MOL   C10119981   7.250   1.089   4.232  0.3225  0.4386  0.3846
  141MOL   O10219982   7.225   1.193   4.136  0.2041 -0.1273 -0.4579
  141MOL   H10319983   7.443   1.103   4.146 -2.7914  2.5857  0.2982
  141MOL   H10419984   7.366   0.964   4.102 -0.3945 -0.1367 -0.1168
  141MOL   H10519985   7.258   1.138   4.329 -1.7707  0.7698  0.4017
  141MOL   H10619986   7.157   1.246   4.174  1.7509  0.4146  1.6530
  141MOL   C10719987   7.141   0.992   4.226  0.5623  0.1153  0.3151
  141MOL   C10819988   7.027   1.002   4.333  0.2765 -0.9981  0.3575
  141MOL   O10919989   6.911   1.072   4.281  0.2501  0.2216  0.1624
  141MOL   H11019990   7.083   0.982   4.135 -1.3534 -0.2351  1.5410
  141MOL   H11119991   7.168   0.886   4.230 -1.3016 -0.3448  1.5780
  141MOL   H11219992   7.069   1.047   4.423 -1.6878  0.5643  0.5330
  141MOL   H11319993   6.893   1.041   4.194 -0.2880  3.1437 -0.8301
  141MOL   C11419994   6.980   0.867   4.378  0.8664  0.0334 -0.2174
  141MOL   C11519995   6.866   0.859   4.480  0.5788  0.6859 -1.1077
  141MOL   O11619996   6.742   0.903   4.415 -1.0643  0.3138 -0.0502
  141MOL   H11719997   6.946   0.803   4.296 -0.8212  0.6676 -0.0347
  141MOL   H11819998   7.064   0.809   4.414 -1.2003 -2.2730  1.0585
  141MOL   H11919999   6.886   0.933   4.558  1.0073  0.5501 -1.0864
  141MOL   H12020000   6.767   0.969   4.352 -0.7398  0.8179  0.5930
  141MOL   C12120001   6.835   0.724   4.543 -0.6305 -0.1516  0.0782
  141MOL   C12220002   6.911   0.699   4.677 -0.0584 -0.4215 -0.7086
  141MOL   O12320003   7.056   0.709   4.666 -0.6860 -0.6118 -0.1525
  141MOL   H12420004   6.729   0.733   4.566 -1.0058 -0.3054 -1.5405
  141MOL   H12520005   6.862   0.639   4.479  1.2151  0.7845 -0.4407
  141MOL   H12620006   6.897   0.595   4.706  1.3326 -1.0095 -2.1298
  141MOL   H12720007   7.087   0.645   4.604 -0.0832  0.6783 -1.2043
  141MOL   C12820008   6.871   0.788   4.800  0.1563 -0.0167  0.2994
  141MOL   C12920009   6.732   0.781   4.850  0.4071 -0.0864 -0.4546
  141MOL   O13020010   6.719   0.665   4.921 -0.1540 -0.1096  0.1463
  141MOL   H13120011   6.946   0.779   4.879 -0.3892 -0.2278  0.7917
  141MOL   H13220012   6.878   0.890   4.760  0.4826 -0.4180 -0.7063
  141MOL   H13320013   6.658   0.787   4.770 -0.0499 -2.4170 -0.2401
  141MOL   H13420014   6.628   0.658   4.946 -0.2418 -0.2428 -0.2105
  141MOL   C13520015   6.700   0.904   4.945 -0.2551  0.1451  0.2098
  141MOL   C13620016   6.644   1.024   4.885  0.1398 -0.4606 -0.4968
  141MOL   O13720017   6.662   1.129   4.979  0.3161 -0.2977 -0.5784
  141MOL   H13820018   6.626   0.875   5.020  0.5776  2.1385  1.8228
  141MOL   H13920019   6.796   0.925   4.992  0.7735 -0.9987 -1.3301
  141MOL   H14020020   6.542   1.003   4.852  0.7372 -0.5861 -2.3418
  141MOL   H14120021   6.604   1.196   4.946 -0.3608 -1.0528 -0.9360
  141MOL   H14220022   6.700   1.053   4.795  0.4086 -2.8694 -1.1263
  142MOL     C120023   6.584   3.322   2.304 -0.0514  0.1881 -0.0424
  142MOL     C220024   6.529   3.455   2.262  0.3954 -0.1949 -0.1018
  142MOL     O320025   6.618   3.514   2.169 -0.6383  0.7754  0.2444
  142MOL     H420026   6.692   3.339   2.313 -0.2850  2.7118 -1.7087
  142MOL     H520027   6.569   3.256   2.219  2.8000 -2.1808  1.1814
  142MOL     H620028   6.537   3.519   2.350 -0.0895  1.0684 -0.9562
  142MOL     H720029   6.607   3.479   2.083  0.6233 -1.7003  1.0476
  142MOL     H820030   6.545   3.278   2.396 -1.6282  0.8526 -0.3974
  142MOL     C920031   6.390   3.467   2.203  0.4114  0.1148  0.6146
  142MOL    C1020032   6.338   3.612   2.205 -0.4099  0.5332 -0.7479
  142MOL    O1120033   6.238   3.635   2.114  0.2370  0.3186  0.5829
  142MOL    H1220034   6.396   3.429   2.101 -1.3462  0.1865  0.4740
  142MOL    H1320035   6.315   3.407   2.255  0.0682 -0.0513 -0.0760
  142MOL    H1420036   6.425   3.673   2.181  0.4805  0.2919  1.6814
  142MOL    H1520037   6.163   3.586   2.143  1.3818 -1.7306  0.1825
  142MOL    C1620038   6.283   3.653   2.344  0.1241  0.1931  0.3397
  142MOL    C1720039   6.215   3.788   2.369 -0.2888  0.4817 -0.0346
  142MOL    O1820040   6.184   3.793   2.514 -0.2721  0.1924 -0.0880
  142MOL    H1920041   6.208   3.576   2.362  0.0303  0.6474  2.0151
  142MOL    H2020042   6.366   3.634   2.413  3.1180  2.4807 -2.4715
  142MOL    H2120043   6.121   3.790   2.313  0.2924 -0.1490 -1.0503
  142MOL    H2220044   6.266   3.799   2.561  0.5041  0.1714 -1.4096
  142MOL    C2320045   6.287   3.924   2.330  0.1472 -0.6029  0.0686
  142MOL    C2420046   6.307   3.957   2.181  0.3873 -0.3265  0.4970
  142MOL    O2520047   6.173   3.981   2.132 -0.2943 -0.4763  0.1079
  142MOL    H2620048   6.238   4.009   2.378 -0.7816 -0.8042 -0.4983
  142MOL    H2720049   6.374   3.925   2.396  0.9110 -1.3280 -0.9265
  142MOL    H2820050   6.345   3.869   2.129  1.9703  0.8922 -0.4393
  142MOL    H2920051   6.154   3.929   2.055 -3.4441 -1.8092  1.6852
  142MOL    C3020052   6.384   4.083   2.150 -0.0985  0.0071 -0.0597
  142MOL    C3120053   6.532   4.095   2.198 -0.5552 -0.6938 -0.0636
  142MOL    O3220054   6.520   4.118   2.337  0.2769  0.1443 -0.0355
  142MOL    H3320055   6.387   4.081   2.041  1.3301  0.7673 -0.0447
  142MOL    H3420056   6.319   4.165   2.181 -2.5712 -2.0254  0.3112
  142MOL    H3520057   6.573   4.184   2.150  1.0613 -1.1957  0.3438
  142MOL    H3620058   6.498   4.031   2.370  0.4191 -0.0800 -0.5350
  142MOL    C3720059   6.614   3.970   2.159 -0.6868 -0.0575 -0.5512
  142MOL    C3820060   6.627   3.941   2.003  0.0014 -0.2182  0.1073
  142MOL    O3920061   6.712   4.044   1.963 -0.6989 -0.1194 -0.0117
  142MOL    H4020062   6.715   3.974   2.201 -1.9807  1.9333  2.4871
  142MOL    H4120063   6.576   3.884   2.214  0.8601  0.5175  1.4662
  142MOL    H4220064   6.539   3.941   1.939  0.7584 -1.0390 -0.9545
  142MOL    H4320065   6.663   4.120   1.934 -1.8983 -0.8004  0.2040
  142MOL    C4420066   6.691   3.798   1.996 -0.6403  0.5638  0.3795
  142MOL    C4520067   6.761   3.751   1.874  0.3163  0.6664  0.2487
  142MOL    O4620068   6.797   3.618   1.902 -0.4349  0.8159 -0.4887
  142MOL    H4720069   6.751   3.789   2.086  1.0974  1.3799 -0.6837
  142MOL    H4820070   6.601   3.736   2.004 -0.3861  0.3071  1.2921
  142MOL    H4920071   6.852   3.810   1.867  1.3767 -1.0260 -0.6945
  142MOL    H5020072   6.740   3.553   1.864  0.6870 -1.4767  1.5023
  142MOL    C5120073   6.685   3.765   1.748  0.5568 -0.0480  0.8570
  142MOL    C5220074   6.763   3.721   1.621  0.2524 -0.0211  0.9132
  142MOL    O5320075   6.679   3.709   1.503 -0.9760  0.5021 -0.1419
  142MOL    H5420076   6.594   3.706   1.760 -0.2999  0.8453 -0.9707
  142MOL    H5520077   6.662   3.870   1.732 -1.2017 -0.8281 -2.1402
  142MOL    H5620078   6.795   3.621   1.648 -1.8457 -1.0501 -0.2930
  142MOL    H5720079   6.617   3.780   1.513 -0.3629  1.0919 -0.5329
  142MOL    C5820080   6.876   3.817   1.588 -0.4902 -0.4406  0.4341
  142MOL    C5920081   6.992   3.738   1.519 -0.3152  0.3865 -0.0987
  142MOL    O6020082   7.068   3.842   1.457  0.2386 -0.4726  0.4429
  142MOL    H6120083   6.846   3.905   1.531 -0.6423  0.0869  1.3241
  142MOL    H6220084   6.921   3.864   1.675 -2.7495  0.2032  1.2751
  142MOL    H6320085   6.948   3.663   1.453 -0.5882 -0.5640  1.1415
  142MOL    H6420086   7.019   3.888   1.391  1.3130  1.7767  1.1705
  142MOL    C6520087   7.081   3.650   1.609 -0.1692  0.3592 -0.2139
  142MOL    C6620088   7.196   3.580   1.527  0.0416 -0.0166 -0.1852
  142MOL    O6720089   7.300   3.547   1.612  0.3665 -0.3303  0.3312
  142MOL    H6820090   7.122   3.722   1.680 -1.8413 -0.7913  1.9677
  142MOL    H6920091   7.019   3.573   1.656 -2.2565  1.2848 -1.3740
  142MOL    H7020092   7.236   3.649   1.452 -0.5105  0.1954 -0.2898
  142MOL    H7120093   7.378   3.587   1.576  0.5486 -0.6862  0.3196
  142MOL    C7220094   7.150   3.450   1.457 -0.3442  0.1851 -0.0499
  142MOL    C7320095   7.212   3.439   1.315 -0.2276 -0.4254  0.3504
  142MOL    O7420096   7.195   3.301   1.281 -0.4333 -0.1723 -0.2759
  142MOL    H7520097   7.165   3.365   1.524 -3.3699 -3.3006 -3.5579
  142MOL    H7620098   7.045   3.443   1.427 -0.1765 -2.2732 -0.1638
  142MOL    H7720099   7.317   3.465   1.306 -0.5952  0.0754 -3.0972
  142MOL    H7820100   7.104   3.282   1.295 -0.1014 -0.6958  1.3325
  142MOL    C7920101   7.126   3.528   1.219 -0.2870 -0.7423  0.1527
  142MOL    C8020102   7.188   3.536   1.076 -0.3960  0.0887  0.5510
  142MOL    O8120103   7.079   3.557   0.987  0.1027  0.1130 -0.1776
  142MOL    H8220104   7.022   3.495   1.223 -1.6171  3.2810  1.3411
  142MOL    H8320105   7.118   3.627   1.264  0.1072 -0.7597  0.2596
  142MOL    H8420106   7.233   3.441   1.049  1.0313  0.5525  1.2871
  142MOL    H8520107   7.022   3.622   1.025 -0.6743 -1.0946  0.7641
  142MOL    C8620108   7.286   3.654   1.069  0.2574  0.2414 -0.3317
  142MOL    C8720109   7.375   3.650   0.941 -0.1944 -0.3877  0.3313
  142MOL    O8820110   7.413   3.778   0.907 -0.2969 -1.2970 -0.0862
  142MOL    H8920111   7.235   3.748   1.089  0.2594  0.0413  0.6229
  142MOL    H9020112   7.349   3.669   1.156 -0.1260  0.8688 -0.1606
  142MOL    H9120113   7.315   3.619   0.855 -0.0277  2.9797 -1.0594
  142MOL    H9220114   7.338   3.837   0.907  0.8371  0.1921  0.6394
  142MOL    C9320115   7.504   3.564   0.956  0.0892 -0.0432 -0.2847
  142MOL    C9420116   7.495   3.417   0.994 -0.5179  0.2135  0.8810
  142MOL    O9520117   7.453   3.340   0.884 -0.0048 -0.0203 -0.3570
  142MOL    H9620118   0.046   3.569   0.866  1.2487  1.7326  0.5903
  142MOL    H9720119   0.039   3.612   1.037 -2.4547  0.5365  1.1367
  142MOL    H9820120   7.430   3.405   1.081 -0.7224 -0.1741  0.6806
  142MOL    H9920121   7.484   3.378   0.803  1.1428  0.9883  0.5442
  142MOL   C10020122   0.114   3.358   1.030  0.2293 -0.1201  0.0285
  142MOL   C10120123   0.105   3.242   1.131 -0.3720 -0.3306  0.1772
  142MOL   O10220124   0.229   3.172   1.111 -0.3311  0.0704 -0.2851
  142MOL   H10320125   0.168   3.328   0.940 -1.2455 -1.2532 -0.4834
  142MOL   H10420126   0.184   3.427   1.079  1.3469  0.4835 -2.3267
  142MOL   H10520127   0.027   3.174   1.096 -1.3846  0.7849  0.2398
  142MOL   H10620128   0.232   3.140   1.023 -0.6835 -0.3647 -0.1414
  142MOL   C10720129   0.092   3.271   1.284  0.1518 -0.5763 -0.1093
  142MOL   C10820130   0.004   3.165   1.360 -0.5057  0.0179  0.5482
  142MOL   O10920131   0.059   3.032   1.337 -0.3196  0.1322 -0.3343
  142MOL   H11020132   0.188   3.290   1.332  0.4191 -0.1943 -0.7928
  142MOL   H11120133   0.053   3.372   1.298  0.3550 -0.5773  0.4844
  142MOL   H11220134   7.419   3.173   1.333 -0.0850  2.5237 -0.4664
  142MOL   H11320135   0.088   3.040   1.248 -2.8029 -0.2212 -1.2052
  142MOL   C11420136   0.031   3.195   1.506 -0.4688 -0.3385 -0.1264
  142MOL   C11520137   7.464   3.116   1.612 -0.0610 -0.6013 -0.4664
  142MOL   O11620138   0.009   3.129   1.734 -0.3233  0.0718 -0.0342
  142MOL   H11720139   0.135   3.186   1.536 -0.2479  0.8938 -0.5129
  142MOL   H11820140   0.011   3.300   1.529  2.5124  0.2738 -0.1688
  142MOL   H11920141   7.462   3.009   1.590  1.9004 -0.5910 -0.8356
  142MOL   H12020142   0.041   3.216   1.751 -0.0864  0.1966 -1.1138
  142MOL   C12120143   7.318   3.164   1.623 -0.1646  0.4895  0.2233
  142MOL   C12220144   7.220   3.056   1.688 -0.3827  0.2784 -0.0750
  142MOL   O12320145   7.108   3.120   1.727 -0.0645 -0.4416  0.2898
  142MOL   H12420146   7.309   3.256   1.682 -0.7416  0.2307  0.5448
  142MOL   H12520147   7.297   3.175   1.517  0.2771  0.3469  0.1224
  142MOL   H12620148   7.253   3.014   1.783 -0.8172 -0.3173 -0.1866
  142MOL   H12720149   7.126   3.180   1.798  0.6409  0.9916 -1.0599
  142MOL   C12820150   7.175   2.947   1.596  0.0889  0.4857 -0.1133
  142MOL   C12920151   7.071   2.845   1.651  0.1945  0.4735  0.0955
  142MOL   O13020152   7.030   2.770   1.534 -0.6591  0.1319  0.3870
  142MOL   H13120153   7.132   2.994   1.507  1.9380  2.9701  0.2482
  142MOL   H13220154   7.268   2.895   1.572  0.8184  0.6700  2.1778
  142MOL   H13320155   6.985   2.896   1.693 -2.1315 -2.2408 -1.1559
  142MOL   H13420156   6.948   2.727   1.552 -0.7608  0.1524 -0.0309
  142MOL   C13520157   7.133   2.746   1.755 -0.3179  0.5891 -0.3390
  142MOL   C13620158   7.033   2.661   1.835  0.7062  0.4002 -0.0388
  142MOL   O13720159   7.086   2.557   1.915 -0.6608  0.0103  0.2543
  142MOL   H13820160   7.207   2.686   1.702  0.1776  1.5688 -0.7551
  142MOL   H13920161   7.182   2.807   1.831  1.8051 -0.4790 -0.8359
  142MOL   H14020162   6.956   2.625   1.767  0.1546  0.8912  0.3150
  142MOL   H14120163   7.146   2.606   1.969  0.0086  0.8850 -1.2582
  142MOL   H14220164   6.976   2.730   1.899  1.7279  2.2472 -1.0846
  143MOL     C120165   3.954   6.095   1.718  0.4217  0.3825  0.3140
  143MOL     C220166   3.958   5.947   1.681 -0.1447  1.0535  0.0971
  143MOL     O320167   3.981   5.874   1.795  0.2865  0.5608 -0.4174
  143MOL     H420168   4.038   6.113   1.786  1.9552 -1.1537 -1.1238
  143MOL     H520169   3.863   6.123   1.771  0.6496  0.1081  0.8629
  143MOL     H620170   4.054   5.937   1.629  1.6259  2.0052  3.0738
  143MOL     H720171   3.993   5.784   1.772 -2.6654 -0.4347  1.5301
  143MOL     H820172   3.960   6.160   1.631 -2.1191 -1.6469 -1.4306
  143MOL     C920173   3.841   5.895   1.608  0.6763 -0.5450 -0.2128
  143MOL    C1020174   3.864   5.753   1.555  0.6590  0.6103 -0.5457
  143MOL    O1120175   3.744   5.686   1.523 -0.4753  0.2997  0.8032
  143MOL    H1220176   3.756   5.898   1.676  0.4292  0.4357 -0.5423
  143MOL    H1320177   3.814   5.964   1.527  1.8488 -1.1154 -1.1119
  143MOL    H1420178   3.895   5.692   1.641 -0.8543  0.5536 -0.0342
  143MOL    H1520179   3.765   5.596   1.503  0.2804  0.6827 -0.1314
  143MOL    C1620180   3.962   5.734   1.441 -0.5319  0.2063 -0.4167
  143MOL    C1720181   3.992   5.598   1.381 -0.4980  0.6621  0.3237
  143MOL    O1820182   4.090   5.621   1.282  0.3857  0.3061  0.1686
  143MOL    H1920183   3.933   5.798   1.358  3.7317  0.8539 -1.4989
  143MOL    H2020184   4.058   5.772   1.477 -0.6888 -0.6618  0.9558
  143MOL    H2120185   3.900   5.563   1.335  1.1715 -1.2198 -1.7015
  143MOL    H2220186   4.054   5.668   1.209 -2.5320 -2.9059 -0.5953
  143MOL    C2320187   4.038   5.494   1.482 -0.5226  0.1835  0.6731
  143MOL    C2420188   4.051   5.359   1.400 -0.3783 -0.6513 -0.3146
  143MOL    O2520189   4.158   5.284   1.462 -0.7180 -0.0145  0.7903
  143MOL    H2620190   4.135   5.530   1.516 -0.1810 -1.6559  1.6720
  143MOL    H2720191   3.968   5.481   1.564 -0.9744  0.9067  0.4110
  143MOL    H2820192   4.086   5.390   1.301 -2.4087 -1.1939 -1.2213
  143MOL    H2920193   4.133   5.256   1.548 -0.0826  0.0327  0.9882
  143MOL    C3020194   3.920   5.268   1.398  0.4710 -0.2001 -0.2446
  143MOL    C3120195   3.812   5.312   1.293 -0.1337  0.0413 -0.5467
  143MOL    O3220196   3.721   5.409   1.338 -0.0339  0.3223  0.3231
  143MOL    H3320197   3.946   5.169   1.362 -0.3852 -0.3869 -0.3554
  143MOL    H3420198   3.886   5.255   1.500 -0.4024 -1.3370 -0.6665
  143MOL    H3520199   3.742   5.228   1.284  1.4120 -1.1757 -1.4634
  143MOL    H3620200   3.650   5.419   1.275  0.3792 -0.6681 -0.3206
  143MOL    C3720201   3.856   5.333   1.150  0.4332  0.0278 -0.1356
  143MOL    C3820202   3.894   5.214   1.064  0.6598  0.3086  0.3318
  143MOL    O3920203   3.781   5.133   1.031 -0.1227 -0.9951  0.2663
  143MOL    H4020204   3.777   5.390   1.101 -0.2825 -0.5278  0.3655
  143MOL    H4120205   3.938   5.405   1.151 -1.6580  2.5124  0.3258
  143MOL    H4220206   3.978   5.161   1.109 -0.1578 -0.2439  1.2128
  143MOL    H4320207   3.706   5.190   1.029 -0.2502 -1.0579  2.1694
  143MOL    C4420208   3.947   5.258   0.928 -0.5980 -0.1509  0.0922
  143MOL    C4520209   4.024   5.163   0.828  0.5401  0.5972  0.1228
  143MOL    O4620210   3.932   5.079   0.763  0.4775 -0.0101  0.2419
  143MOL    H4720211   3.865   5.304   0.873 -0.5462 -0.4995 -0.2767
  143MOL    H4820212   4.003   5.350   0.944  0.7157 -1.0770  0.8474
  143MOL    H4920213   4.089   5.110   0.898 -2.5451 -0.3509  2.3707
  143MOL    H5020214   3.942   4.995   0.805  2.3540  0.8506  1.5826
  143MOL    C5120215   4.096   5.248   0.720  0.2550 -0.0253 -0.1564
  143MOL    C5220216   4.182   5.171   0.629 -0.2645 -1.2349 -0.4987
  143MOL    O5320217   4.167   5.222   0.497 -1.1804 -0.1361  0.7675
  143MOL    H5420218   4.016   5.310   0.677  0.4306  0.4770  0.2310
  143MOL    H5520219   4.148   5.328   0.772 -1.2460  1.0470 -0.2416
  143MOL    H5620220   4.142   5.070   0.620 -0.7308 -1.0195 -0.8323
  143MOL    H5720221   4.185   5.151   0.436  0.8891  1.5138 -0.6372
  143MOL    C5820222   4.326   5.163   0.681 -0.3429 -0.4764  0.2303
  143MOL    C5920223   4.426   5.084   0.588 -0.0386 -0.0462 -0.2194
  143MOL    O6020224   4.498   5.186   0.518 -0.5909  0.1260 -0.4677
  143MOL    H6120225   4.360   5.262   0.712 -1.3171 -0.4466  1.2608
  143MOL    H6220226   4.314   5.111   0.776 -0.5654 -2.0256 -0.6387
  143MOL    H6320227   4.394   5.027   0.501 -0.8086 -1.8937  1.2305
  143MOL    H6420228   4.528   5.142   0.440 -2.0346 -0.8668 -0.4734
  143MOL    C6520229   4.522   4.986   0.658 -0.1164 -0.0969 -0.0149
  143MOL    C6620230   4.446   4.867   0.720  0.3816  0.4857 -0.4962
  143MOL    O6720231   4.408   4.790   0.611  0.1268  0.5232  0.4256
  143MOL    H6820232   4.584   4.934   0.584  2.0372  0.0795  1.6253
  143MOL    H6920233   4.590   5.044   0.719 -1.0606 -0.0982  1.0413
  143MOL    H7020234   4.360   4.900   0.778  0.7039  1.8251 -0.7637
  143MOL    H7120235   4.469   4.789   0.540 -0.0368 -0.3353  0.2961
  143MOL    C7220236   4.542   4.783   0.811 -0.1943 -0.0661  0.4921
  143MOL    C7320237   4.570   4.852   0.952  0.3903 -0.3190 -0.0502
  143MOL    O7420238   4.455   4.855   1.029 -0.4621  0.2321  0.0419
  143MOL    H7520239   4.498   4.686   0.833  0.4816 -0.4779  0.0494
  143MOL    H7620240   4.632   4.757   0.755  0.1474 -0.6611  1.3217
  143MOL    H7720241   4.597   4.955   0.929 -0.5732 -0.2226 -0.8154
  143MOL    H7820242   4.482   4.895   1.110 -0.6992  1.0748 -0.2971
  143MOL    C7920243   4.678   4.776   1.030 -0.1508  0.2911  0.1271
  143MOL    C8020244   4.761   4.866   1.125 -0.2277 -0.4164 -0.4000
  143MOL    O8120245   4.673   4.936   1.216 -0.0189  0.2536  0.1640
  143MOL    H8220246   4.636   4.686   1.075 -2.1572  3.1765  4.3777
  143MOL    H8320247   4.758   4.752   0.960  1.4863 -1.3426  2.4624
  143MOL    H8420248   4.824   4.935   1.070  0.3661 -0.8523 -0.2675
  143MOL    H8520249   4.711   5.022   1.225  0.1953 -0.1179  3.7694
  143MOL    C8620250   4.871   4.784   1.202  0.0266 -0.1526  0.1655
  143MOL    C8720251   4.999   4.759   1.130  0.0619  0.4069  0.3575
  143MOL    O8820252   5.056   4.887   1.132 -0.2901 -0.1754 -0.6986
  143MOL    H8920253   4.890   4.844   1.291 -1.5768  3.2958 -1.7320
  143MOL    H9020254   4.836   4.685   1.232 -0.9093 -0.4272 -1.7453
  143MOL    H9120255   4.980   4.739   1.025  1.2579  2.2238 -0.2327
  143MOL    H9220256   5.063   4.918   1.043  1.3232 -1.0435 -0.8873
  143MOL    C9320257   5.093   4.658   1.199  0.1642 -0.0152  0.1201
  143MOL    C9420258   5.066   4.510   1.144 -0.6293  0.8612 -0.6695
  143MOL    O9520259   5.114   4.503   1.003  0.2958 -0.7541  0.2622
  143MOL    H9620260   5.197   4.674   1.172  0.3137  1.2191  1.3780
  143MOL    H9720261   5.077   4.670   1.306 -1.1464 -2.4681  0.2268
  143MOL    H9820262   4.959   4.489   1.153 -0.6684  1.7247  1.1716
  143MOL    H9920263   5.208   4.514   0.999  0.0245  1.9246  0.0339
  143MOL   C10020264   5.133   4.405   1.232  0.2852 -0.4274 -0.9378
  143MOL   C10120265   5.085   4.254   1.210 -0.7535  0.3486  0.4844
  143MOL   O10220266   5.183   4.164   1.266 -0.0932  0.3379  0.5169
  143MOL   H10320267   5.241   4.408   1.225  0.2946  2.1252  0.0775
  143MOL   H10420268   5.131   4.425   1.339  3.3306 -1.2743 -0.6867
  143MOL   H10520269   5.056   4.228   1.108  0.7337 -1.7127  0.5561
  143MOL   H10620270   5.128   4.091   1.292  1.0566 -0.8702 -0.3463
  143MOL   C10720271   4.964   4.219   1.298  0.7395 -0.5349  0.1706
  143MOL   C10820272   4.902   4.080   1.283 -0.1728 -0.5594 -0.4221
  143MOL   O10920273   4.990   3.973   1.315 -0.4492 -0.1575  0.9366
  143MOL   H11020274   4.973   4.240   1.404 -3.2794  0.1802  0.4543
  143MOL   H11120275   4.885   4.288   1.269  0.3722 -0.4808  1.2674
  143MOL   H11220276   4.866   4.059   1.182 -0.7274 -1.9364  0.0530
  143MOL   H11320277   4.930   3.902   1.332 -1.1814  0.7816  2.3153
  143MOL   C11420278   4.782   4.058   1.373 -0.7812  0.4272 -1.3850
  143MOL   C11520279   4.679   3.948   1.328 -0.2103  0.6384  0.4763
  143MOL   O11620280   4.742   3.821   1.331  0.5447 -0.1555 -0.8257
  143MOL   H11720281   4.822   4.026   1.469 -0.5565 -1.3273 -2.0398
  143MOL   H11820282   4.724   4.150   1.374 -0.4624  0.6211 -0.7722
  143MOL   H11920283   4.653   3.975   1.225 -0.6274  1.3055  0.7546
  143MOL   H12020284   4.704   3.768   1.263  0.2753 -1.4026  0.2731
  143MOL   C12120285   4.536   3.954   1.399 -0.4654 -0.3862  0.2686
  143MOL   C12220286   4.414   3.890   1.331  0.6189  0.1321 -0.2794
  143MOL   O12320287   4.312   3.904   1.427 -0.0800  0.0990 -0.4502
  143MOL   H12420288   4.544   3.915   1.500 -1.1512  0.5243  0.6789
  143MOL   H12520289   4.510   4.059   1.410  4.0972  0.6325  2.3587
  143MOL   H12620290   4.433   3.783   1.328 -0.5761 -0.0790 -0.3665
  143MOL   H12720291   4.307   3.997   1.442  0.6210  0.3088 -1.4278
  143MOL   C12820292   4.374   3.930   1.190  0.6081  0.5015 -0.0971
  143MOL   C12920293   4.267   3.836   1.124  0.6296  0.9081  0.1953
  143MOL   O13020294   4.158   3.849   1.214  0.8031  0.5532 -0.6035
  143MOL   H13120295   4.340   4.033   1.196 -0.4390  0.0490  2.4586
  143MOL   H13220296   4.460   3.927   1.123  0.0520 -1.4357 -0.7738
  143MOL   H13320297   4.299   3.731   1.117  0.8198  0.9386  0.5747
  143MOL   H13420298   4.195   3.873   1.297 -0.1914 -0.9602  0.2979
  143MOL   C13520299   4.233   3.873   0.982 -0.5485 -0.2395  0.0039
  143MOL   C13620300   4.130   3.783   0.914 -0.8142  0.0292 -0.7679
  143MOL   O13720301   4.075   3.838   0.796  0.7287  0.5853  0.3190
  143MOL   H13820302   4.201   3.977   0.978 -0.0847 -0.0311  1.4615
  143MOL   H13920303   4.326   3.876   0.924 -1.6382  1.2395 -1.7148
  143MOL   H14020304   4.049   3.764   0.984  1.2100  1.2817  1.9965
  143MOL   H14120305   4.017   3.770   0.766  0.7700  0.3860  0.6929
  143MOL   H14220306   4.176   3.688   0.885  1.4047  0.0849  2.3009
  144MOL     C120307   1.368   6.841   3.753  0.7598  0.1657  0.0999
  144MOL     C220308   1.281   6.964   3.778  0.2550 -0.3211 -0.4788
  144MOL     O320309   1.170   6.937   3.698  0.1373  0.5184 -0.1743
  144MOL     H420310   1.382   6.807   3.650  1.2390 -1.4898  0.6876
  144MOL     H520311   1.333   6.753   3.808  1.0908  0.5579  0.9515
  144MOL     H620312   1.341   7.043   3.732  0.1444 -0.0366 -0.1362
  144MOL     H720313   1.142   7.015   3.652  0.5585  0.5189 -0.4335
  144MOL     H820314   1.470   6.864   3.783  1.0471 -1.0296  0.0674
  144MOL     C920315   1.251   6.978   3.930 -1.1917 -0.2318 -0.2223
  144MOL    C1020316   1.192   7.115   3.969 -0.2472  0.1035 -0.2959
  144MOL    O1120317   1.070   7.122   3.896 -0.4364 -0.2496  0.3536
  144MOL    H1220318   1.172   6.907   3.954 -2.3659  0.8088 -0.9454
  144MOL    H1320319   1.342   6.952   3.985 -0.4309 -1.0832 -1.8639
  144MOL    H1420320   1.270   7.183   3.936 -0.1521  0.9634  1.6534
  144MOL    H1520321   1.090   7.154   3.810  0.0798 -0.9218  0.2209
  144MOL    C1620322   1.162   7.128   4.125 -0.1962  0.4967  0.6955
  144MOL    C1720323   1.154   7.281   4.157 -0.0365 -0.3794  0.1755
  144MOL    O1820324   1.064   7.293   4.264 -0.0857 -0.3474 -0.4260
  144MOL    H1920325   1.083   7.057   4.150  2.4899 -2.0836  2.1849
  144MOL    H2020326   1.254   7.089   4.170 -0.6418 -0.9557  0.3652
  144MOL    H2120327   1.120   7.341   4.073 -2.9513 -1.3804  0.5997
  144MOL    H2220328   0.979   7.291   4.223  0.7262  1.0688 -2.2936
  144MOL    C2320329   1.289   7.347   4.193 -0.3011  0.2358 -0.2286
  144MOL    C2420330   1.280   7.486   4.255  0.6401 -0.3245 -0.1699
  144MOL    O2520331   1.404   7.505   4.323  0.2660  0.0097  0.2529
  144MOL    H2620332   1.321   7.278   4.271  0.6344  1.5742  0.5888
  144MOL    H2720333   1.359   7.356   4.111  0.2798  0.1399  0.2535
  144MOL    H2820334   1.211   7.508   4.336 -1.1316  1.9410 -2.1941
  144MOL    H2920335   1.385   7.493   4.415  1.1222  0.7271  0.5282
  144MOL    C3020336   1.288   0.084   4.152 -0.7008  0.0911  0.5773
  144MOL    C3120337   1.174   0.118   4.075  0.5808 -0.5693 -0.3938
  144MOL    O3220338   1.166   0.035   3.962 -0.4398 -0.2111  0.2288
  144MOL    H3320339   1.312   0.177   4.203 -0.2335 -1.1097  2.6213
  144MOL    H3420340   1.379   0.064   4.095 -2.0452 -0.0798 -1.5741
  144MOL    H3520341   1.188   0.222   4.045  3.9348 -0.3623  1.6547
  144MOL    H3620342   1.245   0.047   3.911 -0.5366 -0.9209 -0.1015
  144MOL    C3720343   1.038   0.122   4.153 -0.1495  1.0008 -0.2139
  144MOL    C3820344   1.006   0.244   4.243 -1.1632  0.0193  0.2389
  144MOL    O3920345   1.034   0.365   4.171  0.0222  0.1423 -0.8693
  144MOL    H4020346   0.956   0.110   4.082 -0.2663  1.8923 -0.2368
  144MOL    H4120347   1.033   0.031   4.213  0.1712  0.6007 -0.7796
  144MOL    H4220348   1.061   0.240   4.337 -1.0445  0.4415  0.1859
  144MOL    H4320349   1.037   0.435   4.235 -0.0821  1.0820 -1.8772
  144MOL    C4420350   0.850   0.243   4.273 -0.0134 -0.1242  0.1667
  144MOL    C4520351   0.816   0.131   4.377 -0.3249 -0.2129  0.2072
  144MOL    O4620352   0.879   0.144   4.500 -0.9386  0.4016  0.2597
  144MOL    H4720353   0.814   0.339   4.309 -2.1727 -1.8109  2.6517
  144MOL    H4820354   0.787   0.236   4.185 -0.5440 -0.8211  0.5962
  144MOL    H4920355   0.850   0.031   4.349 -5.2087 -1.1541 -2.8308
  144MOL    H5020356   0.936   0.069   4.516  0.6532  2.0619  2.8211
  144MOL    C5120357   0.663   0.115   4.408  0.5760 -0.2570  0.3580
  144MOL    C5220358   0.600   0.247   4.465 -0.5010 -0.7725  0.6774
  144MOL    O5320359   0.484   0.262   4.395  0.6232 -1.0483  0.2093
  144MOL    H5420360   0.616   0.091   4.313  1.7933  1.1364 -0.6180
  144MOL    H5520361   0.633   0.046   4.487  0.9789  0.3899  1.0812
  144MOL    H5620362   0.660   0.333   4.437 -1.6908 -0.6883 -1.7545
  144MOL    H5720363   0.458   0.353   4.396  0.3107 -1.1433  1.2429
  144MOL    C5820364   0.563   0.258   4.615 -0.2006  0.3715  0.2824
  144MOL    C5920365   0.684   0.227   4.714 -0.5048 -0.6065 -0.0939
  144MOL    O6020366   0.802   0.303   4.680  0.8417 -0.2733  0.2080
  144MOL    H6120367   0.541   0.362   4.639  1.1491  0.5740  0.7125
  144MOL    H6220368   0.469   0.212   4.644  0.5351 -0.3048  1.6358
  144MOL    H6320369   0.720   0.125   4.701  0.9142 -0.2384  0.8786
  144MOL    H6420370   0.839   0.248   4.612 -1.1738 -1.0533 -0.2893
  144MOL    C6520371   0.651   0.248   4.868 -0.1839  0.5508  0.1853
  144MOL    C6620372   0.546   0.146   4.922 -0.0225  0.5835 -0.0821
  144MOL    O6720373   0.618   0.045   5.002 -0.2831  0.0010  0.3149
  144MOL    H6820374   0.740   0.262   4.929 -0.0658  0.5547  0.0105
  144MOL    H6920375   0.593   0.340   4.881  0.0788  0.6460  0.6922
  144MOL    H7020376   0.511   0.092   4.833 -0.4531  1.2966 -0.3475
  144MOL    H7120377   0.662   7.503   4.945 -0.5995 -0.3009  0.3926
  144MOL    C7220378   0.435   0.196   5.014 -0.2571 -0.1037  1.0956
  144MOL    C7320379   0.322   0.258   4.929  0.7016  0.4152  1.3954
  144MOL    O7420380   0.243   0.151   4.873 -0.3696  0.5362  0.4591
  144MOL    H7520381   0.392   0.116   5.074 -1.8585 -1.2508 -1.4850
  144MOL    H7620382   0.492   0.261   5.081  0.7407  0.1621  0.0109
  144MOL    H7720383   0.364   0.312   4.844 -0.3840  0.9245  1.1720
  144MOL    H7820384   0.184   0.176   4.803  0.0234  0.6995  0.1850
  144MOL    C7920385   0.233   0.354   5.007 -0.1669 -0.0207 -0.0122
  144MOL    C8020386   0.247   0.509   4.983  0.7536  0.1473 -0.0752
  144MOL    O8120387   0.157   0.579   5.067  0.2320 -0.7985 -0.6855
  144MOL    H8220388   0.129   0.332   4.982 -0.1596  0.5086 -0.5192
  144MOL    H8320389   0.235   0.328   5.113 -1.3833 -1.4825 -0.3289
  144MOL    H8420390   0.224   0.526   4.878  0.5255 -0.5684 -0.1436
  144MOL    H8520391   0.076   0.568   5.021  0.8056 -2.0341 -1.4459
  144MOL    C8620392   0.384   0.561   5.021  0.9240 -0.2701 -0.0590
  144MOL    C8720393   0.409   0.571   5.175  0.1014  0.6937  0.4288
  144MOL    O8820394   0.531   0.500   5.199 -0.2639  0.8848 -0.1577
  144MOL    H8920395   0.463   0.495   4.986  1.0092  0.6283 -1.5815
  144MOL    H9020396   0.408   0.660   4.983 -0.1372  0.3361  0.8086
  144MOL    H9120397   0.331   0.525   5.236 -0.4655  0.2186 -0.6449
  144MOL    H9220398   0.515   0.413   5.233  0.8481  0.2186 -1.3006
  144MOL    C9320399   0.410   0.713   5.247 -0.1447 -0.7180 -0.0976
  144MOL    C9420400   0.419   0.703   5.395  0.4538 -0.4606  0.5911
  144MOL    O9520401   0.515   0.806   5.434 -0.1936 -0.1418  0.1097
  144MOL    H9620402   0.484   0.776   5.197 -0.5614  1.5265  2.0431
  144MOL    H9720403   0.315   0.762   5.230 -0.6176 -1.4492  0.4041
  144MOL    H9820404   0.464   0.608   5.423  0.2631 -0.3287  1.3518
  144MOL    H9920405   0.591   0.790   5.380  1.1235  1.6538  1.3629
  144MOL   C10020406   0.292   0.730   5.473  0.7149  0.2966 -0.3169
  144MOL   C10120407   0.170   0.637   5.460  0.0677 -0.0487 -0.1924
  144MOL   O10220408   0.205   0.501   5.482  0.3541  0.5755  0.0452
  144MOL   H10320409   0.316   0.720   5.579 -3.9237 -0.2508  0.7949
  144MOL   H10420410   0.250   0.831   5.464 -0.3571 -0.1134  0.0473
  144MOL   H10520411   0.153   0.640   5.352 -0.4786 -2.8598 -0.2400
  144MOL   H10620412   0.208   0.497   5.576 -0.2147  1.4067  0.1101
  144MOL   C10720413   0.038   0.678   5.538  0.1590  0.1685  0.2497
  144MOL   C10820414   7.445   0.573   5.521 -0.3342 -0.0228  0.3632
  144MOL   O10920415   7.347   0.597   5.615 -0.5673 -0.0424 -0.3603
  144MOL   H11020416   0.053   0.688   5.646  1.4254  1.4913 -0.0365
  144MOL   H11120417   0.009   0.777   5.503 -0.3393  0.7631  2.2765
  144MOL   H11220418   7.483   0.474   5.548  2.0333  0.5211 -0.8086
  144MOL   H11320419   7.284   0.528   5.598 -2.6495  1.7059  0.1180
  144MOL   C11420420   7.375   0.562   5.388 -0.0113  0.8345 -0.8445
  144MOL   C11520421   7.451   0.513   5.260 -0.5105  0.8465  0.2078
  144MOL   O11620422   0.015   0.400   5.291  0.0909  0.1432  0.1700
  144MOL   H11720423   7.290   0.494   5.402  2.3629 -2.1584 -0.5851
  144MOL   H11820424   7.321   0.653   5.362 -1.4704 -0.1886 -1.5165
  144MOL   H11920425   0.000   0.596   5.243 -0.2140  1.3842  3.8175
  144MOL   H12020426   0.092   0.432   5.335  0.1230 -0.8312  0.8308
  144MOL   C12120427   7.360   0.472   5.134  0.0896 -0.1854 -0.0959
  144MOL   C12220428   7.252   0.573   5.082  0.0471 -0.1954  0.3054
  144MOL   O12320429   7.331   0.659   5.006 -0.2014 -0.0037  0.2439
  144MOL   H12420430   7.417   0.429   5.052 -1.6552  2.1471 -2.6348
  144MOL   H12520431   7.307   0.389   5.180  1.1307 -0.9068 -0.1781
  144MOL   H12620432   7.224   0.631   5.171 -2.2085 -0.0610 -0.4588
  144MOL   H12720433   7.327   0.623   4.919  0.3556  0.2274  0.1227
  144MOL   C12820434   7.131   0.522   5.007  0.7555  0.8168 -0.5862
  144MOL   C12920435   7.002   0.524   5.089 -0.5645 -0.1027 -0.0725
  144MOL   O13020436   6.889   0.481   5.016  0.1292 -0.1497  0.7441
  144MOL   H13120437   7.108   0.588   4.924 -1.8686  1.8138  0.8715
  144MOL   H13220438   7.148   0.422   4.966 -0.0900  0.2913  0.3115
  144MOL   H13320439   6.979   0.626   5.120  2.3602 -0.0607  2.2441
  144MOL   H13420440   6.857   0.552   4.961 -0.4587 -0.9564  0.0399
  144MOL   C13520441   7.006   0.427   5.213 -0.0560 -0.5144  0.3322
  144MOL   C13620442   6.883   0.454   5.295 -0.2479  0.2494  0.1542
  144MOL   O13720443   6.894   0.426   5.431  0.1660  0.0522 -0.2078
  144MOL   H13820444   7.022   0.324   5.180 -2.6266 -0.2881 -1.8191
  144MOL   H13920445   7.089   0.446   5.281 -0.9989  0.8966  1.1176
  144MOL   H14020446   6.822   0.372   5.257 -0.2289  0.2645  0.0913
  144MOL   H14120447   6.955   0.483   5.477 -0.2239 -0.1644  0.5947
  144MOL   H14220448   6.837   0.551   5.277  0.2733  0.8302  1.8469
  145MOL     C120449   4.862   3.272   4.685  0.1524 -0.0554 -0.4553
  145MOL     C220450   4.751   3.358   4.608 -0.0634 -0.0461 -0.7595
  145MOL     O320451   4.634   3.346   4.681 -0.5295  0.0131  0.2130
  145MOL     H420452   4.896   3.310   4.782  0.7452  0.4729 -0.8647
  145MOL     H520453   4.962   3.280   4.643  0.9093  0.0352  1.3001
  145MOL     H620454   4.736   3.303   4.515  0.8459 -2.9015  0.7452
  145MOL     H720455   4.629   3.257   4.712 -3.0922  1.3890  4.1529
  145MOL     H820456   4.841   3.166   4.694 -2.5165  0.4987  0.6266
  145MOL     C920457   4.786   3.501   4.591 -0.2885  0.2100  0.3115
  145MOL    C1020458   4.709   3.589   4.496 -0.6760 -0.2235 -0.6519
  145MOL    O1120459   4.756   3.725   4.505  0.2028  0.4053  0.2198
  145MOL    H1220460   4.804   3.543   4.690  1.6472  0.1982  0.0001
  145MOL    H1320461   4.891   3.501   4.561  0.3082 -0.4935  2.3482
  145MOL    H1420462   4.606   3.591   4.531 -0.2427  1.9712  0.6024
  145MOL    H1520463   4.773   3.746   4.596 -1.0776 -0.0891  0.5827
  145MOL    C1620464   4.717   3.551   4.350  0.5586 -0.0378 -0.2929
  145MOL    C1720465   4.609   3.607   4.263 -0.1060 -0.2800 -0.6052
  145MOL    O1820466   4.641   3.741   4.232 -0.1323 -0.4949  0.1842
  145MOL    H1920467   4.822   3.551   4.321  0.8705  3.4026  0.6198
  145MOL    H2020468   4.703   3.443   4.350 -0.4556  0.0864  0.4175
  145MOL    H2120469   4.513   3.609   4.314  0.3371  1.2006  0.2134
  145MOL    H2220470   4.704   3.766   4.298  0.1658  0.4291 -0.4480
  145MOL    C2320471   4.596   3.541   4.124 -0.5309 -0.0975 -0.1029
  145MOL    C2420472   4.478   3.582   4.034  0.0406 -0.1875 -0.5997
  145MOL    O2520473   4.490   3.514   3.912  0.2353  0.2138  0.7820
  145MOL    H2620474   4.687   3.566   4.071  0.0893  1.1980  1.5203
  145MOL    H2720475   4.601   3.433   4.135  2.1974  0.0757  0.8166
  145MOL    H2820476   4.482   3.689   4.015  0.1002 -0.2379 -0.8704
  145MOL    H2920477   4.468   3.578   3.846  0.3815 -1.5813 -1.0572
  145MOL    C3020478   4.338   3.562   4.104 -0.2845  0.0750 -0.1816
  145MOL    C3120479   4.214   3.622   4.032  0.5113 -0.3575  0.3395
  145MOL    O3220480   4.217   3.765   4.012  0.0741 -0.8628 -0.4378
  145MOL    H3320481   4.314   3.457   4.117 -0.1964  0.3393  2.3517
  145MOL    H3420482   4.336   3.602   4.206 -0.8466  2.6303 -1.1487
  145MOL    H3520483   4.131   3.618   4.101  1.1509 -0.4688  1.1057
  145MOL    H3620484   4.290   3.782   3.953 -0.2288  0.1337 -0.5467
  145MOL    C3720485   4.177   3.559   3.896 -0.4809  0.4828 -0.1517
  145MOL    C3820486   4.114   3.424   3.911  0.1782  0.0268  0.5057
  145MOL    O3920487   4.001   3.416   3.997  0.3171  0.2451  0.1527
  145MOL    H4020488   4.118   3.626   3.834  1.4910  0.9859 -1.5047
  145MOL    H4120489   4.265   3.550   3.833  1.2821  0.7603  2.2202
  145MOL    H4220490   4.194   3.362   3.952 -0.8784 -3.3421 -2.2828
  145MOL    H4320491   4.004   3.357   4.071 -1.3188  2.4133  2.0138
  145MOL    C4420492   4.069   3.371   3.778 -0.7791  1.3132 -0.4280
  145MOL    C4520493   3.940   3.435   3.708 -0.2971  0.1418 -1.1138
  145MOL    O4620494   3.970   3.551   3.630 -0.3925  0.0218 -0.3847
  145MOL    H4720495   4.141   3.357   3.697 -2.7573  2.1015 -2.3763
  145MOL    H4820496   4.052   3.265   3.799 -0.3247  1.6113  1.5128
  145MOL    H4920497   3.881   3.464   3.795  0.8702 -1.1676  0.1687
  145MOL    H5020498   3.892   3.574   3.582  0.1040 -2.6156 -2.6315
  145MOL    C5120499   3.861   3.332   3.630  0.0418  0.8533 -0.0298
  145MOL    C5220500   3.762   3.240   3.705  0.1945 -0.0001  0.2249
  145MOL    O5320501   3.724   3.145   3.600  0.3431 -0.3774  0.2863
  145MOL    H5420502   3.796   3.386   3.562 -0.5870 -0.5864 -0.5916
  145MOL    H5520503   3.935   3.281   3.567 -2.0321  0.7986 -2.4912
  145MOL    H5620504   3.668   3.285   3.738 -0.1241 -1.6796  1.6327
  145MOL    H5720505   3.800   3.090   3.591 -0.0405 -0.4502 -2.8074
  145MOL    C5820506   3.824   3.161   3.821  0.2222  0.7784  0.2964
  145MOL    C5920507   3.723   3.066   3.890  0.7432 -0.3477  0.3588
  145MOL    O6020508   3.785   2.967   3.972 -0.3417  0.2997 -0.4469
  145MOL    H6120509   3.902   3.101   3.774  0.2008  0.0191  1.2070
  145MOL    H6220510   3.863   3.229   3.896 -0.1607 -0.4437  1.6339
  145MOL    H6320511   3.681   3.004   3.811 -0.7679  2.7636 -1.3579
  145MOL    H6420512   3.729   2.891   3.967  0.8259 -0.5867 -0.3171
  145MOL    C6520513   3.613   3.142   3.972  0.3110 -0.4030  0.0085
  145MOL    C6620514   3.648   3.214   4.099  0.0204 -0.1461  0.3003
  145MOL    O6720515   3.653   3.353   4.062 -0.0720  0.1675 -0.1104
  145MOL    H6820516   3.568   3.200   3.892  0.2194 -0.3673  0.0856
  145MOL    H6920517   3.545   3.062   4.000  0.5165 -0.2983  0.8097
  145MOL    H7020518   3.749   3.187   4.129  0.6706  0.5187 -1.2698
  145MOL    H7120519   3.692   3.403   4.132 -3.1322  3.9232 -0.9011
  145MOL    C7220520   3.544   3.193   4.211 -0.0634 -0.5706  0.5443
  145MOL    C7320521   3.617   3.200   4.349  0.5659  0.5840  0.5839
  145MOL    O7420522   3.519   3.215   4.448  0.7167  0.0426  0.1032
  145MOL    H7520523   3.458   3.257   4.193 -0.2233 -1.1812 -0.9888
  145MOL    H7620524   3.486   3.103   4.188  1.4999 -1.9681  1.8942
  145MOL    H7720525   3.685   3.284   4.366 -0.2094  0.9787  1.8581
  145MOL    H7820526   3.462   3.139   4.446  0.3961  0.3204 -2.5773
  145MOL    C7920527   3.679   3.062   4.382  0.6331 -0.4662  0.7227
  145MOL    C8020528   3.793   3.071   4.484  0.3544  0.3129  0.2267
  145MOL    O8120529   3.822   2.935   4.522 -0.7990  0.3445 -0.4736
  145MOL    H8220530   3.600   2.997   4.419 -0.1856  0.1840  0.1341
  145MOL    H8320531   3.716   3.008   4.295  2.0060  2.7560 -0.7775
  145MOL    H8420532   3.750   3.121   4.570 -3.0654  2.8907 -2.7826
  145MOL    H8520533   3.737   2.894   4.521 -0.2836 -0.7592 -0.3745
  145MOL    C8620534   3.919   3.142   4.440 -0.0598  0.0379 -0.4866
  145MOL    C8720535   3.993   3.085   4.311 -0.6561 -0.4547 -0.0689
  145MOL    O8820536   4.068   3.176   4.235 -0.0308  0.4418  0.7372
  145MOL    H8920537   3.904   3.248   4.417  0.9938  0.4709  0.7621
  145MOL    H9020538   3.992   3.141   4.520  0.3675 -0.9300 -0.8867
  145MOL    H9120539   3.917   3.062   4.236 -0.4307  2.1655 -1.1545
  145MOL    H9220540   4.149   3.196   4.280  0.7140  0.9476 -0.8201
  145MOL    C9320541   4.083   2.962   4.352  0.5334  0.2612 -1.1264
  145MOL    C9420542   4.137   2.874   4.237  0.1121 -0.5333 -0.2394
  145MOL    O9520543   4.239   2.799   4.296  0.0660  0.2237  0.0365
  145MOL    H9620544   4.167   3.001   4.409 -0.3106  0.4200  0.0311
  145MOL    H9720545   4.041   2.893   4.425  1.1694  2.1744  1.1305
  145MOL    H9820546   4.193   2.930   4.162  0.1201  1.1728  1.0155
  145MOL    H9920547   4.209   2.759   4.376 -1.3648 -0.5346 -0.8654
  145MOL   C10020548   4.029   2.779   4.170  0.9705  0.8327  0.3308
  145MOL   C10120549   4.080   2.653   4.091 -0.0910 -0.5832  0.4057
  145MOL   O10220550   3.973   2.594   4.025  0.1043 -0.6446  0.4546
  145MOL   H10320551   3.968   2.730   4.247  1.0723  0.0947 -0.0545
  145MOL   H10420552   3.957   2.831   4.107 -0.9468 -0.7702  1.1329
  145MOL   H10520553   4.130   2.585   4.159  1.1610  1.8970  2.0450
  145MOL   H10620554   3.973   2.511   4.070  3.1708 -0.6372  0.5962
  145MOL   C10720555   4.184   2.677   3.979 -0.1752  0.7038 -0.9474
  145MOL   C10820556   4.273   2.550   3.948  0.1930  0.1164  0.4559
  145MOL   O10920557   4.335   2.569   3.819  0.0853 -0.3524 -0.4110
  145MOL   H11020558   4.133   2.699   3.886 -1.4966 -1.5696 -0.7967
  145MOL   H11120559   4.250   2.757   4.013  0.5763  0.6924 -2.3476
  145MOL   H11220560   4.206   2.464   3.952  0.3305 -0.0950 -1.4218
  145MOL   H11320561   4.269   2.572   3.751  1.0265  0.9179 -1.2874
  145MOL   C11420562   4.399   2.542   4.045  0.2094  0.1144 -0.0767
  145MOL   C11520563   4.488   2.420   4.013  0.0282 -0.1341  0.0114
  145MOL   O11620564   4.602   2.436   4.092  0.2473  0.5876 -0.5558
  145MOL   H11720565   4.448   2.639   4.041 -1.5687  1.0131 -0.4716
  145MOL   H11820566   4.356   2.535   4.145  0.8921  1.0610  0.2901
  145MOL   H11920567   4.512   2.425   3.907 -2.0152 -0.4688 -0.4777
  145MOL   H12020568   4.678   2.456   4.040  0.5969  2.1290  0.4839
  145MOL   C12120569   4.418   2.288   4.058  0.1597  0.6532  0.5178
  145MOL   C12220570   4.493   2.159   4.033 -0.2342  0.2483  0.3342
  145MOL   O12320571   4.422   2.056   4.098  0.2979 -0.0676 -0.4204
  145MOL   H12420572   4.397   2.294   4.165  1.3285 -4.2002  1.1189
  145MOL   H12520573   4.319   2.286   4.013  0.1373  1.0642  0.5415
  145MOL   H12620574   4.595   2.167   4.071  0.7715 -2.8486 -1.4974
  145MOL   H12720575   4.483   2.009   4.152 -1.2017  2.0302  3.2834
  145MOL   C12820576   4.511   2.127   3.882  0.2493  0.1544 -0.4004
  145MOL   C12920577   4.632   2.040   3.847  0.1354  0.3543 -0.1119
  145MOL   O13020578   4.613   1.910   3.896 -0.2573  0.3343 -0.3205
  145MOL   H13120579   4.420   2.075   3.853  0.7799 -0.9118 -0.1654
  145MOL   H13220580   4.523   2.218   3.824 -1.2660  0.4056 -0.3466
  145MOL   H13320581   4.718   2.086   3.894  1.1550 -1.2693 -0.3510
  145MOL   H13420582   4.619   1.914   3.990 -0.0608  0.4546 -0.3381
  145MOL   C13520583   4.646   2.039   3.695 -0.7056  0.3730  0.9316
  145MOL   C13620584   4.753   1.953   3.646  0.0150 -0.2366  0.5242
  145MOL   O13720585   4.773   1.967   3.508 -0.5467 -0.0753 -0.4391
  145MOL   H13820586   4.550   1.999   3.662 -1.0320  0.1069  2.1560
  145MOL   H13920587   4.657   2.141   3.657  0.6934 -0.5116 -1.1195
  145MOL   H14020588   4.741   1.847   3.670 -1.5097 -0.1206  0.2660
  145MOL   H14120589   4.834   1.898   3.488  0.0108 -0.2600  1.7058
  145MOL   H14220590   4.846   1.986   3.694 -0.5466  0.8762  0.8461
  146MOL     C120591   0.654   3.549   2.436  0.1087 -0.3309  0.3683
  146MOL     C220592   0.790   3.590   2.493  0.0049 -0.1072 -0.8030
  146MOL     O320593   0.829   3.716   2.445  0.1265  0.5335 -0.4575
  146MOL     H420594   0.661   3.554   2.327 -1.2651  2.3674  0.3613
  146MOL     H520595   0.569   3.609   2.467 -0.8158 -1.8104  0.7769
  146MOL     H620596   0.868   3.520   2.465 -1.4322 -1.6044 -1.1499
  146MOL     H720597   0.850   3.701   2.354 -0.9902  0.1434 -0.6575
  146MOL     H820598   0.612   3.456   2.475 -0.4745  0.3496  1.3599
  146MOL     C920599   0.770   3.598   2.652  0.1526  0.5714 -0.6244
  146MOL    C1020600   0.898   3.614   2.734  0.5079  0.4939  0.9884
  146MOL    O1120601   0.860   3.616   2.865  0.1729 -0.4404 -0.6648
  146MOL    H1220602   0.701   3.679   2.673 -0.0406  0.2674 -0.0697
  146MOL    H1320603   0.719   3.508   2.688  2.5628 -1.2591 -1.6352
  146MOL    H1420604   0.943   3.708   2.701 -1.4564  0.0364 -3.2952
  146MOL    H1520605   0.772   3.649   2.875 -0.1420 -0.9922 -1.5825
  146MOL    C1620606   0.989   3.498   2.716  0.4068  0.0002 -0.1473
  146MOL    C1720607   1.139   3.536   2.742 -0.1081 -0.1342 -0.2272
  146MOL    O1820608   1.212   3.407   2.759 -0.1381  0.1225 -0.4940
  146MOL    H1920609   0.952   3.406   2.762 -2.2877 -0.5640 -3.2630
  146MOL    H2020610   0.984   3.475   2.610  2.0583  1.4095 -0.5454
  146MOL    H2120611   1.138   3.594   2.834  1.1589  0.9392 -0.8823
  146MOL    H2220612   1.180   3.345   2.695 -1.2080 -3.3483  3.1986
  146MOL    C2320613   1.219   3.614   2.629  0.1331  0.7274 -0.2499
  146MOL    C2420614   1.358   3.663   2.678  0.4786  0.5527  0.4628
  146MOL    O2520615   1.439   3.552   2.717 -0.3092  0.2070  0.2493
  146MOL    H2620616   1.227   3.551   2.541  1.0213 -0.9718  1.0244
  146MOL    H2720617   1.163   3.699   2.588  0.1395  0.5554 -0.6204
  146MOL    H2820618   1.349   3.723   2.768  2.4718  0.0889  0.9935
  146MOL    H2920619   1.374   3.489   2.744  0.1617 -0.1215  0.6419
  146MOL    C3020620   1.440   3.736   2.559  0.6130 -0.4358  0.0142
  146MOL    C3120621   1.552   3.825   2.616  0.2862  0.4817 -0.0396
  146MOL    O3220622   1.668   3.747   2.623  0.4819 -0.1137 -0.1141
  146MOL    H3320623   1.469   3.663   2.484  0.8014  0.4271 -0.7631
  146MOL    H3420624   1.366   3.799   2.509  1.3832  1.7557  1.5733
  146MOL    H3520625   1.520   3.860   2.714  3.0952  0.1035  1.0958
  146MOL    H3620626   1.657   3.691   2.698 -0.8370 -0.5895 -0.6469
  146MOL    C3720627   1.584   3.947   2.529 -0.5343 -0.0434 -0.3445
  146MOL    C3820628   1.638   3.903   2.387  0.0017  0.3733 -0.2965
  146MOL    O3920629   1.578   3.971   2.273 -0.6083 -0.0199  0.1414
  146MOL    H4020630   1.488   3.997   2.516  0.3626  1.0019 -3.4609
  146MOL    H4120631   1.648   4.019   2.580 -0.4138 -0.3753 -0.0257
  146MOL    H4220632   1.618   3.798   2.370  1.1089  0.0745  0.2160
  146MOL    H4320633   1.490   3.938   2.261 -1.8206  1.5954  3.6847
  146MOL    C4420634   1.780   3.946   2.356  0.6120 -0.7003  0.3663
  146MOL    C4520635   1.893   3.869   2.431 -0.0721  1.4856  0.0406
  146MOL    O4620636   1.879   3.730   2.422 -0.3919  0.1593  0.1231
  146MOL    H4720637   1.797   3.950   2.248  1.4307  1.0283  0.5457
  146MOL    H4820638   1.787   4.050   2.388  0.1104  0.2440 -2.4690
  146MOL    H4920639   1.875   3.889   2.536 -3.5854 -2.2365  0.2780
  146MOL    H5020640   1.802   3.697   2.465 -0.3001  0.2438  0.3519
  146MOL    C5120641   2.033   3.911   2.394 -0.4048  0.2951  0.3009
  146MOL    C5220642   2.065   4.061   2.425  0.3316  0.1185  0.5114
  146MOL    O5320643   2.051   4.074   2.565  0.7920  0.3513  0.0546
  146MOL    H5420644   2.116   3.850   2.428 -1.3790 -0.6230  1.0614
  146MOL    H5520645   2.037   3.911   2.285  1.2110  0.5347  0.3459
  146MOL    H5620646   1.996   4.117   2.362 -1.1489 -0.8830  1.1964
  146MOL    H5720647   2.095   4.002   2.608  1.0929  0.5682  0.1152
  146MOL    C5820648   2.199   4.100   2.392  0.1575  0.0773  0.0595
  146MOL    C5920649   2.236   4.256   2.385  0.7902  0.2480 -0.7159
  146MOL    O6020650   2.184   4.312   2.506 -0.0517 -0.0043 -0.4977
  146MOL    H6120651   2.275   4.054   2.454  0.2582  1.4407  0.9705
  146MOL    H6220652   2.222   4.066   2.291  0.3449  1.3910 -0.3477
  146MOL    H6320653   2.189   4.309   2.303  1.2407  2.5325  0.4568
  146MOL    H6420654   2.133   4.245   2.550 -0.9546  0.0150 -1.4841
  146MOL    C6520655   2.389   4.280   2.389  0.0413  0.0621 -0.2591
  146MOL    C6620656   2.468   4.226   2.270  0.0932 -0.5211  0.2840
  146MOL    O6720657   2.430   4.303   2.157  0.1002  0.1748  0.4250
  146MOL    H6820658   2.407   4.387   2.383  1.7032 -0.2594 -1.3597
  146MOL    H6920659   2.439   4.237   2.476  1.7900  0.9536 -0.8200
  146MOL    H7020660   2.432   4.128   2.240 -1.7638  0.4331 -0.6550
  146MOL    H7120661   2.459   4.252   2.083 -0.0775  3.0300 -1.7190
  146MOL    C7220662   2.622   4.225   2.289 -1.0073 -0.1011 -0.6041
  146MOL    C7320663   2.680   4.167   2.420  1.1386  0.5568  0.4178
  146MOL    O7420664   2.634   4.033   2.440 -0.0310 -0.2700 -0.5797
  146MOL    H7520665   2.658   4.161   2.209  0.7384  0.0961  0.0057
  146MOL    H7620666   2.672   4.320   2.273  0.4666 -0.8344 -0.4186
  146MOL    H7720667   2.648   4.223   2.508  2.8753  0.5774  1.0586
  146MOL    H7820668   2.575   4.032   2.514  0.1308  3.3890 -0.3113
  146MOL    C7920669   2.834   4.175   2.431  0.5736  1.0475  0.3270
  146MOL    C8020670   2.895   4.142   2.571  0.1817  0.2469  0.1525
  146MOL    O8120671   2.844   4.218   2.670  0.3978  0.0714  0.0963
  146MOL    H8220672   2.878   4.104   2.361 -0.3377  0.2694  0.5417
  146MOL    H8320673   2.881   4.271   2.411  0.7304  0.1746 -3.9315
  146MOL    H8420674   3.000   4.172   2.564 -0.3745  2.0365 -0.6927
  146MOL    H8520675   2.896   4.175   2.736  0.8553 -1.6104 -1.3127
  146MOL    C8620676   2.889   3.991   2.612  0.1239 -0.0022  0.3301
  146MOL    C8720677   2.983   3.958   2.728  0.5348 -0.8381  0.4450
  146MOL    O8820678   2.942   4.024   2.844  0.2725 -0.0933 -0.4622
  146MOL    H8920679   2.785   3.982   2.644 -1.3959  2.4660 -3.5662
  146MOL    H9020680   2.903   3.930   2.523  0.4513  0.8148 -0.1788
  146MOL    H9120681   3.080   4.003   2.706 -0.0569  0.7217  0.9594
  146MOL    H9220682   3.015   4.023   2.904  0.5091  2.3417 -0.6772
  146MOL    C9320683   3.001   3.808   2.749 -0.2161 -0.2808  0.1387
  146MOL    C9420684   3.070   3.727   2.639 -0.9112 -0.2687 -0.1545
  146MOL    O9520685   3.201   3.764   2.643  0.5399 -0.0072  0.0636
  146MOL    H9620686   3.047   3.787   2.846 -0.0716 -3.2059 -0.5160
  146MOL    H9720687   2.901   3.766   2.759 -0.6422 -0.1772 -3.2440
  146MOL    H9820688   3.028   3.735   2.539  0.9562  0.9095 -0.8798
  146MOL    H9920689   3.229   3.744   2.555 -0.7378  2.2299 -0.9094
  146MOL   C10020690   3.067   3.580   2.660  0.0774  0.6627  0.4316
  146MOL   C10120691   2.938   3.520   2.606  0.7474  0.0475 -0.8981
  146MOL   O10220692   2.938   3.545   2.461 -0.6540  0.1052  0.0536
  146MOL   H10320693   3.150   3.528   2.613 -0.0828  1.9304 -1.3135
  146MOL   H10420694   3.076   3.556   2.766 -1.2248  1.0732  0.6365
  146MOL   H10520695   2.848   3.575   2.631  1.0176  0.9766 -1.9533
  146MOL   H10620696   2.852   3.520   2.433 -0.3946 -0.1537 -0.5127
  146MOL   C10720697   2.912   3.367   2.634 -0.1699  0.5834  0.3569
  146MOL   C10820698   2.899   3.323   2.789  0.0103  0.2593  0.4836
  146MOL   O10920699   3.013   3.306   2.855 -0.5475  0.7110  0.4450
  146MOL   H11020700   2.821   3.329   2.588 -0.2785 -1.0996  1.8953
  146MOL   H11120701   2.991   3.309   2.587 -1.5644  0.8644 -2.4129
  146MOL   H11220702   2.862   3.220   2.783  2.6318 -0.6500 -0.7958
  146MOL   H11320703   2.993   3.262   2.937 -3.0194 -0.2835 -0.6443
  146MOL   C11420704   2.797   3.408   2.869 -0.5302  0.1393 -0.1092
  146MOL   C11520705   2.647   3.407   2.830 -0.7793 -0.5298  0.3333
  146MOL   O11620706   2.598   3.283   2.856  0.1161  0.3036  0.1766
  146MOL   H11720707   2.802   3.382   2.974 -1.6649  3.2427  0.7569
  146MOL   H11820708   2.830   3.511   2.859 -0.5020  0.2386  0.9852
  146MOL   H11920709   2.641   3.420   2.722  0.3151 -0.1805  0.3079
  146MOL   H12020710   2.629   3.222   2.791 -0.6637 -1.4149  1.3908
  146MOL   C12120711   2.566   3.513   2.899 -0.4522  0.4025 -0.1932
  146MOL   C12220712   2.598   3.662   2.883  0.3608  0.3602  0.3266
  146MOL   O12320713   2.578   3.689   2.746 -0.2019 -0.3497 -0.5891
  146MOL   H12420714   2.462   3.495   2.872 -1.1327  0.6908  2.0711
  146MOL   H12520715   2.564   3.487   3.005  0.0511  1.7798  0.1647
  146MOL   H12620716   2.703   3.669   2.912  0.3492  0.5217  0.3277
  146MOL   H12720717   2.603   3.775   2.714  0.4075 -0.0414  0.7160
  146MOL   C12820718   2.525   3.760   2.976  0.8708 -0.2194  0.7162
  146MOL   C12920719   2.555   3.749   3.125 -0.3557  0.0901  0.0484
  146MOL   O13020720   2.669   3.830   3.145  0.2152 -0.2356 -0.2961
  146MOL   H13120721   2.543   3.862   2.941 -1.2463  0.5713  1.8971
  146MOL   H13220722   2.421   3.731   2.959  1.1979 -3.0739  3.2340
  146MOL   H13320723   2.581   3.647   3.154 -0.0139 -0.0019 -0.5762
  146MOL   H13420724   2.740   3.768   3.142  0.7247  0.4014 -2.2099
  146MOL   C13520725   2.443   3.804   3.219  0.0775  0.3682  0.4769
  146MOL   C13620726   2.470   3.764   3.368 -0.4460 -0.6960 -0.3013
  146MOL   O13720727   2.437   3.633   3.387 -0.5666 -0.4496 -0.0282
  146MOL   H13820728   2.431   3.912   3.220  2.4850  0.6614  0.8334
  146MOL   H13920729   2.347   3.763   3.188  0.6950 -0.6127 -0.1926
  146MOL   H14020730   2.414   3.835   3.429  1.0150  1.4887 -1.4546
  146MOL   H14120731   2.346   3.625   3.411 -0.2199 -0.0715  1.4604
  146MOL   H14220732   2.569   3.793   3.402 -1.3462  1.3134  0.6806
  147MOL     C120733   0.377   6.965   3.425 -0.3740 -1.0682  0.1007
  147MOL     C220734   0.357   6.825   3.474  0.0221 -0.1378  0.2425
  147MOL     O320735   0.437   6.735   3.406 -1.0583  0.2484  0.0305
  147MOL     H420736   0.371   6.971   3.317  0.7681 -1.1054  0.0322
  147MOL     H520737   0.467   7.015   3.460 -1.3897  0.7555  0.1761
  147MOL     H620738   0.254   6.807   3.444  0.0053  0.7424 -0.2361
  147MOL     H720739   0.519   6.714   3.447 -0.9977 -1.3667 -0.8563
  147MOL     H820740   0.296   7.031   3.455 -0.0478 -0.3150 -0.6654
  147MOL     C920741   0.384   6.800   3.618 -0.2335  0.4620  0.1199
  147MOL    C1020742   0.296   6.882   3.715  0.0358 -0.0899 -0.5896
  147MOL    O1120743   0.299   6.802   3.835 -0.0513 -0.5172 -0.0564
  147MOL    H1220744   0.361   6.694   3.632 -0.6200  0.4428 -0.6659
  147MOL    H1320745   0.489   6.809   3.645 -0.0561 -2.5988  0.7407
  147MOL    H1420746   0.193   6.895   3.683 -0.8120  0.3204  2.1211
  147MOL    H1520747   0.207   6.804   3.859 -0.3081 -1.2000 -0.9582
  147MOL    C1620748   0.351   7.023   3.752 -0.1357 -0.2550 -0.2646
  147MOL    C1720749   0.250   7.115   3.823 -0.0198 -0.2973  0.0161
  147MOL    O1820750   0.325   7.217   3.890  0.8238 -0.3047 -0.7327
  147MOL    H1920751   0.428   7.009   3.828 -1.2763  0.9210  1.1393
  147MOL    H2020752   0.401   7.071   3.668 -1.1364 -3.6158 -2.8955
  147MOL    H2120753   0.206   7.055   3.903  1.0148 -0.7880  0.2301
  147MOL    H2220754   0.369   7.262   3.820  2.4223  0.5331  0.7964
  147MOL    C2320755   0.148   7.179   3.723 -0.3267  0.7079 -0.1617
  147MOL    C2420756   0.028   7.246   3.803  0.4498  0.2017 -0.2096
  147MOL    O2520757   0.073   7.337   3.897 -0.3643  0.2006 -0.0541
  147MOL    H2620758   0.204   7.249   3.661  2.0465 -2.1992 -1.4162
  147MOL    H2720759   0.107   7.108   3.652  0.1692 -0.9778  1.1930
  147MOL    H2820760   7.502   7.158   3.848  0.5702 -0.4929 -1.4253
  147MOL    H2920761   0.161   7.311   3.920 -0.0552  0.6223 -0.7516
  147MOL    C3020762   7.458   7.327   3.703  0.0869 -0.0918  0.1692
  147MOL    C3120763   7.327   7.386   3.754  0.1387  0.8826 -0.3639
  147MOL    O3220764   7.270   7.443   3.641  0.0714  0.3065 -1.1175
  147MOL    H3320765   0.001   7.408   3.665 -2.8859  3.3622  2.2938
  147MOL    H3420766   7.439   7.259   3.620  0.6954 -1.1115  0.8590
  147MOL    H3520767   7.343   7.470   3.822 -0.4703 -2.0755  3.5635
  147MOL    H3620768   7.330   7.509   3.611  0.0327  0.8427 -0.0257
  147MOL    C3720769   7.219   7.285   3.810  0.7899 -0.0639 -0.1535
  147MOL    C3820770   7.159   7.304   3.954  0.3636 -0.3293  0.0211
  147MOL    O3920771   7.071   7.202   3.983 -0.3443  0.5794 -0.2303
  147MOL    H4020772   7.128   7.268   3.752  0.9015 -1.8780  0.1443
  147MOL    H4120773   7.275   7.191   3.805  1.5349  0.3915 -0.3263
  147MOL    H4220774   7.099   7.394   3.939 -2.5380 -1.8518  1.9280
  147MOL    H4320775   7.012   7.224   4.054  0.3105 -1.9437  1.1690
  147MOL    C4420776   7.254   7.299   4.074  0.0080  0.1809 -0.3155
  147MOL    C4520777   7.217   7.357   4.211 -0.0881  0.2335  0.1348
  147MOL    O4620778   7.304   7.296   4.303 -0.4191 -0.0393 -0.2654
  147MOL    H4720779   7.284   7.195   4.089 -2.8328 -0.4547  1.4069
  147MOL    H4820780   7.345   7.353   4.048  0.1543 -0.2579 -0.7255
  147MOL    H4920781   7.116   7.333   4.243 -0.4866  0.5395 -0.8606
  147MOL    H5020782   7.395   7.315   4.287 -0.3287  0.5784  0.8588
  147MOL    C5120783   7.234   7.517   4.215  0.1719  0.4276  0.2311
  147MOL    C5220784   7.101   0.076   4.187 -0.0667 -0.2501  0.0408
  147MOL    O5320785   7.039   0.110   4.309 -0.3165 -0.0279 -0.4490
  147MOL    H5420786   7.260   0.022   4.318  2.9781  0.3169 -0.4018
  147MOL    H5520787   7.323   0.031   4.160  0.8934 -1.4066  0.2720
  147MOL    H5620788   7.024   0.020   4.133 -0.8343 -0.9300  1.8193
  147MOL    H5720789   6.957   0.151   4.284 -1.0696 -0.5984  0.9951
  147MOL    C5820790   7.119   0.202   4.103 -0.1144  0.3030  0.1237
  147MOL    C5920791   7.176   0.193   3.956 -0.3888 -0.6519  0.3359
  147MOL    O6020792   7.067   0.167   3.865 -0.0484  0.5468 -0.4279
  147MOL    H6120793   7.020   0.247   4.100 -0.1423  0.2950  0.9430
  147MOL    H6220794   7.171   0.275   4.165  0.3593  0.5952 -0.6079
  147MOL    H6320795   7.251   0.114   3.962 -1.8247 -2.0019  0.8154
  147MOL    H6420796   7.102   0.182   3.778  0.7897  0.9886 -0.0156
  147MOL    C6520797   7.250   0.324   3.908 -0.2882 -0.2153  0.3074
  147MOL    C6620798   7.332   0.292   3.777  0.2023  0.6508 -0.3723
  147MOL    O6720799   7.233   0.254   3.683 -0.1015  0.1050 -0.5804
  147MOL    H6820800   7.173   0.400   3.900 -0.4782 -0.5077 -0.6633
  147MOL    H6920801   7.325   0.362   3.977 -0.1505 -0.9840  0.5863
  147MOL    H7020802   7.404   0.211   3.791  0.1578  0.6687 -0.0445
  147MOL    H7120803   7.266   0.215   3.604 -1.9246 -2.0128 -0.3370
  147MOL    C7220804   7.398   0.414   3.726  0.6213 -0.7904 -0.8185
  147MOL    C7320805   7.472   0.397   3.595  0.9128  0.3013  0.8152
  147MOL    O7420806   7.513   0.513   3.537  0.6097  0.6135 -0.7078
  147MOL    H7520807   7.323   0.492   3.726  0.5726 -0.8290 -2.0951
  147MOL    H7620808   7.473   0.447   3.798 -1.2535 -0.9466  1.2498
  147MOL    H7720809   7.402   0.348   3.527  0.3023  1.9268  0.2483
  147MOL    H7820810   7.517   0.579   3.605  0.0065  0.2844 -0.3414
  147MOL    C7920811   0.081   0.322   3.625  0.0433 -0.7123  0.7230
  147MOL    C8020812   0.153   0.287   3.488 -0.7165  0.2058 -0.4753
  147MOL    O8120813   0.290   0.314   3.505  0.4309  0.2140 -0.2555
  147MOL    H8220814   0.149   0.376   3.690  1.2437 -1.5458  0.1671
  147MOL    H8320815   0.064   0.230   3.682 -1.6580 -0.6971  0.2874
  147MOL    H8420816   0.137   0.354   3.403  1.6882  0.2083 -0.9831
  147MOL    H8520817   0.318   0.265   3.581  2.0385  0.0500 -0.9105
  147MOL    C8620818   0.133   0.135   3.453  0.3486  0.0066 -0.1979
  147MOL    C8720819   7.514   0.101   3.388  0.3127  0.1014  0.1397
  147MOL    O8820820   7.403   0.109   3.467  0.6316 -0.0072 -0.4015
  147MOL    H8920821   0.214   0.100   3.389  1.6970  1.2680  0.7843
  147MOL    H9020822   0.141   0.078   3.546 -0.3959 -0.3855 -0.3711
  147MOL    H9120823   7.510   7.513   3.370 -1.9656 -0.0669  1.4525
  147MOL    H9220824   7.338   0.057   3.422  1.3365 -0.8401 -0.4600
  147MOL    C9320825   7.490   0.164   3.247 -0.6307  0.7242 -0.3559
  147MOL    C9420826   0.034   0.088   3.133 -0.4840  0.4885 -0.0566
  147MOL    O9520827   0.031   7.462   3.146 -0.1643 -0.4037  0.7411
  147MOL    H9620828   7.384   0.157   3.225 -0.5319 -1.2856 -0.2737
  147MOL    H9720829   7.518   0.269   3.234  1.5535  0.4040  1.3057
  147MOL    H9820830   0.139   0.104   3.157  0.5049 -1.6398 -2.7281
  147MOL    H9920831   7.462   7.448   3.176 -0.4596 -0.4801 -0.1618
  147MOL   C10020832   0.007   0.125   2.982  0.4743 -0.4619  0.1845
  147MOL   C10120833   7.380   0.162   2.952 -1.1104  0.3701 -0.4064
  147MOL   O10220834   7.349   0.290   3.001  0.0446 -0.2967  0.2599
  147MOL   H10320835   0.070   0.207   2.948 -1.0142  1.2127  1.3779
  147MOL   H10420836   0.044   0.042   2.922 -2.0453 -0.6571 -1.1423
  147MOL   H10520837   7.319   0.083   2.996 -0.2908  1.7492  3.4474
  147MOL   H10620838   7.429   0.335   3.024  0.4021  0.1476 -1.7936
  147MOL   C10720839   7.350   0.173   2.796  0.0965 -0.3172  0.3387
  147MOL   C10820840   7.378   0.050   2.705  0.7004 -0.5226  0.0880
  147MOL   O10920841   7.258   0.013   2.648 -0.4145  0.4342 -0.2910
  147MOL   H11020842   7.246   0.200   2.777  0.4762 -0.0625 -1.4250
  147MOL   H11120843   7.406   0.253   2.747 -1.7806  0.8750  0.0648
  147MOL   H11220844   7.406   7.484   2.767  2.6738 -0.9550 -1.3301
  147MOL   H11320845   7.210   7.483   2.712  0.3751  1.1056  0.8341
  147MOL   C11420846   7.477   0.066   2.590 -0.8047  0.3918 -0.0954
  147MOL   C11520847   0.101   0.099   2.634  0.0775  0.5024  0.0580
  147MOL   O11620848   0.153   7.500   2.694 -0.5230 -0.1984  0.3904
  147MOL   H11720849   7.475   7.509   2.513  0.4860  0.0718  0.1803
  147MOL   H11820850   7.436   0.146   2.527  1.1581  1.5457  0.0424
  147MOL   H11920851   0.097   0.190   2.694  1.6503  0.8365 -0.3219
  147MOL   H12020852   0.231   0.010   2.738 -1.0766  0.4621  0.9422
  147MOL   C12120853   0.198   0.111   2.519  0.4955 -0.2631  0.3867
  147MOL   C12220854   0.329   0.190   2.540 -0.1233 -0.1976  0.5358
  147MOL   O12320855   0.412   0.167   2.429  0.1943 -0.6975 -0.4301
  147MOL   H12420856   0.212   0.009   2.482 -0.2208  0.0863 -0.9067
  147MOL   H12520857   0.148   0.163   2.437 -1.3369 -0.9090  1.0610
  147MOL   H12620858   0.389   0.154   2.624 -1.6632  0.2485  1.8489
  147MOL   H12720859   0.365   0.192   2.351 -0.2255  0.4964  0.1866
  147MOL   C12820860   0.312   0.342   2.571 -0.0145  0.0439  0.4564
  147MOL   C12920861   0.445   0.420   2.606 -0.3589  0.1796  0.3990
  147MOL   O13020862   0.539   0.422   2.499  0.0712 -0.7874 -0.1581
  147MOL   H13120863   0.260   0.400   2.495 -1.1510  1.0092  1.9354
  147MOL   H13220864   0.242   0.353   2.653  0.1214 -2.7616  0.9801
  147MOL   H13320865   0.486   0.346   2.675  2.4884 -1.6578 -3.1137
  147MOL   H13420866   0.528   0.337   2.458 -0.5313 -0.0414 -1.5724
  147MOL   C13520867   0.436   0.551   2.680 -0.0154 -0.7221  0.6029
  147MOL   C13620868   0.578   0.588   2.747 -0.0647 -0.4327  0.6568
  147MOL   O13720869   0.665   0.648   2.652 -0.0040 -0.1872  0.5023
  147MOL   H13820870   0.395   0.628   2.615  0.6411 -2.2121 -1.6502
  147MOL   H13920871   0.364   0.552   2.761 -0.5420  0.4002  0.1241
  147MOL   H14020872   0.617   0.494   2.786 -1.0636 -0.8393  0.6914
  147MOL   H14120873   0.648   0.604   2.570 -0.6265  0.3399  0.3405
  147MOL   H14220874   0.557   0.662   2.824 -0.0201 -0.2422  0.4860
  148MOL     C120875   4.061   7.320   6.721  0.5074 -0.1110 -0.0292
  148MOL     C220876   3.955   7.394   6.644 -0.0761  0.5983 -0.1921
  148MOL     O320877   3.839   7.340   6.693  0.2694 -0.1119  0.0639
  148MOL     H420878   4.075   7.341   6.827  2.9429  1.1475 -0.5756
  148MOL     H520879   4.159   7.340   6.679  1.0990 -0.8084  0.9718
  148MOL     H620880   3.963   7.350   6.545  2.3732  0.2362  0.1251
  148MOL     H720881   3.784   7.300   6.627  2.1741 -2.3604 -0.2239
  148MOL     H820882   4.041   7.213   6.712 -0.1470  0.1196 -1.5399
  148MOL     C920883   3.942   0.028   6.644 -0.0389  0.6830  0.2734
  148MOL    C1020884   4.067   0.112   6.597 -0.3083  0.2115  0.1625
  148MOL    O1120885   4.015   0.232   6.543 -0.6605 -0.0694  0.3705
  148MOL    H1220886   3.868   0.047   6.567 -0.7330 -1.8171  0.2724
  148MOL    H1320887   3.896   0.064   6.735  0.9688  2.0943  0.2472
  148MOL    H1420888   4.101   0.047   6.516  0.4225 -0.2877  0.8667
  148MOL    H1520889   3.987   0.208   6.456 -2.8777 -1.4105  1.3976
  148MOL    C1620890   4.175   0.139   6.707 -0.8593  0.2651  0.3042
  148MOL    C1720891   4.310   0.162   6.652 -0.2834  0.7702 -0.0300
  148MOL    O1820892   4.397   0.182   6.752  0.2063  0.2063  0.0156
  148MOL    H1920893   4.141   0.221   6.770 -3.0171  0.3539 -0.9265
  148MOL    H2020894   4.178   0.054   6.776  2.3597 -0.9674 -1.2093
  148MOL    H2120895   4.298   0.256   6.597 -0.3558  0.2425 -0.9366
  148MOL    H2220896   4.412   0.103   6.803 -0.0073 -0.1143 -0.4118
  148MOL    C2320897   4.365   0.052   6.552 -0.2762 -0.5449  0.0221
  148MOL    C2420898   4.509   0.051   6.500 -0.1905  0.2722 -0.8416
  148MOL    O2520899   4.517   7.443   6.437  0.4414  0.3587 -0.1762
  148MOL    H2620900   4.337   7.481   6.606 -0.1722 -0.5667  0.0389
  148MOL    H2720901   4.294   0.049   6.469 -2.4219 -1.1887  1.8240
  148MOL    H2820902   4.580   0.055   6.583  0.6575 -1.8520 -1.4006
  148MOL    H2920903   4.594   7.404   6.475  0.2307 -0.3784 -0.4937
  148MOL    C3020904   4.539   0.173   6.406  0.9134  1.1783 -0.3521
  148MOL    C3120905   4.665   0.154   6.315  0.4593  0.3136 -0.3435
  148MOL    O3220906   4.657   0.218   6.190 -0.2606  0.4602 -0.4945
  148MOL    H3320907   4.463   0.191   6.331 -0.8551  0.6219  1.2711
  148MOL    H3420908   4.552   0.268   6.459  1.6667  1.6339 -1.3358
  148MOL    H3520909   4.671   0.048   6.294 -0.1343  0.4028 -0.9667
  148MOL    H3620910   4.620   0.158   6.127 -0.2448  2.2627 -2.2629
  148MOL    C3720911   4.793   0.185   6.388  0.7798  0.1710 -0.0327
  148MOL    C3820912   4.924   0.141   6.317 -0.0916  1.0298 -0.7208
  148MOL    O3920913   5.032   0.153   6.411 -0.6829  0.0753  0.7044
  148MOL    H4020914   4.806   0.290   6.413  0.4092  0.6931 -1.9366
  148MOL    H4120915   4.790   0.130   6.482 -0.4125  0.2859  0.0002
  148MOL    H4220916   4.950   0.213   6.240 -0.0823 -0.4978 -2.1784
  148MOL    H4320917   5.051   0.070   6.451 -2.2062  0.0421  1.3935
  148MOL    C4420918   4.916   7.518   6.255  0.6483 -0.0469  0.1608
  148MOL    C4520919   5.051   7.479   6.185  0.1668 -0.7583 -0.1680
  148MOL    O4620920   5.045   7.345   6.135  0.5069  0.2996  0.0984
  148MOL    H4720921   4.886   7.444   6.328  2.3388  0.3980  1.3227
  148MOL    H4820922   4.835   7.507   6.182  0.2980 -2.6447  0.9245
  148MOL    H4920923   5.131   7.483   6.258  0.8002 -1.9379 -0.7751
  148MOL    H5020924   5.121   7.338   6.079  0.9782 -0.4983  0.8060
  148MOL    C5120925   5.083   0.043   6.062  0.1364 -0.3192 -0.0871
  148MOL    C5220926   5.222   0.024   6.008 -0.9854 -0.4742  0.6773
  148MOL    O5320927   5.239   7.429   5.923 -0.0646 -0.9465  0.1099
  148MOL    H5420928   5.003   0.039   5.988  0.1265  0.1072 -0.1047
  148MOL    H5520929   5.077   0.149   6.089 -0.9273 -0.3752 -0.0994
  148MOL    H5620930   5.289   0.006   6.092  0.3458  0.8526 -0.0679
  148MOL    H5720931   5.332   7.416   5.920  0.2088  1.2182 -2.3328
  148MOL    C5820932   5.290   0.136   5.925 -0.2262  1.0969  0.3277
  148MOL    C5920933   5.212   0.186   5.800 -0.8746 -0.1992  0.2409
  148MOL    O6020934   5.249   0.321   5.796 -0.0485  0.0922  0.3975
  148MOL    H6120935   5.304   0.219   5.994 -0.7669  1.4004  0.0709
  148MOL    H6220936   5.395   0.119   5.903 -0.9629 -1.4120 -1.4326
  148MOL    H6320937   5.107   0.166   5.822 -0.9073 -0.0141  0.2578
  148MOL    H6420938   5.177   0.374   5.765  2.4585  3.5824  0.3380
  148MOL    C6520939   5.270   0.119   5.667 -0.0648 -0.4101 -1.3406
  148MOL    C6620940   5.181   0.125   5.538  0.1182 -0.1634  0.6766
  148MOL    O6720941   5.261   0.056   5.450  0.0619 -0.2673  0.1257
  148MOL    H6820942   5.357   0.181   5.642  0.9057 -0.9513  0.6003
  148MOL    H6920943   5.297   0.015   5.679  1.6988  0.3075  1.1828
  148MOL    H7020944   5.170   0.229   5.508  2.2959  0.1958  1.1016
  148MOL    H7120945   5.271   0.109   5.372 -0.7291 -0.2502  0.0270
  148MOL    C7220946   5.045   0.051   5.553  0.1520  0.8052 -0.3862
  148MOL    C7320947   4.951   0.048   5.430  0.3417  0.4086 -0.1255
  148MOL    O7420948   4.854   7.476   5.462 -0.4723 -0.4769 -0.6910
  148MOL    H7520949   5.061   7.467   5.585  1.8245  0.9006 -0.8569
  148MOL    H7620950   4.984   0.096   5.631  1.2260  3.4676 -1.0449
  148MOL    H7720951   5.009   0.009   5.347  1.3319 -0.2553  0.8604
  148MOL    H7820952   4.824   7.451   5.376 -3.1977  1.2589 -0.3006
  148MOL    C7920953   4.891   0.188   5.397  0.0893  0.8022 -0.0524
  148MOL    C8020954   4.904   0.245   5.256  0.5216 -1.8939  0.1955
  148MOL    O8120955   4.825   0.165   5.172  0.3087 -0.2147 -0.4278
  148MOL    H8220956   4.785   0.173   5.413  0.3316  0.0375  0.8524
  148MOL    H8320957   4.920   0.263   5.470  0.8304 -1.8492  2.4353
  148MOL    H8420958   5.006   0.232   5.221  0.6524 -1.1183  0.2749
  148MOL    H8520959   4.875   0.118   5.107  2.9087  1.0291  0.5919
  148MOL    C8620960   4.861   0.396   5.260 -0.1421  0.1738 -0.1533
  148MOL    C8720961   4.822   0.450   5.123  0.2228 -0.2338 -0.4600
  148MOL    O8820962   4.779   0.586   5.124  0.7006 -0.2013 -0.1986
  148MOL    H8920963   4.773   0.387   5.325 -0.5997 -2.0323 -1.0416
  148MOL    H9020964   4.942   0.461   5.295 -1.1248  2.4760 -2.0219
  148MOL    H9120965   4.743   0.384   5.087  0.6263 -1.0986  0.2126
  148MOL    H9220966   4.706   0.594   5.064  0.0676 -1.7054  0.3425
  148MOL    C9320967   4.932   0.433   5.013  0.4081 -0.4578  0.2544
  148MOL    C9420968   5.065   0.515   5.044  0.0066  0.0407 -1.0454
  148MOL    O9520969   5.157   0.434   5.111 -0.3663 -0.4961 -1.0202
  148MOL    H9620970   4.950   0.329   4.985 -0.2924 -0.2762 -0.9018
  148MOL    H9720971   4.887   0.475   4.923  0.6170 -0.2101  0.2638
  148MOL    H9820972   5.057   0.604   5.108  3.8575  0.2324 -0.7426
  148MOL    H9920973   5.239   0.466   5.078  2.3848 -2.7783  3.1403
  148MOL   C10020974   5.135   0.550   4.914  1.0373  0.5248  0.1642
  148MOL   C10120975   5.266   0.625   4.935 -0.0923  0.4361  0.4611
  148MOL   O10220976   5.353   0.527   4.982  0.4644 -0.1002  0.4727
  148MOL   H10320977   5.143   0.455   4.860 -1.5783  1.2240 -1.5787
  148MOL   H10420978   5.072   0.611   4.850  0.7674  0.8233  0.7143
  148MOL   H10520979   5.258   0.702   5.012  0.5265  0.6486  0.3143
  148MOL   H10620980   5.413   0.563   5.046  2.2876  0.0277 -1.2738
  148MOL   C10720981   5.323   0.675   4.803  0.3045 -0.8192  0.0254
  148MOL   C10820982   5.466   0.726   4.807 -0.4209 -0.2863  0.0350
  148MOL   O10920983   5.496   0.765   4.673  0.3381  0.4216  0.0557
  148MOL   H11020984   5.327   0.595   4.729  1.3281  1.1838 -2.1887
  148MOL   H11120985   5.260   0.755   4.763 -1.2970 -2.0119  0.1461
  148MOL   H11220986   5.539   0.654   4.844  0.0289 -0.3381 -0.9480
  148MOL   H11320987   5.549   0.843   4.683  0.2080  0.4933  0.1868
  148MOL   C11420988   5.477   0.851   4.891  0.0369 -0.5266  0.2167
  148MOL   C11520989   5.617   0.907   4.913  0.0630 -1.2138  0.1047
  148MOL   O11620990   5.652   0.953   4.782 -0.4033 -0.7224  0.5278
  148MOL   H11720991   5.412   0.931   4.855  2.0413  2.0315  2.1217
  148MOL   H11820992   5.435   0.825   4.989  2.3137 -0.4351  1.2599
  148MOL   H11920993   5.683   0.822   4.933  0.7154 -1.1665 -1.6902
  148MOL   H12020994   5.738   0.991   4.774 -0.6562  0.0795  1.5103
  148MOL   C12120995   5.631   1.020   5.017  0.2231  0.0178  0.6017
  148MOL   C12220996   5.683   0.987   5.155  0.5297  0.2937 -0.3885
  148MOL   O12320997   5.582   0.910   5.220 -0.4448 -0.4066 -0.3065
  148MOL   H12420998   5.687   1.101   4.971 -2.1022  0.1345 -2.1710
  148MOL   H12520999   5.535   1.069   5.037 -0.0001 -0.2118  0.0919
  148MOL   H12621000   5.691   1.077   5.215  1.0977 -0.6195  0.9205
  148MOL   H12721001   5.589   0.913   5.314 -1.4351 -0.3054 -0.2299
  148MOL   C12821002   5.820   0.919   5.143 -0.6264 -0.2879 -0.7282
  148MOL   C12921003   5.897   0.932   5.272  0.2122 -0.0886  0.4061
  148MOL   O13021004   6.009   0.850   5.264 -0.1091 -0.6382  0.5981
  148MOL   H13121005   5.805   0.812   5.126  0.4699 -0.4860 -0.4990
  148MOL   H13221006   5.877   0.948   5.054  0.4845 -2.8571 -0.8956
  148MOL   H13321007   5.853   0.891   5.363 -0.4169 -3.2806 -1.2417
  148MOL   H13421008   5.969   0.765   5.257  0.0120 -0.6242 -0.4348
  148MOL   C13521009   5.951   1.079   5.298  0.1027 -0.5051  0.2239
  148MOL   C13621010   6.045   1.095   5.423  0.3787 -0.3541  0.6356
  148MOL   O13721011   6.098   1.227   5.428  0.2751  0.7290 -0.0204
  148MOL   H13821012   6.011   1.109   5.213 -1.3783 -0.1239 -0.6928
  148MOL   H13921013   5.862   1.139   5.313  0.0502 -0.7790  1.0816
  148MOL   H14021014   6.135   1.035   5.409 -1.0221 -2.1869 -0.7521
  148MOL   H14121015   6.183   1.220   5.387 -0.0251  1.3855 -0.7901
  148MOL   H14221016   5.996   1.066   5.516  1.4855 -2.7148  0.5354
  149MOL     C121017   4.439   3.152   1.568 -1.0278 -0.3680 -0.6259
  149MOL     C221018   4.443   3.106   1.716  0.1603  0.7193 -0.0479
  149MOL     O321019   4.309   3.115   1.769  0.2928  0.0364 -0.0167
  149MOL     H421020   4.410   3.256   1.559  1.5543  0.7038  2.6343
  149MOL     H521021   4.365   3.095   1.511 -0.9394  0.3864 -1.5197
  149MOL     H621022   4.514   3.162   1.777  2.0257  0.4291 -1.8659
  149MOL     H721023   4.312   3.088   1.859 -1.4486 -1.9825 -0.5247
  149MOL     H821024   4.536   3.144   1.519  0.2906  1.9249  1.5491
  149MOL     C921025   4.474   2.951   1.707 -0.3168  0.4924 -0.1971
  149MOL    C1021026   4.524   2.899   1.843 -0.2368  0.0935  0.1143
  149MOL    O1121027   4.428   2.922   1.950  0.7504  0.0630  0.4690
  149MOL    H1221028   4.384   2.895   1.678 -0.1584  1.0165 -1.7509
  149MOL    H1321029   4.548   2.947   1.627 -0.2189  0.1878 -0.0904
  149MOL    H1421030   4.617   2.954   1.853 -0.9528  1.2492  0.4748
  149MOL    H1521031   4.474   2.956   2.025 -0.7298  1.5499  0.7350
  149MOL    C1621032   4.558   2.748   1.849  0.5510 -0.0612 -0.4971
  149MOL    C1721033   4.651   2.687   1.744  0.6778  0.3056 -0.1478
  149MOL    O1821034   4.777   2.747   1.767 -0.6512 -0.3425 -0.2632
  149MOL    H1921035   4.584   2.721   1.952 -0.9966  1.5104  0.3396
  149MOL    H2021036   4.459   2.707   1.829  1.3013 -0.9384 -2.4939
  149MOL    H2121037   4.629   2.722   1.643  0.4170  0.6403  0.0256
  149MOL    H2221038   4.837   2.703   1.709  0.1188  0.5036 -0.1186
  149MOL    C2321039   4.662   2.530   1.768  0.3439  0.4560 -0.2084
  149MOL    C2421040   4.544   2.446   1.716  0.4545 -0.3545  0.4610
  149MOL    O2521041   4.560   2.444   1.574  0.2507 -0.3802  0.1431
  149MOL    H2621042   4.754   2.487   1.727  0.5643  0.8671 -0.1512
  149MOL    H2721043   4.666   2.530   1.877 -2.8132 -0.6560 -0.0633
  149MOL    H2821044   4.445   2.483   1.745  0.5137 -0.0993  0.3365
  149MOL    H2921045   4.643   2.483   1.551  0.5093 -1.2111 -0.3677
  149MOL    C3021046   4.552   2.302   1.770 -0.4759 -0.6848 -0.7265
  149MOL    C3121047   4.446   2.200   1.723 -0.0618 -0.0817  0.0130
  149MOL    O3221048   4.490   2.074   1.770 -0.6775 -0.1568  0.2022
  149MOL    H3321049   4.644   2.251   1.740  0.3102  1.0335 -1.2688
  149MOL    H3421050   4.549   2.307   1.879  1.9010 -0.1282 -0.6464
  149MOL    H3521051   4.450   2.200   1.614  0.2478  0.7627  0.0216
  149MOL    H3621052   4.509   2.066   1.862 -0.7030 -0.7238  0.1591
  149MOL    C3721053   4.302   2.223   1.761  0.8315 -0.6317 -0.2733
  149MOL    C3821054   4.198   2.124   1.702  0.6223 -0.3322  0.2807
  149MOL    O3921055   4.083   2.137   1.786 -0.6890 -0.3919 -0.1730
  149MOL    H4021056   4.297   2.219   1.870  1.2857 -0.5495 -0.2496
  149MOL    H4121057   4.271   2.326   1.740 -3.6396 -1.7942  0.1697
  149MOL    H4221058   4.236   2.023   1.716  0.9711 -0.4468 -1.3632
  149MOL    H4321059   4.029   2.061   1.770  0.9303 -1.5726 -0.0673
  149MOL    C4421060   4.168   2.132   1.543  0.1712 -0.4391  0.4428
  149MOL    C4521061   4.097   2.012   1.487  0.0838 -0.1297 -0.5481
  149MOL    O4621062   3.993   2.047   1.394  0.2592  0.1984 -0.1832
  149MOL    H4721063   4.106   2.221   1.531  0.8234 -0.1131 -0.5317
  149MOL    H4821064   4.257   2.161   1.487  0.5384 -1.0183  0.7267
  149MOL    H4921065   4.059   1.936   1.554 -0.2279 -0.6556 -1.3134
  149MOL    H5021066   3.932   1.977   1.377  0.4737 -0.1192  0.3602
  149MOL    C5121067   4.199   1.930   1.409  0.3016  0.0309 -0.3059
  149MOL    C5221068   4.150   1.794   1.365 -0.2964  0.6079 -0.2705
  149MOL    O5321069   4.184   1.778   1.232  0.2569  0.0890 -0.1518
  149MOL    H5421070   4.232   1.983   1.321 -0.3907  0.0395 -0.5623
  149MOL    H5521071   4.296   1.922   1.458 -0.0957  0.8444  0.6299
  149MOL    H5621072   4.041   1.786   1.366 -0.2474 -0.5657  3.3739
  149MOL    H5721073   4.157   1.856   1.185  1.7199  0.5669 -0.2309
  149MOL    C5821074   4.213   1.680   1.442 -0.2246  0.2955 -0.4704
  149MOL    C5921075   4.181   1.667   1.598 -0.2158  0.3468  0.1259
  149MOL    O6021076   4.052   1.615   1.612 -0.3586 -0.3623 -0.4510
  149MOL    H6121077   4.186   1.584   1.398 -0.2450 -0.3178  0.8556
  149MOL    H6221078   4.321   1.681   1.431  0.1098 -0.8588  2.2737
  149MOL    H6321079   4.190   1.763   1.649 -1.2272  1.4320 -1.6886
  149MOL    H6421080   4.053   1.579   1.699 -0.5347  0.1004 -0.2607
  149MOL    C6521081   4.270   1.570   1.673 -0.8352 -0.1236  0.1499
  149MOL    C6621082   4.265   1.578   1.829  0.2141 -0.3920  0.0454
  149MOL    O6721083   4.140   1.534   1.873 -0.5454  0.9666  0.4785
  149MOL    H6821084   4.260   1.468   1.637 -0.5480 -0.4633  1.0248
  149MOL    H6921085   4.372   1.594   1.643  0.0382 -0.9098  2.4280
  149MOL    H7021086   4.286   1.679   1.863  0.9183 -0.7001  0.5537
  149MOL    H7121087   4.139   1.440   1.865 -0.5400  0.8254  2.0730
  149MOL    C7221088   4.358   1.496   1.926  0.8097  0.5331  0.2312
  149MOL    C7321089   4.505   1.548   1.933  0.4497  0.0233  0.2156
  149MOL    O7421090   4.571   1.512   2.053 -0.5197 -0.4239 -0.1901
  149MOL    H7521091   4.315   1.498   2.026  1.7159  1.1112  0.6087
  149MOL    H7621092   4.344   1.390   1.903 -0.1822  1.0752 -1.7579
  149MOL    H7721093   4.503   1.657   1.928  1.8002  0.0889  0.8181
  149MOL    H7821094   4.534   1.555   2.128  1.7578  0.8656  0.2219
  149MOL    C7921095   4.578   1.472   1.824  0.0685  0.0680 -0.4981
  149MOL    C8021096   4.728   1.504   1.795  0.5548 -0.8578  0.7119
  149MOL    O8121097   4.773   1.402   1.709  0.8739  0.4555 -0.6287
  149MOL    H8221098   4.569   1.364   1.841  0.8396 -0.1601 -1.5127
  149MOL    H8321099   4.531   1.490   1.728  1.2741  0.4481 -1.0101
  149MOL    H8421100   4.784   1.494   1.889  0.0867  1.0165  1.2088
  149MOL    H8521101   4.697   1.363   1.668  2.9203 -2.7713 -1.4914
  149MOL    C8621102   4.760   1.632   1.717  0.8286 -0.6373 -0.0818
  149MOL    C8721103   4.723   1.775   1.768 -0.0967 -0.4911  0.5506
  149MOL    O8821104   4.781   1.802   1.892 -0.4165 -0.2569  0.4941
  149MOL    H8921105   4.867   1.640   1.699  0.5256 -0.7979 -2.1176
  149MOL    H9021106   4.707   1.619   1.623  1.2306 -1.4076 -0.2019
  149MOL    H9121107   4.615   1.789   1.774 -0.1426 -0.9705  0.8535
  149MOL    H9221108   4.874   1.782   1.899 -0.3250  0.5497  1.7743
  149MOL    C9321109   4.750   1.891   1.668  0.0625 -0.7003 -0.1112
  149MOL    C9421110   4.673   1.900   1.534  1.1024  0.3381  0.0625
  149MOL    O9521111   4.533   1.905   1.554  0.4120  0.0567 -0.0927
  149MOL    H9621112   4.736   1.982   1.727  2.2177 -0.4249 -0.0070
  149MOL    H9721113   4.857   1.905   1.655  0.0922  0.3804  1.1051
  149MOL    H9821114   4.698   1.814   1.472 -0.9629 -1.2893  1.4340
  149MOL    H9921115   4.512   1.979   1.609 -1.4179 -1.7175  1.6591
  149MOL   C10021116   4.704   2.029   1.450  0.2534 -0.6093  0.1207
  149MOL   C10121117   4.625   2.063   1.325 -0.4952 -1.0212 -0.6568
  149MOL   O10221118   4.665   2.196   1.291 -0.3312  0.1211  0.2068
  149MOL   H10321119   4.695   2.108   1.524  1.9333 -1.2545  1.0414
  149MOL   H10421120   4.810   2.033   1.425  0.2420 -2.1074 -0.2603
  149MOL   H10521121   4.521   2.077   1.354  0.4789  0.5862  2.1664
  149MOL   H10621122   4.673   2.250   1.369  2.0578 -0.5932  0.5137
  149MOL   C10721123   4.642   1.968   1.203  0.3681  0.3214 -1.0585
  149MOL   C10821124   4.552   2.003   1.084  0.3335  0.0980  0.4450
  149MOL   O10921125   4.586   2.137   1.051  0.1036  0.0970 -0.3726
  149MOL   H11021126   4.747   1.969   1.173  0.4921  0.3393 -0.6180
  149MOL   H11121127   4.622   1.863   1.226  1.2074  0.2768 -0.4988
  149MOL   H11221128   4.444   1.994   1.101  0.3814 -3.8050 -0.8478
  149MOL   H11321129   4.610   2.171   1.136 -0.1545 -1.1134  0.1952
  149MOL   C11421130   4.586   1.903   0.968 -0.2188  0.2767 -0.3240
  149MOL   C11521131   4.490   1.933   0.853  0.2729 -0.2199  0.3383
  149MOL   O11621132   4.551   1.870   0.741  0.1937  1.1066 -0.1906
  149MOL   H11721133   4.684   1.924   0.924 -0.4094 -4.0893 -3.1357
  149MOL   H11821134   4.575   1.799   0.998  1.0402 -0.0198 -0.8617
  149MOL   H11921135   4.489   2.040   0.838  1.2579 -0.1785  0.5272
  149MOL   H12021136   4.614   1.932   0.707  1.2435 -0.6349 -1.4637
  149MOL   C12121137   4.349   1.876   0.868 -0.2499 -0.3262 -0.6473
  149MOL   C12221138   4.255   1.918   0.757  0.2355 -0.1688  0.0114
  149MOL   O12321139   4.136   1.841   0.784  0.3243 -0.2173  0.3830
  149MOL   H12421140   4.356   1.767   0.873 -2.1898 -0.5301 -2.0746
  149MOL   H12521141   4.309   1.914   0.962 -3.6258  0.5676 -2.3822
  149MOL   H12621142   4.293   1.895   0.658 -1.7861  0.5018 -0.9670
  149MOL   H12721143   4.161   1.755   0.754 -1.5883 -0.8234  0.4651
  149MOL   C12821144   4.214   2.069   0.752  0.0738  0.4729 -0.4486
  149MOL   C12921145   4.179   2.116   0.616  0.1007 -0.5171 -0.5517
  149MOL   O13021146   4.288   2.102   0.526  0.0372  0.3265 -0.4829
  149MOL   H13121147   4.129   2.082   0.819  1.2672  0.0428  1.1648
  149MOL   H13221148   4.285   2.139   0.797 -0.5100  0.6055  0.2736
  149MOL   H13321149   4.153   2.220   0.633  0.5050 -0.6489  0.9205
  149MOL   H13421150   4.352   2.158   0.566  0.5715 -0.9674  0.4925
  149MOL   C13521151   4.049   2.056   0.549 -0.9477  0.0441  0.1995
  149MOL   C13621152   3.986   2.152   0.456  0.0932  0.2528 -0.5214
  149MOL   O13721153   3.891   2.094   0.366 -0.0862  0.2468 -0.0300
  149MOL   H13821154   4.082   1.959   0.511  0.6475  0.7350 -0.2001
  149MOL   H13921155   3.981   2.026   0.629 -0.2664  0.1702  0.8320
  149MOL   H14021156   4.063   2.201   0.396  1.1290  0.3511  0.8494
  149MOL   H14121157   3.804   2.097   0.403 -0.1402  1.4656 -0.2379
  149MOL   H14221158   3.940   2.233   0.512  2.2525  0.8402  0.4826
  150MOL     C121159   6.036   3.014   4.806  0.2240  0.1995 -0.4655
  150MOL     C221160   5.917   2.911   4.806 -0.4585 -0.1739  0.6855
  150MOL     O321161   5.844   2.962   4.703  0.5921  0.3916  0.7635
  150MOL     H421162   6.083   3.018   4.708 -0.4053 -2.5831 -0.9367
  150MOL     H521163   6.119   2.983   4.871  0.1066 -0.6825 -0.7218
  150MOL     H621164   5.855   2.918   4.895 -0.5178 -1.0777  0.7206
  150MOL     H721165   5.756   2.983   4.731  0.6470  0.3753  0.9459
  150MOL     H821166   6.008   3.113   4.841  2.2137  0.4464  0.4970
  150MOL     C921167   5.954   2.763   4.784  0.1603 -0.1259  0.3612
  150MOL    C1021168   6.052   2.691   4.880 -0.2553  0.2185 -0.6098
  150MOL    O1121169   5.990   2.690   5.004  0.4633 -0.0441  0.2079
  150MOL    H1221170   5.859   2.710   4.789 -0.9393  1.8006  0.4059
  150MOL    H1321171   5.994   2.763   4.682 -1.0056 -2.3076 -0.1396
  150MOL    H1421172   6.151   2.736   4.891 -0.2794  0.1574 -0.1360
  150MOL    H1521173   5.976   2.775   5.042  1.5522 -0.4139  1.4845
  150MOL    C1621174   6.081   2.544   4.841 -0.2541 -0.2138 -0.4901
  150MOL    C1721175   6.159   2.531   4.705  0.2004 -0.3064 -0.1889
  150MOL    O1821176   6.075   2.550   4.587 -0.4879  0.2697 -0.1940
  150MOL    H1921177   6.141   2.486   4.911  1.3193  0.8368 -0.9434
  150MOL    H2021178   5.994   2.482   4.820  0.4550 -0.9724 -1.2191
  150MOL    H2121179   6.189   2.427   4.701 -0.7694 -0.5232 -1.7404
  150MOL    H2221180   6.129   2.526   4.513 -0.7083  0.9565 -0.5856
  150MOL    C2321181   6.291   2.611   4.690 -0.1667 -0.1702 -0.0813
  150MOL    C2421182   6.395   2.578   4.795 -0.6353 -0.6662  0.1708
  150MOL    O2521183   6.436   2.438   4.798 -0.0890 -0.2461 -0.1716
  150MOL    H2621184   6.345   2.583   4.599  0.6823 -1.0792  0.6957
  150MOL    H2721185   6.268   2.716   4.704 -1.4380 -0.2760 -1.1938
  150MOL    H2821186   6.356   2.594   4.896 -1.2767 -0.1869 -0.1535
  150MOL    H2921187   6.458   2.393   4.718  0.7082  0.7495 -0.5184
  150MOL    C3021188   6.526   2.655   4.792  0.1778  0.0528  1.2810
  150MOL    C3121189   6.522   2.810   4.773 -0.5160 -0.2367  0.6287
  150MOL    O3221190   6.634   2.843   4.850 -0.0731  0.4204  0.5655
  150MOL    H3321191   6.591   2.621   4.873  0.1488 -1.3800  0.7159
  150MOL    H3421192   6.579   2.614   4.706 -0.9912  1.2328 -0.0183
  150MOL    H3521193   6.435   2.864   4.811 -2.7280 -3.1656 -0.0990
  150MOL    H3621194   6.716   2.814   4.814 -0.3874 -1.2977  1.1917
  150MOL    C3721195   6.551   2.841   4.625 -0.6795 -0.3015  0.1638
  150MOL    C3821196   6.559   2.983   4.586  0.4766  0.3164 -0.5255
  150MOL    O3921197   6.580   2.990   4.443  0.0222  0.0263  0.1624
  150MOL    H4021198   6.647   2.794   4.605 -0.1419  0.0111  1.9959
  150MOL    H4121199   6.476   2.796   4.560  0.7702 -1.3223 -0.8524
  150MOL    H4221200   6.640   3.036   4.637  0.0232 -0.4809  1.0658
  150MOL    H4321201   6.563   3.079   4.418 -1.0193 -0.1110  0.3762
  150MOL    C4421202   6.441   3.067   4.612  0.5594 -0.4279  0.2479
  150MOL    C4521203   6.468   3.227   4.589  0.4113 -0.5401 -0.5715
  150MOL    O4621204   6.486   3.238   4.452 -0.4521 -0.3117  0.4798
  150MOL    H4721205   6.348   3.035   4.566  1.9228 -1.1062 -2.1320
  150MOL    H4821206   6.420   3.057   4.719  0.4022 -1.6608  0.1172
  150MOL    H4921207   6.567   3.258   4.624 -0.5904  1.1137  0.8807
  150MOL    H5021208   6.510   3.327   4.431  0.9347 -0.7937 -0.0133
  150MOL    C5121209   6.343   3.321   4.622 -0.0281 -0.3423  0.6255
  150MOL    C5221210   6.351   3.364   4.767 -0.3453  0.1019  0.4190
  150MOL    O5321211   6.412   3.489   4.790 -0.4190  0.4867  0.0410
  150MOL    H5421212   6.342   3.403   4.550 -0.1856 -0.6927  0.2250
  150MOL    H5521213   6.250   3.267   4.604 -0.6594  0.1385  2.4024
  150MOL    H5621214   6.398   3.282   4.821  0.4236  0.4412  0.2725
  150MOL    H5721215   6.358   3.549   4.742  2.1176  2.0264 -0.9783
  150MOL    C5821216   6.210   3.367   4.836  0.9223  0.2669  0.2808
  150MOL    C5921217   6.210   3.375   4.988 -0.2072 -0.4929 -0.5979
  150MOL    O6021218   6.087   3.430   5.039 -0.1284  0.2435  0.0556
  150MOL    H6121219   6.139   3.436   4.791 -0.9416 -1.6682  0.1869
  150MOL    H6221220   6.161   3.273   4.814  2.1392 -0.3596  0.1746
  150MOL    H6321221   6.288   3.444   5.021  1.8918 -3.7741  1.6936
  150MOL    H6421222   6.081   3.522   5.017 -0.5558  1.2095  3.9207
  150MOL    C6521223   6.238   3.241   5.069  0.4828  0.2213 -0.3153
  150MOL    C6621224   6.273   3.263   5.220  0.0284  1.1312  0.4948
  150MOL    O6721225   6.160   3.305   5.289  0.6958 -0.4695 -0.3529
  150MOL    H6821226   6.159   3.166   5.060 -1.1962  2.0426 -1.2053
  150MOL    H6921227   6.319   3.191   5.016  0.7275 -1.1656  1.3313
  150MOL    H7021228   6.355   3.334   5.230  2.0197 -1.1167  0.4186
  150MOL    H7121229   6.097   3.339   5.227 -0.2984  1.2651  1.5709
  150MOL    C7221230   6.315   3.128   5.294 -0.1187  0.2996 -0.4166
  150MOL    C7321231   6.468   3.106   5.299  0.5838  0.0997 -0.4798
  150MOL    O7421232   6.471   2.989   5.375 -0.0150 -0.0585  0.0840
  150MOL    H7521233   6.271   3.129   5.394  1.2311 -0.4164  0.2048
  150MOL    H7621234   6.273   3.051   5.230 -0.0261  0.4242 -0.6299
  150MOL    H7721235   6.510   3.187   5.359  0.4334  1.1221 -1.7412
  150MOL    H7821236   6.413   3.002   5.448 -1.3417 -0.5880 -0.8660
  150MOL    C7921237   6.546   3.089   5.167  0.6229  0.3912 -0.0293
  150MOL    C8021238   6.687   3.032   5.184  0.3263 -0.3206  0.0754
  150MOL    O8121239   6.740   3.014   5.052 -0.2269 -0.0129  0.0975
  150MOL    H8221240   6.491   3.026   5.097  0.3179  0.9795 -0.3274
  150MOL    H8321241   6.555   3.190   5.127  1.7958  0.7401  1.0783
  150MOL    H8421242   6.688   2.931   5.225 -0.6472 -1.0189 -1.5586
  150MOL    H8521243   6.691   2.959   4.993 -2.2363 -0.1530  1.8452
  150MOL    C8621244   6.786   3.132   5.259  0.9590  0.3828 -0.0072
  150MOL    C8721245   6.858   3.080   5.383  1.1171  0.1437  0.2559
  150MOL    O8821246   6.977   3.150   5.422 -0.0044  0.0190  0.8042
  150MOL    H8921247   6.859   3.168   5.187  0.0957  2.1846 -0.0280
  150MOL    H9021248   6.727   3.222   5.280  0.5166 -0.3921  2.2876
  150MOL    H9121249   6.889   2.980   5.351 -0.5134 -0.5671  0.8405
  150MOL    H9221250   7.040   3.110   5.364 -0.0045  0.9071  0.1742
  150MOL    C9321251   6.767   3.065   5.507 -0.1478  0.1390 -0.1629
  150MOL    C9421252   6.835   2.985   5.630 -0.5865 -0.5015  0.2582
  150MOL    O9521253   6.753   3.002   5.735 -0.5612  0.6181  0.0119
  150MOL    H9621254   6.738   3.167   5.532 -1.5145 -0.0445 -0.9463
  150MOL    H9721255   6.679   3.008   5.478  0.2986  0.0487 -1.3580
  150MOL    H9821256   6.928   3.030   5.664 -0.7785 -0.5889  0.8980
  150MOL    H9921257   6.781   2.948   5.807 -0.7671  2.6199  1.6533
  150MOL   C10021258   6.868   2.835   5.614 -0.5903  1.0625 -0.0827
  150MOL   C10121259   6.748   2.739   5.601 -0.2775  0.1800 -0.9767
  150MOL   O10221260   6.671   2.760   5.482 -0.1802  0.5997  0.0118
  150MOL   H10321261   6.944   2.816   5.538  0.4740 -0.7323  1.3712
  150MOL   H10421262   6.937   2.812   5.696 -3.1200  0.4689  1.9220
  150MOL   H10521263   6.677   2.750   5.682  1.7704  2.1754  0.5900
  150MOL   H10621264   6.617   2.836   5.498  2.0117  2.6472 -1.9347
  150MOL   C10721265   6.799   2.590   5.606  0.1277 -0.0057 -0.8018
  150MOL   C10821266   6.700   2.475   5.602  0.1522  0.3439 -0.0971
  150MOL   O10921267   6.772   2.360   5.640 -0.0441  0.2249 -0.3609
  150MOL   H11021268   6.879   2.573   5.534  0.7529 -0.5164  0.0061
  150MOL   H11121269   6.843   2.568   5.703 -0.8708  1.4251 -0.0020
  150MOL   H11221270   6.671   2.466   5.497  0.0675 -1.5084  0.0654
  150MOL   H11321271   6.828   2.333   5.569 -0.0680 -1.6207  0.2702
  150MOL   C11421272   6.569   2.487   5.690 -0.8162 -0.6929  0.1925
  150MOL   C11521273   6.486   2.358   5.697  0.1534  0.4813 -0.5540
  150MOL   O11621274   6.377   2.361   5.793  0.1061  0.1251 -0.1378
  150MOL   H11721275   6.597   2.518   5.791 -0.3790  0.0682 -0.1624
  150MOL   H11821276   6.509   2.574   5.666  0.4763 -0.3899 -2.0304
  150MOL   H11921277   6.562   2.291   5.737 -1.3275  0.1905  1.8624
  150MOL   H12021278   6.352   2.271   5.805 -0.5643  0.4454  0.9120
  150MOL   C12121279   6.432   2.310   5.560 -0.3379  0.1148 -0.1233
  150MOL   C12221280   6.442   2.162   5.521  0.5970 -0.1865  0.4235
  150MOL   O12321281   6.394   2.160   5.391 -0.0687 -0.1524  0.3688
  150MOL   H12421282   6.333   2.355   5.553 -0.8461 -0.9179  0.2483
  150MOL   H12521283   6.490   2.357   5.480  1.2070 -0.7999  0.4507
  150MOL   H12621284   6.378   2.094   5.578  1.3499 -1.7934 -0.6022
  150MOL   H12721285   6.300   2.170   5.399  0.1906  1.6325  1.3577
  150MOL   C12821286   6.583   2.102   5.521 -0.1298  0.1399 -0.6315
  150MOL   C12921287   6.600   1.944   5.517 -0.0698 -0.4645  0.0829
  150MOL   O13021288   6.548   1.916   5.388  0.2542  0.5971 -0.1126
  150MOL   H13121289   6.649   2.153   5.450  0.5329  1.0430  0.6104
  150MOL   H13221290   6.622   2.133   5.618  2.7151  0.6340 -1.8997
  150MOL   H13321291   6.540   1.895   5.593 -1.8548  0.4488 -0.6959
  150MOL   H13421292   6.497   1.987   5.354 -2.1916 -0.9003  0.3147
  150MOL   C13521293   6.734   1.869   5.538 -0.1478 -0.2405  0.3347
  150MOL   C13621294   6.820   1.902   5.660 -0.1215 -0.0164 -0.0120
  150MOL   O13721295   6.929   1.817   5.671 -0.4692 -0.2492 -0.2023
  150MOL   H13821296   6.708   1.765   5.556 -0.4016 -0.1350  0.5927
  150MOL   H13921297   6.795   1.874   5.448  0.1118 -0.2743  0.5110
  150MOL   H14021298   6.764   1.897   5.754  1.8355  0.4922  1.2021
  150MOL   H14121299   6.999   1.836   5.610  0.7379 -0.7808  0.9956
  150MOL   H14221300   6.864   2.000   5.643 -0.4788  0.2684  0.6354
  151MOL     C121301   6.519   6.566   1.246 -0.1149  0.4949 -0.2790
  151MOL     C221302   6.566   6.419   1.285  0.8197 -0.0365  0.2284
  151MOL     O321303   6.579   6.338   1.170 -0.1937 -0.0944  0.0393
  151MOL     H421304   6.451   6.569   1.160  0.8178  0.1410 -1.0335
  151MOL     H521305   6.602   6.632   1.223  0.9789 -0.8521 -0.2688
  151MOL     H621306   6.491   6.367   1.345  1.5149 -1.5811 -0.2045
  151MOL     H721307   6.595   6.248   1.194  3.8055  0.8278  1.2016
  151MOL     H821308   6.461   6.607   1.329 -2.0933  0.4206 -1.5731
  151MOL     C921309   6.702   6.430   1.357 -0.3408 -0.1486 -0.6609
  151MOL    C1021310   6.703   6.418   1.509  0.0267 -0.4861 -0.4781
  151MOL    O1121311   6.836   6.403   1.555  0.6285  0.4577 -0.0094
  151MOL    H1221312   6.758   6.344   1.321  1.9766  0.2662  1.7552
  151MOL    H1321313   6.758   6.516   1.318  0.6297 -0.0284  0.9496
  151MOL    H1421314   6.642   6.333   1.542  0.1298 -0.4938 -0.3014
  151MOL    H1521315   6.839   6.403   1.649  0.8619 -2.0923  0.0314
  151MOL    C1621316   6.663   6.554   1.574  0.5009 -0.9412  0.4437
  151MOL    C1721317   6.572   6.534   1.692  0.3620 -0.2152 -0.4116
  151MOL    O1821318   6.575   6.662   1.749  0.0030 -0.1388 -0.4930
  151MOL    H1921319   6.751   6.611   1.602 -0.3801  0.5104  0.2709
  151MOL    H2021320   6.614   6.608   1.493  1.0567 -0.5317  0.3771
  151MOL    H2121321   6.609   6.457   1.759 -0.4582 -0.2466  0.0173
  151MOL    H2221322   6.645   6.663   1.813 -1.0002 -0.9953  0.6480
  151MOL    C2321323   6.424   6.510   1.657 -0.3420  0.0859  0.5487
  151MOL    C2421324   6.342   6.494   1.787 -0.0476 -0.2368 -0.1644
  151MOL    O2521325   6.210   6.454   1.740 -0.0628  0.0899  0.1571
  151MOL    H2621326   6.390   6.603   1.610 -1.7489 -0.3770  0.6143
  151MOL    H2721327   6.399   6.437   1.581 -2.2708  1.3525 -0.0736
  151MOL    H2821328   6.339   6.591   1.836 -0.2239  1.5817 -3.6662
  151MOL    H2921329   6.158   6.435   1.817  0.6959 -0.7932  0.4663
  151MOL    C3021330   6.396   6.383   1.892  0.4836 -0.3588 -0.5586
  151MOL    C3121331   6.485   6.432   2.006  0.0884  0.2438 -0.8576
  151MOL    O3221332   6.415   6.521   2.085 -0.4178 -0.5958 -0.4371
  151MOL    H3321333   6.310   6.331   1.935 -0.4097  1.1738 -0.4401
  151MOL    H3421334   6.445   6.306   1.833 -0.7265 -2.0417  0.5727
  151MOL    H3521335   6.570   6.482   1.959 -0.5722  3.2045  0.9549
  151MOL    H3621336   6.361   6.476   2.147  1.4777 -2.4707 -0.1039
  151MOL    C3721337   6.543   6.323   2.096 -0.1817 -0.4094 -0.3110
  151MOL    C3821338   6.664   6.245   2.042 -0.5274 -0.8627  0.1589
  151MOL    O3921339   6.786   6.305   2.083  0.5640  0.4750 -0.5331
  151MOL    H4021340   6.571   6.365   2.193 -0.6939  1.3144 -0.8901
  151MOL    H4121341   6.463   6.250   2.108 -1.1156  0.7543  0.8374
  151MOL    H4221342   6.652   6.256   1.934 -1.4290  0.0040  0.3399
  151MOL    H4321343   6.819   6.254   2.155 -1.8884 -0.0236  0.2865
  151MOL    C4421344   6.674   6.097   2.074 -0.1991  0.4228  0.1872
  151MOL    C4521345   6.788   6.017   2.004  0.5371 -0.5669 -0.5571
  151MOL    O4621346   6.859   5.949   2.106 -0.5192 -0.2680 -0.0008
  151MOL    H4721347   6.678   6.088   2.182  0.3028  2.5280  0.3640
  151MOL    H4821348   6.582   6.041   2.059  0.7529 -1.2260  0.4374
  151MOL    H4921349   6.853   6.085   1.948 -1.7301  1.1371 -1.1805
  151MOL    H5021350   6.941   5.926   2.065 -0.6457  0.1083 -0.4770
  151MOL    C5121351   6.720   5.903   1.921 -0.0740  0.6166  0.2622
  151MOL    C5221352   6.682   5.923   1.775  0.4642 -0.7430 -0.2518
  151MOL    O5321353   6.616   5.799   1.732 -0.5372 -0.2987 -0.2632
  151MOL    H5421354   6.797   5.827   1.906  0.6600  1.6608 -1.3847
  151MOL    H5521355   6.655   5.844   1.986 -0.3194  0.8651  0.2459
  151MOL    H5621356   6.774   5.936   1.718  0.6321  1.2591  0.4212
  151MOL    H5721357   6.638   5.729   1.792  0.9265 -3.5461 -4.3563
  151MOL    C5821358   6.585   6.042   1.742 -0.1838  0.1346 -0.0263
  151MOL    C5921359   6.527   6.036   1.596 -0.8188  1.4585 -0.1348
  151MOL    O6021360   6.450   6.152   1.592 -0.2710 -0.5346  0.5355
  151MOL    H6121361   6.496   6.058   1.803  1.0778  3.0445  1.1272
  151MOL    H6221362   6.648   6.131   1.741 -0.7345  0.5955 -4.0704
  151MOL    H6321363   6.462   5.949   1.587  0.0661  0.9885 -2.4935
  151MOL    H6421364   6.371   6.148   1.643 -0.0230 -1.2669  0.8816
  151MOL    C6521365   6.626   6.043   1.476  0.3513  0.1788  0.7119
  151MOL    C6621366   6.558   6.057   1.336 -0.3962 -0.7844  0.5414
  151MOL    O6721367   6.667   6.087   1.257  0.0385  0.0316 -0.7156
  151MOL    H6821368   6.688   6.127   1.508  2.2324 -0.2218 -1.7734
  151MOL    H6921369   6.696   5.959   1.477 -3.1655 -2.8975 -1.6388
  151MOL    H7021370   6.489   6.142   1.338  0.1113 -0.3097 -1.1610
  151MOL    H7121371   6.721   6.010   1.267 -0.0978 -0.2866 -2.3231
  151MOL    C7221372   6.483   5.931   1.293  0.1224  0.1612 -0.1647
  151MOL    C7321373   6.374   5.938   1.181  0.0318  0.1781 -0.2063
  151MOL    O7421374   6.344   5.797   1.151  0.3054 -0.5594  0.2942
  151MOL    H7521375   6.556   5.852   1.276 -1.4898 -1.0554 -1.6011
  151MOL    H7621376   6.432   5.893   1.381  0.1294 -0.0540 -0.2545
  151MOL    H7721377   6.416   5.989   1.095  0.1437  1.1557  0.4314
  151MOL    H7821378   6.279   5.806   1.083  0.9191 -0.2333 -0.2473
  151MOL    C7921379   6.252   6.017   1.227  0.2764  0.6255 -0.1872
  151MOL    C8021380   6.144   6.071   1.124  0.0811 -0.1723 -0.0745
  151MOL    O8121381   6.042   5.979   1.100 -0.4209 -1.1382 -0.0158
  151MOL    H8221382   6.199   5.981   1.316  3.8526 -0.9222  1.3919
  151MOL    H8321383   6.296   6.111   1.260 -1.2450  0.5769  2.1568
  151MOL    H8421384   6.183   6.089   1.023 -1.2344  2.4266 -0.1638
  151MOL    H8521385   6.043   5.966   1.006  0.6065  0.2770 -0.2137
  151MOL    C8621386   6.069   6.198   1.161 -0.1243  0.1584  0.3411
  151MOL    C8721387   6.157   6.328   1.135 -0.6195  0.5599 -0.4597
  151MOL    O8821388   6.161   6.345   0.997 -0.3537  0.7620  0.4772
  151MOL    H8921389   5.979   6.216   1.102  0.3849  1.9744  0.0942
  151MOL    H9021390   6.032   6.191   1.263  1.7458  0.7540  1.0725
  151MOL    H9121391   6.261   6.320   1.166 -0.3895  3.9662 -0.0956
  151MOL    H9221392   6.252   6.358   0.976  0.1292  0.2411  2.1766
  151MOL    C9321393   6.094   6.459   1.198  0.0917  0.3756 -0.2362
  151MOL    C9421394   6.092   6.473   1.356 -0.0291  0.0581  0.1121
  151MOL    O9521395   6.222   6.472   1.407 -0.2609  0.0094 -0.4237
  151MOL    H9621396   6.170   6.533   1.175 -1.2486  1.8402  0.0095
  151MOL    H9721397   6.004   6.496   1.148  0.1912  0.7834 -0.1124
  151MOL    H9821398   6.030   6.390   1.390 -1.8020  1.4002  0.1982
  151MOL    H9921399   6.219   6.515   1.492  1.9089  0.4586 -0.5427
  151MOL   C10021400   6.028   6.602   1.398 -0.8244  0.3342 -0.5645
  151MOL   C10121401   6.010   6.617   1.544 -0.0651  0.4712  0.1336
  151MOL   O10221402   6.141   6.661   1.589 -0.0300  0.0763 -0.1570
  151MOL   H10321403   6.076   6.686   1.349 -1.2809  0.4458 -0.8240
  151MOL   H10421404   5.925   6.601   1.362 -1.0031  1.2180 -0.0923
  151MOL   H10521405   5.990   6.516   1.581 -2.2049  0.6096 -0.5787
  151MOL   H10621406   6.172   6.590   1.644 -1.5854  0.8577  1.8203
  151MOL   C10721407   5.901   6.722   1.582 -0.2605 -0.2811  0.3518
  151MOL   C10821408   5.871   6.729   1.733  0.6931  0.1576  0.4839
  151MOL   O10921409   5.968   6.812   1.784 -0.3483  0.2389 -0.6048
  151MOL   H11021410   5.919   6.823   1.544  2.0511 -1.0315 -0.6511
  151MOL   H11121411   5.810   6.705   1.526  0.2109  0.2385 -0.5886
  151MOL   H11221412   5.887   6.637   1.789  0.3484  0.8543  1.7436
  151MOL   H11321413   6.048   6.773   1.755 -1.2774 -0.7749 -1.8746
  151MOL   C11421414   5.739   6.811   1.756  0.3440  0.2099 -0.0298
  151MOL   C11521415   5.689   6.804   1.901  0.5277  0.2159 -0.0319
  151MOL   O11621416   5.788   6.859   1.980  0.0274 -0.4733 -0.8173
  151MOL   H11721417   5.747   6.914   1.720  1.7043  0.2733  0.4318
  151MOL   H11821418   5.654   6.768   1.703 -0.4289  0.7815  0.7183
  151MOL   H11921419   5.694   6.699   1.930 -1.8363 -0.0397 -0.4727
  151MOL   H12021420   5.864   6.874   1.926 -0.2638  1.9948 -0.6070
  151MOL   C12121421   5.549   6.852   1.931 -0.7123  0.4003 -0.9246
  151MOL   C12221422   5.436   6.806   1.834  0.3864 -0.3769  0.0207
  151MOL   O12321423   5.425   6.667   1.829 -0.1816 -0.1993  0.5601
  151MOL   H12421424   5.532   6.809   2.030  0.2306  0.5471 -0.6980
  151MOL   H12521425   5.548   6.961   1.942  1.4745  0.3997 -0.5855
  151MOL   H12621426   5.449   6.842   1.732 -5.1856 -0.5261 -0.8572
  151MOL   H12721427   5.490   6.640   1.766  0.4784 -0.0698  1.1725
  151MOL   C12821428   5.294   6.858   1.878 -0.0687 -0.5915 -1.0899
  151MOL   C12921429   5.261   7.004   1.833 -0.4173 -1.2342  0.0502
  151MOL   O13021430   5.274   7.019   1.695  0.1419 -0.4990 -0.4317
  151MOL   H13121431   5.216   6.793   1.839  0.4871 -2.5577  0.9613
  151MOL   H13221432   5.287   6.860   1.987 -0.8217 -1.3751 -1.1251
  151MOL   H13321433   5.329   7.078   1.877 -1.0758  0.2426 -1.3738
  151MOL   H13421434   5.280   7.113   1.689  0.9059 -0.3941  1.5885
  151MOL   C13521435   5.109   7.032   1.879 -0.4345  0.7927  0.0373
  151MOL   C13621436   5.051   7.173   1.825  0.2596 -0.0174 -0.1609
  151MOL   O13721437   4.910   7.175   1.862  0.0331  0.1480  0.5187
  151MOL   H13821438   5.052   6.949   1.837  2.2952 -1.3712  0.4787
  151MOL   H13921439   5.114   7.025   1.987  0.6305  2.7213  0.1364
  151MOL   H14021440   5.056   7.176   1.716 -0.6972 -2.1051 -0.2767
  151MOL   H14121441   4.873   7.091   1.839 -1.9733  1.2697 -0.4629
  151MOL   H14221442   5.104   7.257   1.871 -0.2792  1.9551 -3.0301
  152MOL     C121443   7.278   4.851   6.260  0.5162  0.2487 -0.1442
  152MOL     C221444   7.295   5.001   6.302  0.1386  0.5513  0.1491
  152MOL     O321445   7.408   5.009   6.377  0.0786  0.1349 -0.0981
  152MOL     H421446   7.375   4.806   6.237  1.3288  2.2119 -0.6464
  152MOL     H521447   7.218   4.832   6.171 -1.2593  0.2674  1.0376
  152MOL     H621448   7.215   5.013   6.375  0.4642 -0.4640  0.6704
  152MOL     H721449   7.477   4.988   6.316 -1.0350 -3.0916 -0.3456
  152MOL     H821450   7.223   4.794   6.335 -0.1978 -1.1110 -1.6791
  152MOL     C921451   7.285   5.110   6.200 -0.0698  0.1238  0.1210
  152MOL    C1021452   7.184   5.104   6.086 -0.0001 -0.5424 -0.1878
  152MOL    O1121453   7.141   5.235   6.058 -0.6310 -0.2404  0.3171
  152MOL    H1221454   7.270   5.199   6.262 -1.8845  0.3193 -0.5740
  152MOL    H1321455   7.384   5.124   6.159  0.4410 -1.2784  0.8617
  152MOL    H1421456   7.102   5.037   6.112  1.0659 -2.0308 -0.5970
  152MOL    H1521457   7.192   5.302   6.101 -1.3989  2.3081 -2.5807
  152MOL    C1621458   7.246   5.029   5.968  0.1777 -0.4494  0.2460
  152MOL    C1721459   7.157   5.028   5.840  0.1474 -0.4051 -0.1657
  152MOL    O1821460   7.135   5.158   5.790 -0.5442  0.0824 -0.2123
  152MOL    H1921461   7.343   5.072   5.944  2.0400 -3.7357  1.5357
  152MOL    H2021462   7.269   4.925   5.992  0.8393 -0.0757  1.2698
  152MOL    H2121463   7.057   4.992   5.864  0.4156 -0.8664  0.2690
  152MOL    H2221464   7.121   5.214   5.865  0.2839  1.0958 -0.7972
  152MOL    C2321465   7.223   4.947   5.726  0.2102 -0.0547  0.2096
  152MOL    C2421466   7.212   4.800   5.742 -0.1756  0.6281 -0.4447
  152MOL    O2521467   7.079   4.766   5.769  0.3395 -0.1992  0.9031
  152MOL    H2621468   7.185   4.972   5.627  1.0071  0.7662  0.1093
  152MOL    H2721469   7.330   4.964   5.727  0.1639  0.2505  1.2614
  152MOL    H2821470   7.277   4.762   5.821  2.7452 -2.8292 -4.2748
  152MOL    H2921471   7.026   4.786   5.693 -1.9643 -1.3539  2.1530
  152MOL    C3021472   7.251   4.710   5.625 -0.2916 -0.3868 -0.3059
  152MOL    C3121473   7.410   4.703   5.603 -0.4022 -0.4719  0.6964
  152MOL    O3221474   7.475   4.679   5.725  0.9078  0.6193  0.3634
  152MOL    H3321475   7.220   4.607   5.642  1.0786 -0.4610  1.9126
  152MOL    H3421476   7.198   4.734   5.533 -0.7519 -2.0720 -0.4855
  152MOL    H3521477   7.448   4.802   5.578 -0.5492 -0.4232  0.6619
  152MOL    H3621478   7.454   4.595   5.763 -0.4257  1.4783  1.5768
  152MOL    C3721479   7.451   4.590   5.505  0.4018  0.1653  0.2852
  152MOL    C3821480   7.405   4.597   5.360  0.5540 -0.1852  0.4039
  152MOL    O3921481   7.269   4.557   5.350  0.3577  0.4717 -0.8781
  152MOL    H4021482   0.041   4.588   5.498  0.3660 -0.7624 -0.1979
  152MOL    H4121483   7.415   4.492   5.537  2.4967 -0.6965  0.0866
  152MOL    H4221484   7.460   4.526   5.299 -1.1080 -1.4768  0.3852
  152MOL    H4321485   7.265   4.531   5.259 -0.0642 -0.3709 -0.6238
  152MOL    C4421486   7.413   4.740   5.293  0.0131 -0.5350 -0.5357
  152MOL    C4521487   0.026   4.772   5.216  0.6034 -0.4791 -0.2345
  152MOL    O4621488   0.010   4.875   5.117  0.7901  0.0411  0.1206
  152MOL    H4721489   7.326   4.733   5.228  0.2670 -2.8389 -0.6659
  152MOL    H4821490   7.390   4.828   5.352 -2.8929 -2.5124  1.4203
  152MOL    H4921491   0.053   4.689   5.151  1.9750  0.7730 -1.2812
  152MOL    H5021492   7.464   4.850   5.054  1.3772 -0.7688 -0.1826
  152MOL    C5121493   0.148   4.800   5.298  0.2855 -0.3022  0.1257
  152MOL    C5221494   0.270   4.717   5.263 -0.0092 -0.0700 -0.0649
  152MOL    O5321495   0.383   4.772   5.333  0.2872  0.0807 -0.3940
  152MOL    H5421496   0.172   4.905   5.310  2.0791 -0.6053 -0.5835
  152MOL    H5521497   0.120   4.778   5.401 -1.9165 -0.0916 -0.4164
  152MOL    H5621498   0.286   4.730   5.156 -0.9490  0.4591 -0.1483
  152MOL    H5721499   0.379   4.756   5.427 -0.0887 -1.4098 -0.6457
  152MOL    C5821500   0.266   4.566   5.309  0.3320  0.3306  0.3263
  152MOL    C5921501   0.409   4.491   5.292 -0.3549  0.0333 -0.0726
  152MOL    O6021502   0.388   4.362   5.333  0.8684  0.6690 -0.0607
  152MOL    H6121503   0.245   4.554   5.415  1.9112 -2.0712  0.4145
  152MOL    H6221504   0.196   4.507   5.250  1.3806 -1.7065  1.0645
  152MOL    H6321505   0.489   4.524   5.359  2.7435 -3.9604 -1.6520
  152MOL    H6421506   0.451   4.340   5.400 -0.3935 -1.3157  0.5103
  152MOL    C6521507   0.477   4.471   5.151 -0.2063  0.5035  0.5951
  152MOL    C6621508   0.564   4.586   5.103 -0.0046 -0.3122 -0.2206
  152MOL    O6721509   0.669   4.611   5.195  0.5873  0.1537  0.2779
  152MOL    H6821510   0.546   4.386   5.156 -1.5741 -0.4694  4.1379
  152MOL    H6921511   0.417   4.443   5.065  1.0336  0.5788 -0.3109
  152MOL    H7021512   0.502   4.673   5.084  1.9467  1.3639  0.8783
  152MOL    H7121513   0.734   4.647   5.136 -0.7871  2.9328  0.3652
  152MOL    C7221514   0.625   4.553   4.965 -0.7013 -0.4122 -0.0144
  152MOL    C7321515   0.708   4.663   4.891  0.7433  0.6911 -0.0126
  152MOL    O7421516   0.827   4.682   4.963  0.2080 -0.3691 -0.0588
  152MOL    H7521517   0.681   4.459   4.964 -0.1908 -0.1224  0.6434
  152MOL    H7621518   0.543   4.532   4.896  1.0287  0.4848 -2.4592
  152MOL    H7721519   0.646   4.752   4.902  0.6214  0.4678  1.1064
  152MOL    H7821520   0.880   4.604   4.958  1.4899  0.5022 -0.3392
  152MOL    C7921521   0.748   4.625   4.753  0.1684 -0.3658 -0.4085
  152MOL    C8021522   0.633   4.630   4.641 -0.3769 -0.2469 -0.8703
  152MOL    O8121523   0.561   4.750   4.647  0.5560  0.1340 -0.3095
  152MOL    H8221524   0.834   4.682   4.717  2.5183 -2.6403  1.3321
  152MOL    H8321525   0.798   4.528   4.754 -1.7593 -1.4956 -4.7946
  152MOL    H8421526   0.558   4.559   4.676  1.1272 -0.2986  2.4370
  152MOL    H8521527   0.604   4.813   4.591  1.6355 -1.2040 -1.0199
  152MOL    C8621528   0.685   4.593   4.500 -0.1817 -0.4013  0.0842
  152MOL    C8721529   0.761   4.462   4.481 -0.3950  0.5683 -0.6259
  152MOL    O8821530   0.709   4.365   4.573 -0.1427 -0.4099  0.0241
  152MOL    H8921531   0.603   4.609   4.430 -0.0636 -0.6119 -0.1033
  152MOL    H9021532   0.757   4.673   4.484 -0.0538 -0.7529 -1.1112
  152MOL    H9121533   0.862   4.489   4.513 -0.2997  1.1535 -1.4049
  152MOL    H9221534   0.770   4.296   4.591 -2.0025 -1.8753  0.8466
  152MOL    C9321535   0.765   4.407   4.340  0.1605  0.0016  0.2419
  152MOL    C9421536   0.848   4.490   4.237  0.4047 -0.1207  0.4361
  152MOL    O9521537   0.980   4.483   4.262 -0.3892  0.2828  0.1709
  152MOL    H9621538   0.806   4.306   4.329 -1.7681 -0.8349  0.5508
  152MOL    H9721539   0.661   4.396   4.308 -0.6310  1.2354  2.2964
  152MOL    H9821540   0.833   4.597   4.247 -0.5433 -0.0258 -1.7401
  152MOL    H9921541   1.004   4.396   4.291  1.7790  0.3632 -1.2226
  152MOL   C10021542   0.808   4.453   4.096 -0.8636 -0.1891 -0.3836
  152MOL   C10121543   0.678   4.506   4.047  0.3393 -0.3235 -0.4289
  152MOL   O10221544   0.703   4.625   3.978 -0.0689  0.1780  0.2471
  152MOL   H10321545   0.885   4.472   4.021 -2.1050 -0.3315 -1.7169
  152MOL   H10421546   0.806   4.345   4.094  1.0130 -0.2362 -0.8069
  152MOL   H10521547   0.622   4.537   4.135  1.5540  0.0830  0.2018
  152MOL   H10621548   0.719   4.600   3.888 -0.0691 -0.9825  0.5637
  152MOL   C10721549   0.592   4.404   3.956  0.3336 -0.1060  0.1427
  152MOL   C10821550   0.522   4.293   4.024 -0.7928 -0.6029 -0.0683
  152MOL   O10921551   0.441   4.351   4.123 -0.1606  0.5433  0.3109
  152MOL   H11021552   0.523   4.466   3.899 -0.9449 -1.2603  0.4261
  152MOL   H11121553   0.661   4.357   3.885 -0.7327  0.3059 -1.1737
  152MOL   H11221554   0.599   4.229   4.068 -1.5010 -1.1122  0.4288
  152MOL   H11321555   0.385   4.410   4.074 -1.0029 -0.5834 -0.1120
  152MOL   C11421556   0.435   4.206   3.933 -0.6520  0.2430 -0.0889
  152MOL   C11521557   0.331   4.111   3.999  0.2158  0.0400  0.3499
  152MOL   O11621558   0.242   4.065   3.898 -0.5232 -0.7781  0.2017
  152MOL   H11721559   0.383   4.274   3.865 -0.1781 -0.8459 -1.5781
  152MOL   H11821560   0.504   4.154   3.866 -1.1139 -0.7129  0.1599
  152MOL   H11921561   0.269   4.161   4.074  0.5620 -0.1365  0.7519
  152MOL   H12021562   0.299   4.027   3.833  0.5436  1.6722 -0.3691
  152MOL   C12121563   0.382   3.982   4.073  0.3413 -0.2068  0.1613
  152MOL   C12221564   0.424   4.012   4.221  0.1988 -0.6073  0.8642
  152MOL   O12321565   0.309   4.033   4.299  0.2173 -0.2755 -0.1246
  152MOL   H12421566   0.315   3.896   4.068 -2.2397  1.7524  0.2902
  152MOL   H12521567   0.481   3.966   4.031  0.8777  1.1400  0.8760
  152MOL   H12621568   0.504   4.086   4.231 -0.9290  0.9971 -1.5660
  152MOL   H12721569   0.307   4.122   4.330 -1.7368 -0.0990 -0.6953
  152MOL   C12821570   0.485   3.886   4.286  0.0996 -0.5084  0.1205
  152MOL   C12921571   0.564   3.899   4.416  0.5612  0.0731 -0.4888
  152MOL   O13021572   0.611   3.770   4.441  0.3713  0.0462 -0.3572
  152MOL   H13121573   0.399   3.820   4.299 -0.4112  0.0149 -0.5066
  152MOL   H13221574   0.557   3.848   4.215  1.1371 -2.1553  2.0276
  152MOL   H13321575   0.513   3.922   4.509  1.1546  1.1976 -0.4326
  152MOL   H13421576   0.598   3.709   4.370  0.2445  0.0803 -0.3635
  152MOL   C13521577   0.666   4.009   4.417 -0.3050  0.2284 -0.2641
  152MOL   C13621578   0.751   4.006   4.538 -0.4636 -0.4366 -0.6602
  152MOL   O13721579   0.847   4.111   4.532 -0.0650 -0.3653 -0.0162
  152MOL   H13821580   0.728   4.001   4.328 -1.9493  0.7434 -1.4729
  152MOL   H13921581   0.620   4.108   4.417 -1.8024 -0.4108  2.8272
  152MOL   H14021582   0.806   3.914   4.554 -0.8079 -0.4699  0.3481
  152MOL   H14121583   0.910   4.106   4.602 -0.6695  1.1633  0.6853
  152MOL   H14221584   0.690   4.021   4.626 -0.4036  0.0321 -0.6943
  153MOL     C121585   5.502   1.463   1.562 -0.1664 -0.2844  0.1095
  153MOL     C221586   5.602   1.346   1.583  0.0434 -0.1895  0.4648
  153MOL     O321587   5.628   1.301   1.456 -0.2171 -0.1709 -0.2317
  153MOL     H421588   5.465   1.484   1.662 -1.9923 -1.5020 -0.2947
  153MOL     H521589   5.413   1.443   1.503 -0.6334 -1.1538  1.1044
  153MOL     H621590   5.551   1.276   1.648  0.7179 -0.9072  0.2216
  153MOL     H721591   5.646   1.382   1.410  0.0397 -0.5093 -0.7359
  153MOL     H821592   5.542   1.556   1.521  0.1580 -0.3419  0.2961
  153MOL     C921593   5.730   1.400   1.644 -0.0288  0.3232  0.0092
  153MOL    C1021594   5.717   1.460   1.789  0.1019  0.0520 -0.0276
  153MOL    O1121595   5.682   1.351   1.867  0.1058  0.6140 -0.2944
  153MOL    H1221596   5.810   1.326   1.653 -1.1583 -0.8534  0.5262
  153MOL    H1321597   5.769   1.482   1.584  0.6759 -0.4069 -0.5314
  153MOL    H1421598   5.633   1.529   1.796  0.2255  0.1523  0.5289
  153MOL    H1521599   5.601   1.366   1.913  1.0085  0.9990  1.2006
  153MOL    C1621600   5.843   1.540   1.836  0.4822  0.3040  0.6671
  153MOL    C1721601   5.849   1.671   1.759  0.2915 -0.7428  0.4747
  153MOL    O1821602   5.788   1.765   1.851 -0.4213  0.1397  0.7080
  153MOL    H1921603   5.837   1.550   1.944 -1.3179 -3.8666  1.0571
  153MOL    H2021604   5.931   1.483   1.807  0.4215  0.2904  0.5092
  153MOL    H2121605   5.786   1.662   1.671  0.7984 -2.3699  0.2757
  153MOL    H2221606   5.817   1.852   1.830  0.1966 -0.1699  0.2534
  153MOL    C2321607   5.989   1.726   1.715  0.0631  0.3300 -0.1656
  153MOL    C2421608   6.098   1.759   1.824  0.4585  0.5111 -0.3221
  153MOL    O2521609   6.109   1.646   1.914 -0.4255  0.3646  0.5345
  153MOL    H2621610   6.022   1.659   1.636 -1.5324 -2.3003  1.2885
  153MOL    H2721611   5.971   1.820   1.663  2.1478  1.9093  1.8541
  153MOL    H2821612   6.057   1.842   1.880  0.6871  0.0356  0.5562
  153MOL    H2921613   6.182   1.664   1.971  0.3351  1.3157 -0.7103
  153MOL    C3021614   6.233   1.793   1.768 -0.0490 -0.1416  0.3393
  153MOL    C3121615   6.329   1.866   1.863 -0.2093 -0.3861  0.0160
  153MOL    O3221616   6.453   1.797   1.855 -0.7566 -0.2883 -0.1852
  153MOL    H3321617   6.279   1.700   1.735  0.9622 -0.3881  2.3716
  153MOL    H3421618   6.214   1.839   1.672 -1.1409  0.7071  0.9468
  153MOL    H3521619   6.293   1.863   1.966  0.9410 -0.2644  0.4350
  153MOL    H3621620   6.505   1.795   1.934 -0.4331  0.7263 -0.3689
  153MOL    C3721621   6.360   2.013   1.823 -0.5931 -0.2228  0.1023
  153MOL    C3821622   6.233   2.097   1.790  0.7698 -0.0824 -0.0440
  153MOL    O3921623   6.144   2.092   1.893  0.6700  0.0485 -0.1402
  153MOL    H4021624   6.422   2.056   1.902  2.4602 -0.1181 -2.2291
  153MOL    H4121625   6.409   2.002   1.726 -0.6681 -0.4966  0.0973
  153MOL    H4221626   6.195   2.060   1.694 -0.3521 -1.9949  1.0911
  153MOL    H4321627   6.068   2.145   1.875  1.3531  1.8248  2.0310
  153MOL    C4421628   6.248   2.252   1.758 -0.4785 -0.9554  0.3459
  153MOL    C4521629   6.331   2.337   1.857  0.6080  0.2478  0.1191
  153MOL    O4621630   6.385   2.446   1.790 -0.0204 -0.7659  0.7077
  153MOL    H4721631   6.294   2.243   1.660 -0.6041 -2.1761  0.3927
  153MOL    H4821632   6.149   2.297   1.750 -0.2010 -0.5084 -0.6468
  153MOL    H4921633   6.416   2.276   1.888  1.8171  1.1179 -1.3984
  153MOL    H5021634   6.460   2.411   1.745  0.7263  1.5451  0.0712
  153MOL    C5121635   6.240   2.397   1.973  0.7851 -0.0351 -0.1819
  153MOL    C5221636   6.320   2.461   2.081 -0.3146  0.1594 -0.0420
  153MOL    O5321637   6.231   2.550   2.149 -0.1119  0.0041 -0.5167
  153MOL    H5421638   6.159   2.458   1.934  0.6405  0.8427  1.4337
  153MOL    H5521639   6.190   2.311   2.019 -1.2291  0.6807 -0.9632
  153MOL    H5621640   6.401   2.517   2.034 -0.5205 -1.0276 -1.8480
  153MOL    H5721641   6.210   2.619   2.087 -0.6234  1.1451  0.9147
  153MOL    C5821642   6.377   2.352   2.182  0.7063  0.0880 -0.0752
  153MOL    C5921643   6.477   2.421   2.285 -0.8173  0.1876 -0.1612
  153MOL    O6021644   6.392   2.496   2.368  0.1466 -0.3401  0.7125
  153MOL    H6121645   6.290   2.312   2.234  0.9609 -1.2891 -0.6865
  153MOL    H6221646   6.423   2.265   2.136  0.2078 -0.0708 -0.2647
  153MOL    H6321647   6.548   2.481   2.228 -0.3882 -1.0726 -0.9784
  153MOL    H6421648   6.337   2.535   2.301  0.2799  0.3470  1.0003
  153MOL    C6521649   6.539   2.320   2.371  0.0453 -0.9190 -0.8089
  153MOL    C6621650   6.651   2.377   2.459 -0.8221 -0.0839 -0.6666
  153MOL    O6721651   6.604   2.493   2.529  0.0559 -0.3281 -0.1553
  153MOL    H6821652   6.463   2.268   2.429  0.6405 -1.3405 -0.3964
  153MOL    H6921653   6.590   2.240   2.317  1.2974 -1.4742  1.1428
  153MOL    H7021654   6.730   2.417   2.396 -1.0599  0.5497 -0.5614
  153MOL    H7121655   6.516   2.501   2.498 -0.5675 -0.2787  1.5595
  153MOL    C7221656   6.703   2.272   2.560  0.1675  0.7582 -0.1442
  153MOL    C7321657   6.706   2.124   2.504 -0.9832  0.2508  0.8153
  153MOL    O7421658   6.811   2.107   2.406 -0.4291  0.5246  0.6705
  153MOL    H7521659   6.801   2.297   2.600  0.9901 -0.0509 -1.6039
  153MOL    H7621660   6.638   2.271   2.647 -0.4287 -2.5249 -0.5401
  153MOL    H7721661   6.611   2.092   2.461 -0.3067  0.5867 -0.9694
  153MOL    H7821662   6.831   2.016   2.389 -0.3490  0.5187  0.7920
  153MOL    C7921663   6.729   2.017   2.614 -0.0384  0.6694  0.0210
  153MOL    C8021664   6.866   2.013   2.686  0.2523 -0.4119 -0.5736
  153MOL    O8121665   6.883   2.113   2.794 -0.3403 -0.0188 -0.0958
  153MOL    H8221666   6.649   2.033   2.686 -1.0867 -1.1592 -0.7264
  153MOL    H8321667   6.715   1.921   2.566 -0.4562  1.6650 -1.8695
  153MOL    H8421668   6.939   2.043   2.611 -0.3742  0.0875 -0.9927
  153MOL    H8521669   6.933   2.190   2.774 -2.5282  1.9494  1.7134
  153MOL    C8621670   6.910   1.883   2.743  0.5452  0.6040 -0.5429
  153MOL    C8721671   6.950   1.779   2.640  1.2282  0.0616 -0.0400
  153MOL    O8821672   7.051   1.830   2.555 -0.0422  0.0703 -1.0120
  153MOL    H8921673   7.002   1.903   2.799  0.2861  2.4480 -0.7283
  153MOL    H9021674   6.841   1.838   2.815  0.8629  0.9554 -0.0132
  153MOL    H9121675   6.865   1.755   2.577  0.1764 -0.3016  1.4888
  153MOL    H9221676   7.137   1.822   2.593 -1.3215  0.7589  2.1951
  153MOL    C9321677   6.999   1.650   2.705 -0.7597  0.4690 -0.2324
  153MOL    C9421678   7.089   1.644   2.835 -0.6741 -0.2079 -0.1183
  153MOL    O9521679   7.024   1.697   2.953  0.4452  0.4108 -0.2658
  153MOL    H9621680   6.912   1.592   2.736  0.1334  0.3349  2.1083
  153MOL    H9721681   7.040   1.591   2.623 -0.8847 -0.4895  0.3805
  153MOL    H9821682   7.173   1.708   2.807 -0.6439 -0.2072 -0.0275
  153MOL    H9921683   6.931   1.678   2.947  0.6744 -0.7409 -0.2877
  153MOL   C10021684   7.141   1.500   2.860  0.8481  0.0811 -0.3844
  153MOL   C10121685   7.259   1.481   2.960  0.0939  0.0165  0.1605
  153MOL   O10221686   7.214   1.545   3.084 -0.0164  0.7621 -0.1116
  153MOL   H10321687   7.061   1.437   2.901 -1.7398  2.5583 -1.4328
  153MOL   H10421688   7.170   1.455   2.765  1.7613  1.1778 -0.6291
  153MOL   H10521689   7.331   1.548   2.912  1.8184 -1.7273  0.2336
  153MOL   H10621690   7.145   1.605   3.062 -0.0282  0.0260 -2.1446
  153MOL   C10721691   7.315   1.334   2.971  0.3547  0.1821 -0.0582
  153MOL   C10821692   7.402   1.289   2.857 -0.0021  0.5130 -0.0313
  153MOL   O10921693   0.012   1.275   2.898  0.3478  0.3023 -0.1678
  153MOL   H11021694   7.376   1.327   3.061 -0.0085 -0.4718  0.1446
  153MOL   H11121695   7.227   1.271   2.986  0.2876  0.2663 -0.1002
  153MOL   H11221696   7.416   1.360   2.776  1.4174 -1.6363 -1.7405
  153MOL   H11321697   0.053   1.360   2.902 -0.0150  0.4300  0.9472
  153MOL   C11421698   7.359   1.158   2.785  0.1483  0.0354  0.0703
  153MOL   C11521699   7.426   1.123   2.645  0.8755  0.0406 -0.0369
  153MOL   O11621700   7.374   0.995   2.607  0.1747  0.1679 -0.4883
  153MOL   H11721701   7.385   1.075   2.850  0.4073  0.2807  0.2780
  153MOL   H11821702   7.250   1.159   2.781  0.1175  0.0728  0.9259
  153MOL   H11921703   0.013   1.117   2.666  0.7133 -0.1114  0.7570
  153MOL   H12021704   7.380   0.937   2.681  0.2471 -1.1689 -1.5128
  153MOL   C12121705   7.408   1.238   2.538  0.1194  0.2567 -0.0848
  153MOL   C12221706   7.467   1.206   2.405  0.4386  0.0546 -0.5809
  153MOL   O12321707   7.408   1.270   2.294  0.4270 -0.1200 -0.1180
  153MOL   H12421708   7.300   1.247   2.525 -0.3185 -3.5591  0.2941
  153MOL   H12521709   7.447   1.334   2.571  0.0913  0.4632 -0.6438
  153MOL   H12621710   7.468   1.099   2.382  1.6837 -0.0812  0.0488
  153MOL   H12721711   7.449   1.237   2.216  1.8304  1.1831  0.0550
  153MOL   C12821712   0.096   1.255   2.405  0.4106 -0.6603  0.1218
  153MOL   C12921713   0.186   1.190   2.300  0.0082  0.0911 -0.3093
  153MOL   O13021714   0.293   1.282   2.267 -0.2857 -0.4321 -0.2881
  153MOL   H13121715   0.101   1.364   2.408 -1.7298 -0.4906 -1.5183
  153MOL   H13221716   0.148   1.239   2.500 -0.1639 -0.7907  0.4198
  153MOL   H13321717   0.118   1.180   2.215 -0.8925  0.1209  0.3938
  153MOL   H13421718   0.307   1.291   2.174 -0.2319  1.4697 -0.1218
  153MOL   C13521719   0.257   1.059   2.339  0.6715  0.1354  0.4688
  153MOL   C13621720   0.164   0.931   2.329 -0.4522  0.3086 -0.5941
  153MOL   O13721721   0.228   0.817   2.389  0.0422  0.2272 -1.0446
  153MOL   H13821722   0.340   1.048   2.270  1.5199 -0.9370  1.6226
  153MOL   H13921723   0.296   1.064   2.441  0.4279  1.2819  0.5097
  153MOL   H14021724   0.147   0.897   2.227  1.0092 -2.8694  0.1515
  153MOL   H14121725   0.299   0.794   2.332  1.0521  0.6634  0.0059
  153MOL   H14221726   0.076   0.952   2.390  0.7812 -0.5136  1.5283
  154MOL     C121727   6.476   7.430   0.868 -0.4416 -0.0034 -0.3815
  154MOL     C221728   6.463   7.390   0.718 -0.0975 -0.3081 -0.0929
  154MOL     O321729   6.491   7.255   0.696 -0.2376  0.4031 -0.4563
  154MOL     H421730   6.578   7.409   0.898 -1.3624 -2.6351  1.1491
  154MOL     H521731   6.412   7.369   0.932 -1.1395  0.0099 -1.0667
  154MOL     H621732   6.535   7.449   0.661  0.0255  2.0181  2.3540
  154MOL     H721733   6.584   7.243   0.689 -0.4629 -1.4359 -0.3818
  154MOL     H821734   6.457   0.017   0.883  0.5460 -0.1177  2.0019
  154MOL     C921735   6.318   7.418   0.668 -0.0028  0.9788  0.1101
  154MOL    C1021736   6.276   0.046   0.653 -0.0371  0.4081 -0.1986
  154MOL    O1121737   6.336   0.112   0.551 -0.3927  0.2247  0.3837
  154MOL    H1221738   6.292   7.371   0.574 -1.0024  0.1004  0.8148
  154MOL    H1321739   6.254   7.366   0.740  0.0413 -0.8919 -1.1754
  154MOL    H1421740   6.319   0.088   0.744  0.8174  1.2697 -0.9844
  154MOL    H1521741   6.358   0.051   0.482 -2.3606  1.0630 -1.0335
  154MOL    C1621742   6.126   0.059   0.646  0.4774 -0.6395 -0.4974
  154MOL    C1721743   6.060   0.192   0.627  0.4965  0.2248  0.2985
  154MOL    O1821744   5.926   0.177   0.611 -0.6648  0.1361  0.0615
  154MOL    H1921745   6.097   7.514   0.563 -1.5512 -0.2739 -0.0951
  154MOL    H2021746   6.071   0.011   0.728 -0.7958  0.8069 -0.4761
  154MOL    H2121747   6.086   0.229   0.528  0.1824  2.4683  1.0232
  154MOL    H2221748   5.906   0.216   0.528  1.7104  2.5273  0.5351
  154MOL    C2321749   6.088   0.297   0.739 -0.5452 -0.1438  0.4685
  154MOL    C2421750   6.010   0.427   0.720  0.2989 -0.3312 -0.4288
  154MOL    O2521751   6.006   0.492   0.844 -0.7645 -0.1880  0.3660
  154MOL    H2621752   6.060   0.252   0.834  2.4906  0.3507  1.6392
  154MOL    H2721753   6.196   0.313   0.742 -0.3934 -0.7893 -0.8861
  154MOL    H2821754   5.906   0.404   0.697 -0.6061  1.3631  1.7865
  154MOL    H2921755   5.959   0.442   0.909 -3.2165  1.5470 -0.0210
  154MOL    C3021756   6.060   0.526   0.614 -0.6636 -0.4540  0.6066
  154MOL    C3121757   6.026   0.511   0.459 -0.6495  0.1823  0.1190
  154MOL    O3221758   5.881   0.504   0.455  0.3103 -0.1280 -0.2320
  154MOL    H3321759   6.036   0.628   0.643  2.3544 -0.4819  3.4641
  154MOL    H3421760   6.168   0.512   0.623 -0.8449 -1.2230  1.7455
  154MOL    H3521761   6.069   0.423   0.410 -1.6838  0.1360 -0.7237
  154MOL    H3621762   5.860   0.541   0.370  0.1707  0.6262  0.1281
  154MOL    C3721763   6.069   0.641   0.393 -0.8190 -0.4136 -0.7133
  154MOL    C3821764   6.229   0.674   0.396  0.3378  0.1368 -0.1413
  154MOL    O3921765   6.291   0.593   0.296 -0.2284 -0.2710 -0.4503
  154MOL    H4021766   6.039   0.646   0.288 -0.2369 -1.7630 -0.9569
  154MOL    H4121767   6.009   0.716   0.443 -1.9362 -0.6127 -1.7271
  154MOL    H4221768   6.269   0.633   0.489 -0.9450  1.6532  1.0987
  154MOL    H4321769   6.286   0.507   0.335  0.1561  0.4975  1.3290
  154MOL    C4421770   6.262   0.827   0.361  0.2383 -0.2025  0.0286
  154MOL    C4521771   6.232   0.918   0.493  0.0162  0.1120 -0.3327
  154MOL    O4621772   6.347   0.907   0.576 -0.0780 -0.5254  0.6220
  154MOL    H4721773   6.363   0.849   0.327 -0.1804  1.8337  0.0042
  154MOL    H4821774   6.195   0.859   0.280  1.8886  2.6191 -0.2701
  154MOL    H4921775   6.146   0.883   0.549  2.5025 -0.7192  3.1985
  154MOL    H5021776   6.300   0.899   0.657 -1.4508  2.4891  0.2030
  154MOL    C5121777   6.232   1.074   0.458  0.4059  0.1214  0.5907
  154MOL    C5221778   6.142   1.113   0.338 -0.5633  0.0654  0.1689
  154MOL    O5321779   6.100   1.241   0.374  0.1231  1.2947  0.5369
  154MOL    H5421780   6.197   1.130   0.545 -2.6761  0.1104 -0.5675
  154MOL    H5521781   6.335   1.101   0.435  0.4349 -0.2003  0.3317
  154MOL    H5621782   6.055   1.049   0.328 -1.2613  1.3251 -2.2225
  154MOL    H5721783   6.176   1.295   0.390  0.9990  0.2071  0.0729
  154MOL    C5821784   6.213   1.121   0.203  0.6446  0.8276 -0.0208
  154MOL    C5921785   6.117   1.129   0.077  0.2098 -0.0613  0.1722
  154MOL    O6021786   6.067   0.993   0.062  0.8141  0.4015  0.3823
  154MOL    H6121787   6.278   1.208   0.210  2.7531 -0.6828 -0.4697
  154MOL    H6221788   6.283   1.039   0.190 -3.1311 -2.3054 -1.3273
  154MOL    H6321789   6.165   1.144   7.500 -1.4591 -0.5801 -0.7613
  154MOL    H6421790   6.122   0.938   0.008  0.4928 -1.5801  1.9923
  154MOL    C6521791   5.988   1.214   0.092  0.3896  0.4063 -0.0126
  154MOL    C6621792   6.015   1.367   0.101 -0.0466  0.6026 -0.5692
  154MOL    O6721793   6.060   1.408   7.500 -0.3857 -0.2952  0.0264
  154MOL    H6821794   5.916   1.202   0.011 -0.8054  0.9757  0.9406
  154MOL    H6921795   5.926   1.193   0.179  1.8157 -0.0052  0.9080
  154MOL    H7021796   6.095   1.372   0.174 -0.2164 -0.5025 -0.2912
  154MOL    H7121797   5.993   1.449   7.447  0.8304 -1.0086 -2.1362
  154MOL    C7221798   5.898   1.457   0.147  0.3031  0.4352 -0.1092
  154MOL    C7321799   5.927   1.608   0.164  0.0811 -0.7879  0.5559
  154MOL    O7421800   5.808   1.686   0.187  0.0786 -0.9451  0.2294
  154MOL    H7521801   5.816   1.435   0.079  0.9643  0.6984 -0.9990
  154MOL    H7621802   5.865   1.422   0.245 -0.0665 -0.9779 -0.7364
  154MOL    H7721803   5.972   1.645   0.072  0.6235 -0.8463  0.7910
  154MOL    H7821804   5.753   1.693   0.110 -0.3667  0.2842  0.6427
  154MOL    C7921805   6.025   1.649   0.280  0.3126 -0.1336  0.3112
  154MOL    C8021806   6.070   1.793   0.288 -0.3568  0.0388 -0.4262
  154MOL    O8121807   6.122   1.825   0.411  0.2267 -0.1297 -0.2226
  154MOL    H8221808   5.978   1.623   0.375 -0.6361 -1.0756 -0.4050
  154MOL    H8321809   6.113   1.586   0.271  0.3701 -0.5121  3.0241
  154MOL    H8421810   5.989   1.864   0.269  0.1537  0.3822 -1.3319
  154MOL    H8521811   6.186   1.894   0.398  0.9652 -0.2841  2.3837
  154MOL    C8621812   6.173   1.826   0.185 -0.3698  0.4110 -0.2414
  154MOL    C8721813   6.202   1.974   0.176  0.1213 -0.4973  0.5381
  154MOL    O8821814   6.280   2.018   0.283 -0.7480  0.7312 -0.2184
  154MOL    H8921815   6.266   1.772   0.201 -1.4508 -2.1172 -2.1986
  154MOL    H9021816   6.138   1.795   0.087  2.8804  0.7962 -1.5546
  154MOL    H9121817   6.108   2.030   0.178  0.8601  0.7498  0.4861
  154MOL    H9221818   6.365   1.978   0.272 -1.7965 -1.6413 -0.0165
  154MOL    C9321819   6.271   2.014   0.034  0.3528  0.0990  0.0605
  154MOL    C9421820   6.271   2.164   0.006  0.3216  0.3348 -0.1941
  154MOL    O9521821   6.379   2.198   7.440  0.4908  0.1617  0.4497
  154MOL    H9621822   6.376   1.991   0.053  0.6228  2.6367  1.9553
  154MOL    H9721823   6.238   1.949   7.472 -1.9055 -0.1858  1.1884
  154MOL    H9821824   6.283   2.221   0.098  2.0148  0.1719 -0.3035
  154MOL    H9921825   6.363   2.184   7.347  0.7644  0.4424  0.3592
  154MOL   C10021826   6.138   2.222   7.459 -0.3601 -0.0959  0.0031
  154MOL   C10121827   6.123   2.371   7.472 -0.4639  0.0951  0.0881
  154MOL   O10221828   6.026   2.423   7.388  0.0970 -0.6336  0.3417
  154MOL   H10321829   6.155   2.205   7.353  0.4529 -0.5209  0.1978
  154MOL   H10421830   6.053   2.169   7.502 -0.0241 -1.5088 -1.0334
  154MOL   H10521831   6.216   2.423   7.451 -0.4386  0.1440  0.3165
  154MOL   H10621832   6.049   2.393   7.302  1.0127  0.5928  0.1455
  154MOL   C10721833   6.090   2.411   0.101  0.2877 -0.0063 -0.3687
  154MOL   C10821834   6.088   2.566   0.135 -0.3987 -0.1084  0.6643
  154MOL   O10921835   5.987   2.630   0.058 -0.1712 -0.4854 -0.4617
  154MOL   H11021836   6.001   2.362   0.140 -0.2876  0.7656 -0.6829
  154MOL   H11121837   6.170   2.377   0.167  0.0563 -0.4784 -0.3316
  154MOL   H11221838   6.188   2.604   0.115 -1.2896  1.7756 -0.4142
  154MOL   H11321839   5.976   2.563   7.512 -0.2705 -0.6732 -0.2522
  154MOL   C11421840   6.077   2.595   0.280  0.1909 -0.1851 -0.2192
  154MOL   C11521841   6.085   2.741   0.331 -0.3643  0.2864 -0.3326
  154MOL   O11621842   6.071   2.749   0.472 -0.1126  0.5108 -0.0776
  154MOL   H11721843   5.979   2.562   0.315  0.4730 -0.4732  0.3112
  154MOL   H11821844   6.152   2.537   0.334  0.0467 -1.4395 -1.3527
  154MOL   H11921845   6.006   2.799   0.284  0.2842  1.3801 -0.0919
  154MOL   H12021846   5.991   2.711   0.507 -0.2415  0.7686 -0.0879
  154MOL   C12121847   6.221   2.806   0.290  0.1823  0.4360  0.3712
  154MOL   C12221848   6.251   2.951   0.342 -0.4980  0.2423  0.7119
  154MOL   O12321849   6.237   2.960   0.477  0.1017  0.2858  0.2631
  154MOL   H12421850   6.302   2.737   0.314 -1.0863 -0.8682  1.0098
  154MOL   H12521851   6.226   2.812   0.181  1.3488  1.4094  0.4716
  154MOL   H12621852   6.176   3.018   0.300  0.8971  0.7726 -1.0222
  154MOL   H12721853   6.198   2.876   0.498 -0.4928  0.5984  0.4069
  154MOL   C12821854   6.393   2.978   0.296  0.0038 -0.2641  0.2508
  154MOL   C12921855   6.460   3.116   0.328  0.3951  0.8568  0.5575
  154MOL   O13021856   6.594   3.105   0.281  0.0407  0.6276 -0.5908
  154MOL   H13121857   6.463   2.913   0.349  1.2080  0.9352  0.1786
  154MOL   H13221858   6.403   2.964   0.188  1.0048 -0.0312  0.3009
  154MOL   H13321859   6.456   3.135   0.435 -0.0926  2.4633  0.2764
  154MOL   H13421860   6.631   3.190   0.300  0.9084  0.2939 -0.7692
  154MOL   C13521861   6.382   3.229   0.247  1.0317  0.0869  0.6502
  154MOL   C13621862   6.430   3.373   0.276  1.3415  0.3399  0.0385
  154MOL   O13721863   6.374   3.461   0.180 -0.4345  0.0496 -0.6367
  154MOL   H13821864   6.404   3.213   0.141 -1.0430 -0.6329  0.3079
  154MOL   H13921865   6.274   3.220   0.253  0.9977  0.7185  1.0124
  154MOL   H14021866   6.537   3.383   0.261  1.2586  1.6581  0.2784
  154MOL   H14121867   6.378   3.539   0.233 -1.6431 -1.7125  2.1855
  154MOL   H14221868   6.424   3.410   0.379 -2.4143 -1.4016  0.5295
  155MOL     C121869   4.727   5.299   0.819  0.8347  0.1491 -0.5227
  155MOL     C221870   4.826   5.213   0.737  0.2891 -0.2930  0.0279
  155MOL     O321871   4.902   5.301   0.659 -0.4205 -0.3708  0.3929
  155MOL     H421872   4.787   5.345   0.898  1.7294 -2.3616  0.2918
  155MOL     H521873   4.653   5.239   0.872 -0.7299  1.1232 -1.5561
  155MOL     H621874   4.763   5.161   0.665  0.8448  1.3738 -1.7080
  155MOL     H721875   4.837   5.347   0.608  1.3660  0.5866 -1.0520
  155MOL     H821876   4.686   5.386   0.768  0.7711  0.2899 -0.2363
  155MOL     C921877   4.914   5.124   0.827 -0.0277 -0.0059 -0.2820
  155MOL    C1021878   5.008   5.031   0.759 -0.2175  0.4295  0.1120
  155MOL    O1121879   5.082   4.953   0.856 -0.1857  0.2956 -0.2519
  155MOL    H1221880   4.975   5.192   0.887  0.1468  0.0437 -0.5132
  155MOL    H1321881   4.855   5.063   0.895  1.5911 -1.0412  0.2300
  155MOL    H1421882   5.073   5.087   0.691  0.6114  0.3197  0.7989
  155MOL    H1521883   5.148   5.010   0.893  1.5556  1.5852 -5.0361
  155MOL    C1621884   4.925   4.937   0.665 -0.6800 -0.5697  0.1253
  155MOL    C1721885   5.004   4.820   0.604 -0.4781 -0.5294  0.0591
  155MOL    O1821886   4.912   4.765   0.516 -0.3042 -0.1697  0.0522
  155MOL    H1921887   4.841   4.894   0.719 -1.0381 -0.0894 -0.0469
  155MOL    H2021888   4.893   5.006   0.588  0.7408 -0.7690 -0.6768
  155MOL    H2121889   5.022   4.742   0.679 -0.5855 -1.1401 -0.5457
  155MOL    H2221890   4.951   4.691   0.471  0.7543 -0.3142  1.1817
  155MOL    C2321891   5.145   4.863   0.533  0.3653 -0.3699 -0.1722
  155MOL    C2421892   5.248   4.746   0.510  0.2730  0.5620 -0.3002
  155MOL    O2521893   5.181   4.644   0.432 -0.4274 -0.5935  0.2654
  155MOL    H2621894   5.119   4.914   0.440 -0.6487 -3.4541 -1.6418
  155MOL    H2721895   5.194   4.941   0.591 -3.4482  1.7458  0.4478
  155MOL    H2821896   5.271   4.711   0.611  2.1044 -0.9192 -1.1939
  155MOL    H2921897   5.169   4.670   0.342  3.3589 -0.8051 -0.3885
  155MOL    C3021898   5.377   4.789   0.438 -0.2831  0.4600  0.4360
  155MOL    C3121899   5.481   4.677   0.415  0.1186 -0.4203 -0.1423
  155MOL    O3221900   5.590   4.715   0.336  0.1694 -0.0708  0.2516
  155MOL    H3321901   5.359   4.837   0.342 -1.9893  1.7100  1.3621
  155MOL    H3421902   5.419   4.864   0.506 -1.1105  0.3582  1.0758
  155MOL    H3521903   5.430   4.592   0.370  0.4358  0.4295 -2.1768
  155MOL    H3621904   5.649   4.642   0.330  2.4461  1.8777 -2.6158
  155MOL    C3721905   5.552   4.624   0.540  0.3889 -0.0467  0.0983
  155MOL    C3821906   5.614   4.484   0.541  0.3990  1.0360  0.5078
  155MOL    O3921907   5.698   4.480   0.424  0.1321  0.7131  0.3061
  155MOL    H4021908   5.622   4.703   0.570 -0.7110  0.7690  0.5379
  155MOL    H4121909   5.485   4.618   0.625  2.4949 -1.4178  1.7197
  155MOL    H4221910   5.537   4.409   0.524  1.3509  0.1058  0.2208
  155MOL    H4321911   5.751   4.402   0.432  0.5529  0.8544 -1.0310
  155MOL    C4421912   5.701   4.452   0.660  0.1273 -0.5481 -0.0770
  155MOL    C4521913   5.732   4.300   0.681 -0.1882 -0.0953  0.0355
  155MOL    O4621914   5.815   4.253   0.573  0.2505 -0.0525 -0.4275
  155MOL    H4721915   5.791   4.513   0.664  0.0168 -0.4327  0.6814
  155MOL    H4821916   5.647   4.492   0.746 -1.3434 -0.9326 -0.8006
  155MOL    H4921917   5.638   4.246   0.668 -0.7543  1.4000 -2.5144
  155MOL    H5021918   5.860   4.176   0.604  0.7626  1.0756  1.7064
  155MOL    C5121919   5.806   4.272   0.813 -0.2039 -0.3160  0.5385
  155MOL    C5221920   5.814   4.123   0.858  0.2926 -0.0900  0.6051
  155MOL    O5321921   5.860   4.034   0.758  0.0279 -0.2826 -0.6752
  155MOL    H5421922   5.904   4.320   0.809 -0.0216 -0.6557  0.8685
  155MOL    H5521923   5.754   4.329   0.889  0.7778 -0.0703  1.0355
  155MOL    H5621924   5.714   4.091   0.888 -0.4295  1.9734  0.4828
  155MOL    H5721925   5.788   4.013   0.701 -2.9786 -0.2029  2.9414
  155MOL    C5821926   5.914   4.113   0.979 -0.3860  0.0678  0.1790
  155MOL    C5921927   5.897   3.985   1.075  0.0330 -1.2597  0.0256
  155MOL    O6021928   6.002   3.984   1.162  0.5383  0.5096  0.1968
  155MOL    H6121929   6.011   4.132   0.935 -1.0714  2.4303 -0.4250
  155MOL    H6221930   5.898   4.199   1.045 -0.9665  1.0974 -1.2702
  155MOL    H6321931   5.910   3.891   1.023  1.9759 -0.5058 -0.9005
  155MOL    H6421932   6.001   3.896   1.195 -0.1812  1.0844  1.7625
  155MOL    C6521933   5.762   3.989   1.164 -0.3129  0.1379 -0.1768
  155MOL    C6621934   5.727   3.863   1.236  0.3686  0.2544 -0.4779
  155MOL    O6721935   5.625   3.883   1.339  0.3953 -0.9120  0.4377
  155MOL    H6821936   5.769   4.072   1.235  2.3139  0.0225 -0.2541
  155MOL    H6921937   5.677   4.028   1.109 -0.1991  3.7060  1.9928
  155MOL    H7021938   5.813   3.834   1.296 -1.2189 -0.9839  1.2370
  155MOL    H7121939   5.536   3.892   1.306  0.7842 -1.5125 -0.8101
  155MOL    C7221940   5.685   3.749   1.145 -0.3187  0.2823  0.2555
  155MOL    C7321941   5.739   3.605   1.179  0.4857  0.3433  0.8768
  155MOL    O7421942   5.660   3.554   1.286 -0.1196  0.0184 -0.0160
  155MOL    H7521943   5.576   3.745   1.137 -0.3562  1.1412  0.2798
  155MOL    H7621944   5.722   3.773   1.045 -0.6119  0.3491  0.1640
  155MOL    H7721945   5.843   3.602   1.211  1.4190 -1.9194 -2.1933
  155MOL    H7821946   5.699   3.592   1.363 -0.1797 -0.0886  0.0668
  155MOL    C7921947   5.730   3.503   1.062 -0.3528  0.0308 -0.0513
  155MOL    C8021948   5.766   3.362   1.098 -0.1112 -1.1056  0.1685
  155MOL    O8121949   5.643   3.290   1.109  0.0546 -0.6667 -0.6288
  155MOL    H8221950   5.624   3.510   1.036 -0.6358  1.1662  1.3216
  155MOL    H8321951   5.795   3.536   0.981 -1.1170  0.9438 -0.3076
  155MOL    H8421952   5.823   3.355   1.190 -2.0177 -0.9107  1.3965
  155MOL    H8521953   5.594   3.323   1.183  3.1751  1.6318  0.5129
  155MOL    C8621954   5.839   3.284   0.986  0.2845  0.0275  1.1569
  155MOL    C8721955   5.990   3.295   0.996 -0.0377  0.3755 -0.3739
  155MOL    O8821956   6.039   3.171   1.047  0.3404  0.4768 -0.3595
  155MOL    H8921957   5.813   3.178   0.988  0.2530  0.0453  3.7852
  155MOL    H9021958   5.798   3.319   0.891  2.6568 -0.0797  0.0772
  155MOL    H9121959   6.015   3.377   1.064  0.8365  0.8195 -1.2157
  155MOL    H9221960   6.068   3.190   1.135  0.1626  0.0075 -0.1996
  155MOL    C9321961   6.047   3.304   0.852  0.4520 -0.4232  0.5569
  155MOL    C9421962   6.191   3.355   0.848  0.4900  0.3508 -0.1456
  155MOL    O9521963   6.259   3.326   0.730 -0.5946 -0.2097  0.2540
  155MOL    H9621964   6.039   3.206   0.805 -0.3989 -0.2032  0.2207
  155MOL    H9721965   5.998   3.378   0.789 -2.3358 -1.0674  1.8725
  155MOL    H9821966   6.253   3.295   0.914 -0.8800  0.6192  1.4096
  155MOL    H9921967   6.268   3.232   0.724  1.0015 -0.0017 -1.4337
  155MOL   C10021968   6.222   3.494   0.897 -0.6855 -0.4609  0.3378
  155MOL   C10121969   6.122   3.603   0.866  0.4321  0.2751  0.3407
  155MOL   O10221970   6.156   3.704   0.953 -0.1889  0.5898 -0.8085
  155MOL   H10321971   6.224   3.493   1.006 -1.2746  0.4917  0.3629
  155MOL   H10421972   6.319   3.532   0.865 -1.4011  1.8512  0.7827
  155MOL   H10521973   6.020   3.584   0.899  0.4355  1.5721  1.1116
  155MOL   H10621974   6.137   3.784   0.906  1.7395  1.2662 -0.4781
  155MOL   C10721975   6.129   3.643   0.722 -0.0666 -0.2408  0.6463
  155MOL   C10821976   6.026   3.750   0.677  0.0639 -0.6250 -0.5842
  155MOL   O10921977   6.073   3.876   0.741 -0.6114 -0.0715 -0.3478
  155MOL   H11021978   6.226   3.688   0.698 -0.0012 -0.4102  0.5939
  155MOL   H11121979   6.118   3.556   0.656  0.8792  0.7323 -0.8304
  155MOL   H11221980   5.927   3.727   0.716  0.5414 -1.5710  0.0733
  155MOL   H11321981   5.994   3.927   0.750  1.3975  3.1556 -0.3927
  155MOL   C11421982   6.022   3.775   0.526  0.5469 -0.1271 -0.6817
  155MOL   C11521983   5.918   3.863   0.459 -0.3070  0.5308 -0.0693
  155MOL   O11621984   5.950   3.873   0.322 -0.1065  0.0101  0.4693
  155MOL   H11721985   6.125   3.796   0.494  0.4629 -0.6342 -1.2975
  155MOL   H11821986   6.002   3.673   0.493  0.2548 -0.3804  0.2716
  155MOL   H11921987   5.925   3.967   0.491  0.3208  0.8501 -1.1814
  155MOL   H12021988   6.040   3.903   0.317 -0.0657  0.2108  2.2811
  155MOL   C12121989   5.773   3.808   0.483 -0.8165 -0.1150  0.0082
  155MOL   C12221990   5.655   3.908   0.477  0.4157 -0.1581 -0.8202
  155MOL   O12321991   5.649   3.982   0.595 -0.0469 -0.3573  0.1812
  155MOL   H12421992   5.760   3.718   0.423  2.0193  0.0847 -0.9860
  155MOL   H12521993   5.768   3.769   0.584 -0.2399 -0.4775 -0.1026
  155MOL   H12621994   5.558   3.859   0.485  0.3124  0.1565 -0.1087
  155MOL   H12721995   5.562   4.017   0.610  0.3204  1.0987 -0.9800
  155MOL   C12821996   5.653   3.997   0.357 -0.0396 -0.2394  0.0624
  155MOL   C12921997   5.611   3.935   0.228 -0.2140 -1.6222  0.4370
  155MOL   O13021998   5.490   3.876   0.240 -0.1393  0.1700 -0.2595
  155MOL   H13121999   5.606   4.092   0.383  0.0863 -0.2071  0.1748
  155MOL   H13222000   5.752   4.036   0.333 -0.1920  1.1366  1.6077
  155MOL   H13322001   5.690   3.863   0.208  1.1086  0.2712 -1.3857
  155MOL   H13422002   5.514   3.785   0.237 -1.3343 -0.2214  1.6001
  155MOL   C13522003   5.626   4.018   0.101  0.8690 -0.3999  0.3419
  155MOL   C13622004   5.770   4.044   0.051  0.5547  0.8738 -0.2691
  155MOL   O13722005   5.749   4.120   7.457 -0.6917 -0.5895 -1.1107
  155MOL   H13822006   5.581   3.972   0.013  2.1219  0.1071 -0.5749
  155MOL   H13922007   5.576   4.114   0.117  1.8672  0.0584  0.7438
  155MOL   H14022008   5.824   3.950   0.044 -0.1013  0.4230  0.6041
  155MOL   H14122009   5.753   4.060   7.384 -3.0964  0.5752 -2.2858
  155MOL   H14222010   5.821   4.106   0.126 -0.6912 -0.9445  2.1534
  156MOL     C122011   0.286   5.294   3.574  0.8029 -0.4847 -0.2316
  156MOL     C222012   0.300   5.427   3.652 -0.2636 -0.2075  0.0578
  156MOL     O322013   0.343   5.532   3.572 -0.0757 -0.5028  0.8707
  156MOL     H422014   0.274   5.215   3.648  1.2490  0.2416  0.6126
  156MOL     H522015   0.387   5.277   3.534  1.4508 -1.9921  1.9562
  156MOL     H622016   0.370   5.421   3.735  1.5910  2.4250 -1.2428
  156MOL     H722017   0.436   5.545   3.579 -0.6175  2.4327  3.9310
  156MOL     H822018   0.222   5.288   3.486  1.4990  0.0384 -0.7789
  156MOL     C922019   0.172   5.472   3.718 -0.0013  0.1542 -0.3007
  156MOL    C1022020   0.126   5.392   3.839  0.3358 -0.7137 -0.2558
  156MOL    O1122021   0.210   5.436   3.943 -0.6103  0.0739 -0.6855
  156MOL    H1222022   0.180   5.579   3.742  1.2175 -0.2072  0.9666
  156MOL    H1322023   0.100   5.466   3.636 -0.0647  2.3394 -0.4388
  156MOL    H1422024   0.127   5.283   3.835  0.7614 -0.6681 -2.0080
  156MOL    H1522025   0.250   5.518   3.920  2.0986 -1.6999 -2.6337
  156MOL    C1622026   7.503   5.424   3.887 -0.0429 -0.2535  0.3738
  156MOL    C1722027   7.391   5.392   3.784 -0.2621 -0.3356  0.2486
  156MOL    O1822028   7.400   5.248   3.754  0.1707 -0.2503 -0.3453
  156MOL    H1922029   7.491   5.373   3.983 -1.3666 -2.4522 -0.9139
  156MOL    H2022030   7.503   5.531   3.909  1.0482 -0.0443 -0.6168
  156MOL    H2122031   7.397   5.442   3.687  1.8421  0.5427  0.8136
  156MOL    H2222032   7.387   5.204   3.837 -1.4001 -0.3673 -0.6477
  156MOL    C2322033   7.247   5.406   3.822 -0.4579 -0.0065 -0.5215
  156MOL    C2422034   7.211   5.549   3.843  0.7258  0.1269 -0.2958
  156MOL    O2522035   7.219   5.628   3.724  0.1328 -0.6031 -0.1567
  156MOL    H2622036   7.186   5.368   3.740 -0.9831 -0.0942 -0.0933
  156MOL    H2722037   7.212   5.350   3.908  1.2836 -0.9024 -0.3771
  156MOL    H2822038   7.285   5.592   3.909 -0.0864  0.0762  0.6615
  156MOL    H2922039   7.140   5.620   3.673  0.0695 -2.4052  0.1846
  156MOL    C3022040   7.073   5.564   3.916  0.0067  0.1745  0.3738
  156MOL    C3122041   7.062   5.693   4.014 -0.3190  0.5493 -0.0150
  156MOL    O3222042   6.919   5.718   4.027  0.5058  0.5046  0.4500
  156MOL    H3322043   6.984   5.567   3.853  0.0519  2.5218  0.3685
  156MOL    H3422044   7.044   5.478   3.976 -2.6606  0.6792 -0.1152
  156MOL    H3522045   7.102   5.786   3.975 -1.1814  0.8400 -0.2003
  156MOL    H3622046   6.900   5.811   4.035 -0.2349  0.4838 -1.0065
  156MOL    C3722047   7.123   5.693   4.156  0.6588 -0.1227  0.1380
  156MOL    C3822048   7.265   5.735   4.179  0.1581 -0.3463  0.3986
  156MOL    O3922049   7.269   5.875   4.159 -0.7280  0.4990  0.3345
  156MOL    H4022050   7.066   5.749   4.230  0.9264  0.5900 -0.1877
  156MOL    H4122051   7.106   5.593   4.195 -4.0737  0.1937 -0.8527
  156MOL    H4222052   7.329   5.694   4.101 -1.4141  0.2545 -1.2569
  156MOL    H4322053   7.357   5.895   4.186 -0.4059  1.0055 -1.0310
  156MOL    C4422054   7.302   5.695   4.315  0.6435 -0.6097  0.2792
  156MOL    C4522055   7.449   5.721   4.366  0.3045  0.6230  0.1820
  156MOL    O4622056   7.479   5.856   4.347 -0.1364  0.4136  0.1508
  156MOL    H4722057   7.224   5.733   4.381 -0.3033 -2.5383  0.2861
  156MOL    H4822058   7.292   5.587   4.314 -2.2757 -0.3817 -0.2640
  156MOL    H4922059   7.508   5.655   4.302 -0.5619 -0.6448  0.6710
  156MOL    H5022060   0.047   5.865   4.312  1.8375  0.8940  4.9245
  156MOL    C5122061   7.469   5.670   4.505 -0.1158  0.1049 -0.1925
  156MOL    C5222062   0.090   5.618   4.543 -0.3935  0.4255  0.8208
  156MOL    O5322063   0.171   5.734   4.538 -0.0680 -0.1071 -0.2265
  156MOL    H5422064   7.442   5.743   4.581  0.0910  0.5235 -0.5222
  156MOL    H5522065   7.405   5.585   4.530  0.0275 -0.3383 -1.2879
  156MOL    H5622066   0.112   5.549   4.461 -2.3676  0.3373  0.3193
  156MOL    H5722067   0.209   5.745   4.452 -1.4207  0.6899 -0.7545
  156MOL    C5822068   0.093   5.560   4.688 -0.1178 -0.6750 -0.1347
  156MOL    C5922069   0.056   5.410   4.688  0.4263 -0.1728  0.2876
  156MOL    O6022070   0.164   5.325   4.650 -0.4713  0.0608  0.2671
  156MOL    H6122071   0.193   5.566   4.730  0.0865 -1.3264 -0.5149
  156MOL    H6222072   0.023   5.619   4.747 -0.3932  1.6872 -2.7113
  156MOL    H6322073   7.501   5.386   4.611  1.2365  1.3759 -1.0127
  156MOL    H6422074   0.237   5.382   4.632 -0.6374  0.0382 -0.4713
  156MOL    C6522075   0.022   5.359   4.820  0.3811  0.2036  0.2076
  156MOL    C6622076   7.431   5.430   4.889  0.2336 -0.3506 -0.0791
  156MOL    O6722077   7.307   5.404   4.812 -0.3041 -0.2704 -0.1727
  156MOL    H6822078   7.515   5.253   4.826  1.5898 -0.2207 -1.4774
  156MOL    H6922079   0.113   5.377   4.878  1.6649 -2.2186 -0.9591
  156MOL    H7022080   7.452   5.536   4.902 -1.9043  0.2972 -1.7063
  156MOL    H7122081   7.295   5.312   4.799  0.1424 -0.3273 -0.2054
  156MOL    C7222082   7.401   5.369   5.030 -0.4798 -0.6759  0.1869
  156MOL    C7322083   7.509   5.364   5.141  0.0209  0.3855  0.4045
  156MOL    O7422084   0.030   5.497   5.164 -0.3611 -0.1179 -0.3684
  156MOL    H7522085   7.320   5.422   5.081  1.6060  2.6183  0.2560
  156MOL    H7622086   7.367   5.265   5.024  0.2958 -1.0485  1.9066
  156MOL    H7722087   0.077   5.302   5.118 -0.7148 -1.5865  2.6795
  156MOL    H7822088   0.108   5.497   5.217 -0.8255  1.4553  0.3527
  156MOL    C7922089   7.448   5.308   5.274 -0.2892  0.4301  0.0197
  156MOL    C8022090   7.413   5.154   5.267 -0.8944  0.0651 -0.0097
  156MOL    O8122091   0.007   5.074   5.300 -0.1357 -0.9362  0.1680
  156MOL    H8222092   0.001   5.327   5.353 -1.3751  0.9758  0.8933
  156MOL    H8322093   7.357   5.361   5.303 -0.3551  0.6741 -0.6319
  156MOL    H8422094   7.386   5.118   5.168  0.2079  1.6988 -0.9385
  156MOL    H8522095   0.006   4.993   5.252  0.5324 -0.4019 -0.7657
  156MOL    C8622096   7.300   5.110   5.359 -0.2566 -0.3041  0.2400
  156MOL    C8722097   7.153   5.138   5.310  0.1321  0.4587  0.1547
  156MOL    O8822098   7.116   5.058   5.194  0.1532  0.0771 -0.4051
  156MOL    H8922099   7.298   5.001   5.354  0.8940 -0.2639 -1.7953
  156MOL    H9022100   7.320   5.136   5.463 -0.8638 -1.7012  0.7208
  156MOL    H9122101   7.149   5.245   5.289  0.3966  0.6277  0.9633
  156MOL    H9222102   7.022   5.058   5.196  0.1594 -0.9252  0.0674
  156MOL    C9322103   7.052   5.099   5.411 -0.4930 -0.2149 -0.1201
  156MOL    C9422104   6.917   5.175   5.395 -0.2382  0.0747  0.2727
  156MOL    O9522105   6.855   5.136   5.273 -0.1522 -0.4865  0.0252
  156MOL    H9622106   7.047   4.991   5.425  2.9547 -0.1067  2.7095
  156MOL    H9722107   7.096   5.137   5.503 -0.5720  0.3168 -0.2964
  156MOL    H9822108   6.928   5.283   5.389  0.5876  0.1095  2.2561
  156MOL    H9922109   6.883   5.196   5.205  0.1782 -0.4629  0.1825
  156MOL   C10022110   6.813   5.164   5.514 -0.0638 -0.0368  0.5866
  156MOL   C10122111   6.845   5.256   5.636  0.6427 -0.5096  0.3769
  156MOL   O10222112   6.812   5.387   5.602 -0.1174 -0.6023 -0.1675
  156MOL   H10322113   6.707   5.172   5.490  0.0354 -0.9406 -0.1532
  156MOL   H10422114   6.812   5.059   5.543 -0.8975  0.1905  1.4178
  156MOL   H10522115   6.954   5.251   5.647  0.8312 -0.3650 -1.2130
  156MOL   H10622116   6.893   5.431   5.582  1.4392 -1.7186  3.2707
  156MOL   C10722117   6.762   5.222   5.768  0.4260  0.7129 -0.5665
  156MOL   C10822118   6.823   5.280   5.899  0.7202 -0.2717 -0.1187
  156MOL   O10922119   6.832   5.422   5.887 -0.3223  0.3684  0.3756
  156MOL   H11022120   6.659   5.245   5.740  0.3569  0.2878 -0.6635
  156MOL   H11122121   6.757   5.113   5.772 -0.0561  0.6443 -2.5351
  156MOL   H11222122   6.922   5.235   5.908 -0.3507 -2.9023 -0.8762
  156MOL   H11322123   6.824   5.448   5.796  0.1739 -0.6866  0.0239
  156MOL   C11422124   6.732   5.270   6.018  0.1680 -0.0575  0.4000
  156MOL   C11522125   6.725   5.128   6.096  1.0177 -0.0717 -0.7375
  156MOL   O11622126   6.640   5.146   6.209  0.0095 -0.5971  0.0793
  156MOL   H11722127   6.763   5.346   6.090  0.2228  2.2904 -2.0023
  156MOL   H11822128   6.630   5.299   5.993  0.4499  0.1358 -0.5592
  156MOL   H11922129   6.826   5.097   6.124 -0.1916 -1.9955  1.7067
  156MOL   H12022130   6.691   5.191   6.275 -0.5466 -2.7934  2.0647
  156MOL   C12122131   6.676   5.007   6.018 -0.3006  0.3136  0.0776
  156MOL   C12222132   6.658   4.880   6.098  0.4895  0.1983 -0.0677
  156MOL   O12322133   6.592   4.792   5.998 -0.3486  0.1183  0.5119
  156MOL   H12422134   6.585   5.026   5.961  1.2863 -1.0256 -3.0919
  156MOL   H12522135   6.745   4.984   5.936 -0.0690 -0.6267  0.5277
  156MOL   H12622136   6.595   4.904   6.183 -0.4378  1.2187 -1.0182
  156MOL   H12722137   6.512   4.830   5.964  0.9849  1.7727 -0.8956
  156MOL   C12822138   6.789   4.817   6.151  0.4869 -0.2331  0.1093
  156MOL   C12922139   6.776   4.695   6.229  0.8577 -0.0867 -0.5673
  156MOL   O13022140   6.905   4.639   6.262 -0.0369 -0.0402 -0.9162
  156MOL   H13122141   6.846   4.792   6.061 -1.0866 -2.8862 -0.2159
  156MOL   H13222142   6.849   4.885   6.212 -0.4724  0.9265 -0.2079
  156MOL   H13322143   6.728   4.619   6.167 -1.2423  0.2758  0.5337
  156MOL   H13422144   6.940   4.619   6.177 -1.3420 -2.1066 -1.0245
  156MOL   C13522145   6.696   4.714   6.360 -0.3887 -0.2872 -0.6331
  156MOL   C13622146   6.695   4.582   6.442  0.3185 -0.1646 -0.0713
  156MOL   O13722147   6.616   4.597   6.558 -0.3574 -0.4673 -0.5556
  156MOL   H13822148   6.743   4.797   6.413 -1.6754 -0.0458  0.1688
  156MOL   H13922149   6.592   4.737   6.339  0.9846  2.2245 -5.3850
  156MOL   H14022150   6.794   4.552   6.475 -0.5561 -0.0686  2.8112
  156MOL   H14122151   6.525   4.608   6.536 -0.9113  0.0764  1.7811
  156MOL   H14222152   6.654   4.506   6.376  0.9975 -1.9845  1.5764
  157MOL     C122153   3.754   6.514   1.897 -0.2222  0.5322  0.6403
  157MOL     C222154   3.733   6.394   1.995  0.3560  0.6493  0.7719
  157MOL     O322155   3.856   6.377   2.076  0.2597 -0.3020  0.7055
  157MOL     H422156   3.660   6.553   1.857  0.5992  1.5720 -0.3129
  157MOL     H522157   3.806   6.474   1.810  0.1049 -0.3813  1.2518
  157MOL     H622158   3.730   6.300   1.941  3.7639  1.1073 -0.3287
  157MOL     H722159   3.863   6.288   2.108  0.1264  0.6497  3.4677
  157MOL     H822160   3.809   6.593   1.949 -0.1925  1.8181 -1.2696
  157MOL     C922161   3.604   6.408   2.086  0.1342 -0.6098 -0.4845
  157MOL    C1022162   3.525   6.276   2.116 -0.7040 -0.2785  0.1695
  157MOL    O1122163   3.464   6.307   2.240 -0.3559  0.8592 -0.1206
  157MOL    H1222164   3.638   6.466   2.171  1.6260 -1.1703 -0.6726
  157MOL    H1322165   3.539   6.479   2.036 -1.3400  0.6724  3.1338
  157MOL    H1422166   3.601   6.200   2.131 -0.3036  0.1165  0.1805
  157MOL    H1522167   3.425   6.229   2.277  2.2793 -0.4605 -0.0721
  157MOL    C1622168   3.413   6.245   2.012 -0.2942 -0.7137 -0.3421
  157MOL    C1722169   3.445   6.200   1.872  0.0846 -0.3103 -0.2589
  157MOL    O1822170   3.491   6.313   1.791 -0.6205  0.4083  0.2736
  157MOL    H1922171   3.351   6.167   2.056 -0.9931  0.7497  1.3071
  157MOL    H2022172   3.340   6.325   2.002 -0.0551 -0.3684  0.6740
  157MOL    H2122173   3.351   6.174   1.824  0.1142  1.9106 -1.6019
  157MOL    H2222174   3.425   6.327   1.725 -0.9433 -0.6130  0.3747
  157MOL    C2322175   3.530   6.075   1.861  0.3019  0.1533 -0.0542
  157MOL    C2422176   3.457   5.948   1.896  0.3010 -0.7921 -0.3205
  157MOL    O2522177   3.361   5.918   1.792 -0.2010 -0.4930  0.6907
  157MOL    H2622178   3.563   6.069   1.757  2.8351 -0.3638  0.7424
  157MOL    H2722179   3.628   6.095   1.905  0.2627  1.3301 -0.4753
  157MOL    H2822180   3.407   5.961   1.991  0.3526  1.9066 -0.6413
  157MOL    H2922181   3.407   5.923   1.710  0.7924  0.7846  1.2925
  157MOL    C3022182   3.540   5.823   1.926  0.2521 -0.7574 -0.4988
  157MOL    C3122183   3.669   5.839   2.018  0.9334  0.3076  0.6013
  157MOL    O3222184   3.636   5.907   2.134 -0.2994 -0.0530 -0.6213
  157MOL    H3322185   3.477   5.738   1.953 -0.8050 -0.0586 -0.7170
  157MOL    H3422186   3.575   5.792   1.827  0.5681  0.2122 -0.6908
  157MOL    H3522187   3.740   5.903   1.966 -0.7588  0.2375 -1.9213
  157MOL    H3622188   3.589   5.849   2.192  0.0295  1.8994  1.6433
  157MOL    C3722189   3.749   5.708   2.056  0.2872  0.7061 -0.2927
  157MOL    C3822190   3.797   5.597   1.953 -0.0274  0.0822  0.7290
  157MOL    O3922191   3.924   5.559   1.993 -0.1379  0.4894  0.2118
  157MOL    H4022192   3.835   5.757   2.102  1.2911 -1.5813  0.2906
  157MOL    H4122193   3.698   5.655   2.136 -1.7069  2.1108 -0.5842
  157MOL    H4222194   3.798   5.655   1.860  0.7934 -0.2609  0.5243
  157MOL    H4322195   3.916   5.521   2.079  0.4440 -0.2477 -0.0580
  157MOL    C4422196   3.689   5.486   1.937 -0.0440  0.6815  0.5216
  157MOL    C4522197   3.643   5.464   1.793  0.3258 -0.2448  0.1789
  157MOL    O4622198   3.762   5.440   1.718 -0.2755  0.4411 -0.3514
  157MOL    H4722199   3.724   5.392   1.979  1.3980  1.3754  0.8947
  157MOL    H4822200   3.592   5.507   1.983 -0.6084 -0.5703 -0.0681
  157MOL    H4922201   3.596   5.555   1.755 -2.8165 -1.5198  0.8589
  157MOL    H5022202   3.796   5.357   1.749  2.0769  2.2305  2.0672
  157MOL    C5122203   3.544   5.340   1.779 -0.1862 -0.1990  0.2104
  157MOL    C5222204   3.472   5.329   1.643 -0.3816  0.3997  0.1954
  157MOL    O5322205   3.425   5.197   1.628  0.8391 -0.0916  0.0356
  157MOL    H5422206   3.603   5.254   1.810  0.5035 -0.4664 -1.7636
  157MOL    H5522207   3.467   5.343   1.856 -2.8834 -1.1320 -2.3602
  157MOL    H5622208   3.541   5.338   1.560 -3.9626 -2.3771 -3.3000
  157MOL    H5722209   3.390   5.183   1.541 -0.3067 -1.5261  0.7080
  157MOL    C5822210   3.339   5.415   1.618  0.2904  0.4997 -0.7758
  157MOL    C5922211   3.359   5.565   1.588 -0.2537 -0.4053 -0.3684
  157MOL    O6022212   3.395   5.600   1.458 -0.2275  0.3752  0.3339
  157MOL    H6122213   3.293   5.371   1.529 -3.0440  1.3241  0.4736
  157MOL    H6222214   3.262   5.404   1.694  0.7937  0.8355 -0.2127
  157MOL    H6322215   3.442   5.601   1.648 -1.5221  0.5539  0.8467
  157MOL    H6422216   3.421   5.690   1.469  0.5134  0.1553  0.4136
  157MOL    C6522217   3.229   5.646   1.616 -0.4650  0.0706 -0.1417
  157MOL    C6622218   3.154   5.636   1.753  0.6001  1.0090  0.5958
  157MOL    O6722219   3.244   5.650   1.861  0.3840 -0.6596 -0.1833
  157MOL    H6822220   3.252   5.751   1.595  0.7514 -0.0833  0.3835
  157MOL    H6922221   3.155   5.626   1.539 -0.0240 -1.0661 -0.2849
  157MOL    H7022222   3.105   5.539   1.760  0.1899  1.1615 -0.1257
  157MOL    H7122223   3.295   5.729   1.852  0.7072 -0.8604 -0.1108
  157MOL    C7222224   3.041   5.747   1.769  0.4381  0.4297  0.0941
  157MOL    C7322225   2.916   5.692   1.690  0.1393 -0.2955  0.3052
  157MOL    O7422226   2.859   5.601   1.779  0.1919  0.1968  0.6973
  157MOL    H7522227   3.003   5.756   1.871  0.4960  0.4764  0.1113
  157MOL    H7622228   3.079   5.843   1.737  0.4100  0.8033  1.1444
  157MOL    H7722229   2.944   5.648   1.595  0.7171  1.5169 -0.3909
  157MOL    H7822230   2.782   5.563   1.740  1.5500 -0.1535 -1.6938
  157MOL    C7922231   2.810   5.803   1.664 -0.7256  0.2309  1.0027
  157MOL    C8022232   2.835   5.890   1.536 -0.0612 -0.4057  0.4348
  157MOL    O8122233   2.706   5.912   1.475  0.5329 -0.2132  0.1342
  157MOL    H8222234   2.713   5.755   1.651 -0.5720  0.1687  0.0567
  157MOL    H8322235   2.794   5.874   1.744 -0.9244  3.1332 -1.5289
  157MOL    H8422236   2.904   5.842   1.466  0.3059  0.4611  0.1948
  157MOL    H8522237   2.724   5.920   1.383 -3.2560 -1.3204 -0.7796
  157MOL    C8622238   2.885   6.034   1.569 -0.3053  0.2798 -0.2194
  157MOL    C8722239   2.935   6.106   1.446  0.4938 -0.2489  0.4608
  157MOL    O8822240   2.892   6.243   1.436 -0.2906 -0.0061  0.1429
  157MOL    H8922241   2.808   6.088   1.623  1.6267  0.1122  2.8395
  157MOL    H9022242   2.960   6.027   1.648 -0.8244 -1.7841  0.1109
  157MOL    H9122243   2.898   6.060   1.355 -1.0096  0.1302  0.8647
  157MOL    H9222244   2.874   6.266   1.347  0.2564 -0.5581 -0.1142
  157MOL    C9322245   3.092   6.107   1.434 -0.2668  0.1999  0.1002
  157MOL    C9422246   3.149   5.970   1.398 -0.0006  0.1204 -0.5080
  157MOL    O9522247   3.088   5.930   1.277  0.3775 -0.4554  0.6437
  157MOL    H9622248   3.130   6.183   1.366 -0.0340  2.3087  2.5422
  157MOL    H9722249   3.141   6.135   1.527  0.0291  0.9553 -0.2828
  157MOL    H9822250   3.111   5.898   1.471  0.3348 -1.0970 -1.5328
  157MOL    H9922251   3.151   5.903   1.211 -0.2579 -0.2444 -0.0599
  157MOL   C10022252   3.301   5.972   1.380 -0.1885  0.4275  0.1458
  157MOL   C10122253   3.399   6.023   1.489 -0.1614  0.3160  0.3896
  157MOL   O10222254   3.488   5.918   1.526 -0.0239 -0.7206 -0.1738
  157MOL   H10322255   3.316   5.865   1.364  0.2139  0.5508 -0.3243
  157MOL   H10422256   3.321   6.028   1.289 -0.4071  1.1720  0.5552
  157MOL   H10522257   3.349   6.051   1.582 -0.6424 -0.0741  0.2484
  157MOL   H10622258   3.565   5.910   1.472  0.6938 -0.5212  0.8111
  157MOL   C10722259   3.488   6.141   1.429 -0.0838 -0.3049  0.9501
  157MOL   C10822260   3.417   6.278   1.401 -0.1709 -0.4313  0.2189
  157MOL   O10922261   3.349   6.321   1.523  0.2956 -0.3271  0.2025
  157MOL   H11022262   3.561   6.152   1.510  2.1763 -1.2335 -0.9098
  157MOL   H11122263   3.542   6.096   1.346 -1.5096 -0.5136  0.1160
  157MOL   H11222264   3.336   6.276   1.329  0.0239  0.7203 -0.0447
  157MOL   H11322265   3.325   6.411   1.504 -0.9839 -0.3168  1.8062
  157MOL   C11422266   3.512   6.386   1.355 -0.1153  0.1299  0.1775
  157MOL   C11522267   3.442   6.509   1.291  0.1907  0.2229 -0.1857
  157MOL   O11622268   3.357   6.567   1.388  0.0023 -0.1397  0.5418
  157MOL   H11722269   3.589   6.412   1.428  2.3302 -0.5052 -2.0596
  157MOL   H11822270   3.572   6.344   1.274 -0.2189 -0.3370  0.3402
  157MOL   H11922271   3.373   6.485   1.210 -1.6495 -2.0510  1.9514
  157MOL   H12022272   3.418   6.618   1.439  2.3592 -0.8286 -1.4847
  157MOL   C12122273   3.539   6.622   1.257 -0.0167 -0.0855  0.2328
  157MOL   C12222274   3.633   6.593   1.131  0.4758 -0.1975  0.8071
  157MOL   O12322275   3.542   6.563   1.024  0.3972 -0.1721  0.3344
  157MOL   H12422276   3.481   6.712   1.237 -1.3898 -0.8966  0.4900
  157MOL   H12522277   3.603   6.646   1.342  1.3420  1.0703 -1.0861
  157MOL   H12622278   3.688   6.502   1.157 -0.3372 -0.7196  0.7235
  157MOL   H12722279   3.529   6.644   0.978  1.7472 -1.6523 -2.8696
  157MOL   C12822280   3.739   6.703   1.087 -0.4826 -0.0230  0.4291
  157MOL   C12922281   3.801   6.700   0.949  0.2075 -0.4361 -0.0985
  157MOL   O13022282   3.886   6.814   0.932  0.3662 -0.1932 -0.3489
  157MOL   H13122283   3.678   6.793   1.103 -0.3753  0.1421 -0.0963
  157MOL   H13222284   3.819   6.714   1.161 -1.6675  1.8011  1.4969
  157MOL   H13322285   3.724   6.718   0.874 -0.4849 -2.0795  0.2036
  157MOL   H13422286   3.969   6.789   0.969  0.7444  1.0280 -0.3321
  157MOL   C13522287   3.873   6.570   0.910 -0.0913  0.4224 -0.3355
  157MOL   C13622288   3.956   6.571   0.781 -0.3089  0.4072 -0.2605
  157MOL   O13722289   3.966   6.447   0.714 -0.6217  0.7005 -0.3115
  157MOL   H13822290   3.934   6.523   0.987  1.6329  1.9860 -0.7267
  157MOL   H13922291   3.797   6.493   0.894  0.8152 -0.1453 -2.0942
  157MOL   H14022292   4.053   6.621   0.792  0.2608 -1.1294  1.8411
  157MOL   H14122293   3.995   6.384   0.778  0.8674 -0.0161 -1.6509
  157MOL   H14222294   3.906   6.619   0.697 -0.6231  1.8439  0.7317
  158MOL     C122295   7.513   4.770   0.554  0.4652 -0.2324  0.2252
  158MOL     C222296   0.104   4.677   0.503  0.5218  0.4615  0.6829
  158MOL     O322297   0.066   4.655   0.365 -0.2320 -0.6391 -0.0973
  158MOL     H422298   7.417   4.718   0.546  0.5004  0.0183 -2.1643
  158MOL     H522299   7.516   4.860   0.493  2.3658  0.0111  0.6577
  158MOL     H622300   0.106   4.577   0.545 -0.7231  0.1922  0.1043
  158MOL     H722301   0.019   4.574   0.358 -0.2293 -0.5487 -1.4265
  158MOL     H822302   0.014   4.810   0.653 -1.4712 -0.0377  0.5655
  158MOL     C922303   0.243   4.739   0.535  0.0649 -0.2146 -0.3956
  158MOL    C1022304   0.368   4.663   0.492  0.0281 -0.2319  0.5487
  158MOL    O1122305   0.479   4.757   0.492  0.4197  0.1748  0.0915
  158MOL    H1222306   0.242   4.834   0.483 -2.1331 -0.1880 -0.3553
  158MOL    H1322307   0.258   4.780   0.635  0.5400  0.1588 -0.6215
  158MOL    H1422308   0.351   4.632   0.390  0.4810  1.8345 -0.1765
  158MOL    H1522309   0.492   4.800   0.408 -0.4073  2.8859  1.3007
  158MOL    C1622310   0.418   4.536   0.576  0.5305  0.1426  0.1950
  158MOL    C1722311   0.556   4.474   0.540 -0.1021  0.2995 -0.4941
  158MOL    O1822312   0.584   4.380   0.640  0.0565 -0.2814 -0.8108
  158MOL    H1922313   0.404   4.574   0.678  1.8343 -2.0204  1.2134
  158MOL    H2022314   0.336   4.467   0.555  1.3600 -0.7406 -0.1462
  158MOL    H2122315   0.638   4.546   0.542  1.1651 -1.0020 -3.4579
  158MOL    H2222316   0.676   4.361   0.650  0.0389 -0.4906 -1.0481
  158MOL    C2322317   0.562   4.404   0.400 -0.5395  0.1937  0.0080
  158MOL    C2422318   0.709   4.385   0.356 -0.3652 -0.3690  0.1995
  158MOL    O2522319   0.711   4.284   0.257  0.3519  0.2078 -0.2542
  158MOL    H2622320   0.510   4.309   0.413  2.9545 -1.5354  2.2787
  158MOL    H2722321   0.520   4.470   0.325 -1.3571 -0.0498  0.2513
  158MOL    H2822322   0.778   4.352   0.434 -0.4632  3.6825  2.1426
  158MOL    H2922323   0.703   4.197   0.294  1.3614  0.3966  0.4482
  158MOL    C3022324   0.767   4.515   0.290  0.5675 -0.2196 -0.3721
  158MOL    C3122325   0.910   4.497   0.226  0.0186 -0.2067  0.4596
  158MOL    O3222326   0.926   4.599   0.132 -0.0848 -0.3445 -0.4041
  158MOL    H3322327   0.696   4.544   0.213  0.5289 -0.9790 -0.6258
  158MOL    H3422328   0.767   4.598   0.360  1.7813 -0.0666 -0.5405
  158MOL    H3522329   0.910   4.409   0.162  0.2609  0.5159 -0.5419
  158MOL    H3622330   0.884   4.675   0.170  1.9579  1.2498 -1.2560
  158MOL    C3722331   1.031   4.508   0.317  1.1986 -0.4585  0.3925
  158MOL    C3822332   1.049   4.421   0.446 -0.2102  1.0318 -0.1938
  158MOL    O3922333   0.975   4.476   0.550  0.0352 -0.6239  0.5113
  158MOL    H4022334   1.113   4.479   0.252  0.1608 -1.2819 -0.5815
  158MOL    H4122335   1.037   4.614   0.339 -0.3594  0.5001 -3.3870
  158MOL    H4222336   1.151   4.443   0.477 -1.2264  2.4779  2.2664
  158MOL    H4322337   0.985   4.570   0.548  1.4467 -0.7923 -1.0632
  158MOL    C4422338   1.034   4.274   0.421  0.1171  0.1045 -0.3411
  158MOL    C4522339   1.132   4.197   0.325 -0.2828  0.2951 -0.0589
  158MOL    O4622340   1.250   4.191   0.403  0.3261 -0.3204  0.0640
  158MOL    H4722341   1.030   4.221   0.516  2.0853 -1.1625 -0.9301
  158MOL    H4822342   0.940   4.243   0.374  0.0973  3.5635 -2.7979
  158MOL    H4922343   1.165   4.243   0.232 -1.1371  1.6453  0.3015
  158MOL    H5022344   1.253   4.111   0.453 -0.1869  0.6141  1.6554
  158MOL    C5122345   1.085   4.056   0.290 -0.5479 -0.1198 -0.5067
  158MOL    C5222346   0.980   4.063   0.175 -0.4442 -0.1620  0.4331
  158MOL    O5322347   1.050   4.085   0.059  0.3063  0.2024 -0.4688
  158MOL    H5422348   1.173   4.009   0.247 -0.6060 -0.7340  0.0399
  158MOL    H5522349   1.058   3.999   0.379 -1.8225 -1.3497 -1.6382
  158MOL    H5622350   0.916   4.150   0.194  1.9829  1.7353  0.2319
  158MOL    H5722351   0.999   4.126   7.510  0.1734 -0.1104 -0.5538
  158MOL    C5822352   0.887   3.947   0.178  0.0177 -0.6776  0.1612
  158MOL    C5922353   0.797   3.917   0.303 -0.1412  0.3392  0.0659
  158MOL    O6022354   0.725   4.037   0.335  0.2182  0.8621 -0.0598
  158MOL    H6122355   0.819   3.958   0.094 -0.6922 -2.2509  0.5164
  158MOL    H6222356   0.948   3.860   0.155 -1.7837 -2.1884  0.9537
  158MOL    H6322357   0.860   3.884   0.386  1.7457  0.7629 -1.1863
  158MOL    H6422358   0.714   4.049   0.428  2.7897  0.4092  0.3511
  158MOL    C6522359   0.688   3.813   0.267  0.6484 -0.1337 -0.1541
  158MOL    C6622360   0.725   3.666   0.308 -0.4603 -0.1020  0.2167
  158MOL    O6722361   0.618   3.591   0.256 -0.1808 -0.5878  0.1108
  158MOL    H6822362   0.590   3.841   0.306  1.1382  0.0860  0.9552
  158MOL    H6922363   0.664   3.826   0.162 -1.5640  1.2513  0.4781
  158MOL    H7022364   0.725   3.658   0.417  1.2209  1.1699  0.3207
  158MOL    H7122365   0.535   3.621   0.290 -1.8251 -1.1599 -3.1745
  158MOL    C7222366   0.852   3.623   0.240  0.0593 -0.0039  0.3429
  158MOL    C7322367   0.885   3.471   0.240 -0.4292 -0.4629  0.4294
  158MOL    O7422368   0.990   3.452   0.145 -0.0478  0.1304  0.8328
  158MOL    H7522369   0.857   3.666   0.140 -3.1294  0.9964  0.5549
  158MOL    H7622370   0.941   3.674   0.278 -1.1179 -0.2113  3.4944
  158MOL    H7722371   0.804   3.404   0.211 -1.0390  0.6124 -0.3976
  158MOL    H7822372   0.958   3.476   0.059  2.3191 -0.2623 -0.1843
  158MOL    C7922373   0.938   3.421   0.374  0.5668  0.7596 -0.1766
  158MOL    C8022374   0.990   3.276   0.397  0.1542  0.1727  0.1651
  158MOL    O8122375   1.001   3.257   0.542  0.2611 -0.2314  0.0779
  158MOL    H8222376   1.014   3.489   0.412 -1.3242  1.5511  2.3032
  158MOL    H8322377   0.859   3.432   0.448 -0.6002 -3.6160 -0.6231
  158MOL    H8422378   1.087   3.264   0.348  0.5757 -2.0110  1.4984
  158MOL    H8522379   0.914   3.253   0.578  0.0061 -2.1369 -0.6602
  158MOL    C8622380   0.905   3.160   0.341  0.5896  0.7252 -0.2832
  158MOL    C8722381   0.953   3.017   0.372  0.1194 -0.3257  0.1289
  158MOL    O8822382   0.867   2.938   0.299 -0.1806  0.2459  0.0454
  158MOL    H8922383   0.809   3.162   0.394  1.4533  3.0929  1.2648
  158MOL    H9022384   0.891   3.169   0.233 -1.5001 -2.2022 -0.3074
  158MOL    H9122385   0.939   2.990   0.476  1.4770  0.0870  0.4265
  158MOL    H9222386   0.889   2.950   0.208  0.3250 -0.0774  0.1231
  158MOL    C9322387   1.106   2.981   0.345 -0.7267  0.1391 -0.0119
  158MOL    C9422388   1.158   3.038   0.213  0.1682  0.0124  1.1345
  158MOL    O9522389   1.292   3.052   0.232 -0.3191  0.6937  0.4212
  158MOL    H9622390   1.160   3.028   0.427 -0.0768 -1.6684  0.6281
  158MOL    H9722391   1.128   2.874   0.348  1.9524  0.5990 -1.3765
  158MOL    H9822392   1.116   3.137   0.198 -0.6716 -0.4153  0.6393
  158MOL    H9922393   1.309   3.145   0.231 -3.1151  1.2271 -1.4792
  158MOL   C10022394   1.136   2.941   0.093 -0.2392 -0.1460 -0.6606
  158MOL   C10122395   1.043   2.990   7.492 -0.8621  0.2569  0.4094
  158MOL   O10222396   0.907   2.975   0.019 -0.0883  0.3177  0.0047
  158MOL   H10322397   1.233   2.931   0.044 -0.3659 -1.9555 -0.5809
  158MOL   H10422398   1.105   2.842   0.126 -1.4222  1.0613  2.0247
  158MOL   H10522399   1.062   2.923   7.408  0.2427 -0.0237  0.8692
  158MOL   H10622400   0.845   2.994   7.469  1.1015  0.1430 -1.1337
  158MOL   C10722401   1.064   3.127   7.432 -0.1501 -0.9066 -0.0208
  158MOL   C10822402   1.210   3.166   7.394 -0.5187 -0.0884 -0.0623
  158MOL   O10922403   1.256   3.087   7.286  0.0896 -0.0499 -0.3226
  158MOL   H11022404   0.988   3.145   7.356 -1.1892 -0.6696  1.0612
  158MOL   H11122405   1.055   3.196   7.516  1.9474  0.5324 -0.9216
  158MOL   H11222406   1.284   3.140   7.469  1.3824 -0.2056 -1.9404
  158MOL   H11322407   1.211   3.107   7.205  2.1959  1.2883 -1.1843
  158MOL   C11422408   1.203   3.310   7.345 -0.9994  0.7513 -0.8790
  158MOL   C11522409   1.340   3.380   7.342 -0.5430 -0.9129  0.2086
  158MOL   O11622410   1.407   3.316   7.239 -0.0057 -0.3028  0.1722
  158MOL   H11722411   1.144   3.320   7.254 -1.3089 -0.0291 -0.7686
  158MOL   H11822412   1.133   3.365   7.408  0.0056 -0.2591  1.1732
  158MOL   H11922413   1.400   3.357   7.430 -2.5052  2.6216  2.5388
  158MOL   H12022414   1.388   3.224   7.245 -0.7292 -0.0226  2.9075
  158MOL   C12122415   1.338   3.532   7.314  1.0020  0.0317 -1.5239
  158MOL   C12222416   1.273   3.614   7.429  0.2607  0.6169 -0.4695
  158MOL   O12322417   1.385   3.667   7.491  0.0842 -0.2256 -0.0092
  158MOL   H12422418   1.440   3.562   7.292  1.1102  2.2598  1.6601
  158MOL   H12522419   1.285   3.549   7.221 -2.5908  1.5507  0.7184
  158MOL   H12622420   1.222   3.550   7.501 -0.1592  0.5766 -0.8026
  158MOL   H12722421   1.412   3.741   7.439  1.7907 -1.4426 -0.8872
  158MOL   C12822422   1.171   3.712   7.379 -0.3915 -0.2823 -0.1927
  158MOL   C12922423   1.040   3.667   7.323  0.0912  0.3218  0.0309
  158MOL   O13022424   0.970   3.599   7.425  0.7100  0.0610  0.2532
  158MOL   H13122425   1.143   3.776   7.463 -0.3295  0.3870 -0.6796
  158MOL   H13222426   1.227   3.762   7.300  1.3704  1.0131  1.8430
  158MOL   H13322427   1.069   3.587   7.254  1.3866  0.3390  0.5425
  158MOL   H13422428   0.888   3.585   7.380  1.0597  0.6204 -0.5813
  158MOL   C13522429   0.955   3.780   7.253  0.1061  0.2262 -0.0559
  158MOL   C13622430   1.032   3.853   7.139  0.1942  0.2708  0.3077
  158MOL   O13722431   0.942   3.961   7.105  0.3734 -0.4634 -0.0325
  158MOL   H13822432   0.860   3.737   7.220 -0.0170 -0.5669  1.2743
  158MOL   H13922433   0.922   3.853   7.326 -2.1261  2.5289 -3.2280
  158MOL   H14022434   1.053   3.791   7.052 -0.0518  1.2966 -0.4890
  158MOL   H14122435   0.973   3.992   7.021  0.5700  1.2917  0.6788
  158MOL   H14222436   1.127   3.889   7.177 -0.6498 -0.8553  3.6786
  159MOL     C122437   7.260   3.386   7.337  0.2567 -0.7118  0.3767
  159MOL     C222438   7.399   3.401   7.388  0.2537 -0.2750  0.0142
  159MOL     O322439   7.415   3.521   7.464  0.0562  0.0048  0.6483
  159MOL     H422440   7.193   3.380   7.423  0.3554 -1.0638  0.4297
  159MOL     H522441   7.244   3.305   7.266  2.0049 -0.3946 -0.4137
  159MOL     H622442   7.461   3.405   7.299  1.4159 -0.4922  0.8073
  159MOL     H722443   7.503   3.555   7.457 -0.0774 -0.1032 -1.8273
  159MOL     H822444   7.225   3.478   7.290  3.0679 -0.8243 -2.0740
  159MOL     C922445   7.441   3.268   7.464 -0.2132 -0.5879  0.3902
  159MOL    C1022446   0.075   3.220   7.446  0.2902  0.1177 -0.2193
  159MOL    O1122447   0.162   3.317   7.493 -0.0517  0.7150 -0.4519
  159MOL    H1222448   7.406   3.276   0.047  1.2089 -1.0776  0.9181
  159MOL    H1322449   7.380   3.191   7.416 -3.1470  3.1685 -2.2630
  159MOL    H1422450   0.088   3.207   7.338  1.5108  1.7265 -0.3054
  159MOL    H1522451   0.130   3.345   0.058 -2.2104 -1.6751 -0.4179
  159MOL    C1622452   0.118   3.095   0.001 -0.3501 -0.0337 -0.1936
  159MOL    C1722453   0.030   2.976   7.499 -0.0754  0.4843 -0.1053
  159MOL    O1822454   0.056   2.934   7.358 -0.1966 -0.0290  0.3101
  159MOL    H1922455   0.220   3.063   7.497  0.0390  0.7868  0.3984
  159MOL    H2022456   0.102   3.124   0.104 -0.6558  2.6735 -0.9579
  159MOL    H2122457   7.449   3.014   7.517 -0.3401  0.7360 -2.0425
  159MOL    H2222458   0.141   2.971   7.340  0.1358 -0.0168  1.7715
  159MOL    C2322459   0.059   2.852   0.065 -0.7477 -0.0529  0.1526
  159MOL    C2422460   0.033   2.863   0.218  0.0223  0.4042  0.1245
  159MOL    O2522461   0.141   2.934   0.275  0.2413  0.1411  0.2003
  159MOL    H2622462   7.508   2.775   0.032 -0.8264 -0.5685  1.5088
  159MOL    H2722463   0.159   2.813   0.043  0.5531  2.0051  2.2402
  159MOL    H2822464   0.042   2.763   0.259  1.5168  0.6340  0.3640
  159MOL    H2922465   0.188   2.887   0.342  1.8431 -0.4013 -1.2450
  159MOL    C3022466   7.420   2.933   0.250  0.9277  0.0433 -0.3711
  159MOL    C3122467   7.294   2.860   0.177 -0.0954 -0.4244  1.3904
  159MOL    O3222468   7.301   2.721   0.222 -0.1844  0.4087 -0.2251
  159MOL    H3322469   7.398   2.934   0.357 -2.9598  2.8856 -1.0873
  159MOL    H3422470   7.427   3.036   0.217  0.8496  0.6026  1.3601
  159MOL    H3522471   7.305   2.865   0.069 -0.3935 -3.7790  1.1508
  159MOL    H3622472   7.290   2.669   0.144  0.9347  1.0253 -0.8048
  159MOL    C3722473   7.148   2.919   0.214  0.1608  0.0031 -0.0499
  159MOL    C3822474   7.138   3.077   0.209 -0.7491  0.3482  0.0138
  159MOL    O3922475   7.133   3.109   0.074 -0.4333 -0.3390  0.1426
  159MOL    H4022476   7.067   2.874   0.157 -0.2340  0.9748 -0.2608
  159MOL    H4122477   7.136   2.891   0.319  3.0201 -0.0634  0.3147
  159MOL    H4222478   7.227   3.121   0.254 -1.1731 -0.9625  2.1940
  159MOL    H4322479   7.065   3.052   0.040  0.2677 -0.9354 -0.2673
  159MOL    C4422480   7.018   3.126   0.287  0.2538 -0.5585  0.3679
  159MOL    C4522481   7.024   3.280   0.333  0.3048 -0.6056  0.4777
  159MOL    O4622482   6.894   3.326   0.356 -0.3928 -0.0770 -0.5339
  159MOL    H4722483   6.932   3.118   0.221 -0.5217 -0.3782  1.3365
  159MOL    H4822484   6.995   3.069   0.377  0.6421 -0.5107  0.4985
  159MOL    H4922485   7.059   3.339   0.248  1.3595 -1.9354 -0.0145
  159MOL    H5022486   6.856   3.270   0.422  0.0452  0.9641  0.5986
  159MOL    C5122487   7.122   3.314   0.449  0.0213 -0.4798  0.8571
  159MOL    C5222488   7.262   3.374   0.398  0.6220  1.2413 -0.2584
  159MOL    O5322489   7.253   3.516   0.386  0.1178  0.2144 -0.6171
  159MOL    H5422490   7.085   3.383   0.525  3.3297  2.2350  0.1254
  159MOL    H5522491   7.143   3.232   0.517  1.5198  0.3629  1.4572
  159MOL    H5622492   7.289   3.330   0.301  0.0579  0.1622  0.0705
  159MOL    H5722493   7.235   3.535   0.295  0.2896 -2.0271 -1.1496
  159MOL    C5822494   7.376   3.339   0.500  0.4260  0.1357  0.3830
  159MOL    C5922495   7.424   3.197   0.489 -0.0980 -0.0374 -0.3760
  159MOL    O6022496   0.011   3.193   0.393  0.1975  0.5673 -0.0386
  159MOL    H6122497   7.461   3.406   0.490  0.9885 -0.6190  0.0084
  159MOL    H6222498   7.339   3.362   0.600  1.8673  2.7465  0.3515
  159MOL    H6322499   7.338   3.136   0.456  1.5211 -2.5855 -0.0404
  159MOL    H6422500   0.025   3.104   0.367  1.4804  0.6885  0.1743
  159MOL    C6522501   7.480   3.137   0.620  0.0961 -0.3769 -0.1834
  159MOL    C6622502   7.379   3.072   0.717 -0.4523 -0.0222  0.4460
  159MOL    O6722503   7.277   3.158   0.756  0.1511  0.0345  0.1902
  159MOL    H6822504   0.037   3.068   0.586 -1.6075 -1.1199 -2.6001
  159MOL    H6922505   0.015   3.213   0.676 -0.0632 -1.2244  1.1449
  159MOL    H7022506   7.422   3.038   0.811 -1.0089 -3.3310 -0.4139
  159MOL    H7122507   7.317   3.221   0.815 -0.0294 -0.7071  1.1285
  159MOL    C7222508   7.303   2.949   0.663 -0.1390  0.3520 -0.2957
  159MOL    C7322509   7.216   2.876   0.769 -0.3145  0.3786  0.2918
  159MOL    O7422510   7.095   2.953   0.768 -0.0706  0.4312 -0.6934
  159MOL    H7522511   7.240   2.979   0.580 -3.4170 -1.5530  1.4025
  159MOL    H7622512   7.377   2.878   0.626 -0.9764 -0.9750  0.4914
  159MOL    H7722513   7.273   2.867   0.861  0.9296  1.7450 -0.3131
  159MOL    H7822514   7.118   3.045   0.775  1.2261  0.0510  0.1937
  159MOL    C7922515   7.183   2.735   0.718 -0.9173 -0.1369 -0.5967
  159MOL    C8022516   7.301   2.636   0.731  0.5845 -0.1239 -0.4412
  159MOL    O8122517   7.321   2.592   0.865  0.4204  0.5266 -0.2893
  159MOL    H8222518   7.103   2.694   0.780 -1.3659 -0.0045 -1.0832
  159MOL    H8322519   7.142   2.747   0.618 -0.0644  2.4876 -0.6857
  159MOL    H8422520   7.394   2.686   0.704  0.3977  0.4331 -0.0540
  159MOL    H8522521   7.234   2.578   0.900 -0.0508 -1.1343 -2.0558
  159MOL    C8622522   7.288   2.509   0.645 -0.3053 -0.2236 -0.4575
  159MOL    C8722523   7.301   2.540   0.499  0.8198  0.6513 -0.1999
  159MOL    O8822524   7.369   2.656   0.468 -0.2465 -0.0876 -0.4687
  159MOL    H8922525   7.371   2.446   0.675 -0.2382  1.7509  4.0131
  159MOL    H9022526   7.200   2.453   0.677 -1.1847  0.7711 -1.1051
  159MOL    H9122527   7.199   2.551   0.463  0.7601 -0.5369 -0.4325
  159MOL    H9222528   7.364   2.671   0.375  1.3718 -1.5965 -0.8264
  159MOL    C9322529   7.363   2.426   0.419 -0.1755  0.2336  0.4402
  159MOL    C9422530   7.288   2.287   0.423  0.5267  0.2191 -0.9774
  159MOL    O9522531   7.170   2.286   0.344  0.6598  0.2468  0.0824
  159MOL    H9622532   7.385   2.458   0.317 -1.3083 -2.5481 -0.7151
  159MOL    H9722533   7.461   2.401   0.459  0.0986  0.2050 -0.2515
  159MOL    H9822534   7.256   2.257   0.523  0.0517  0.6674 -0.9968
  159MOL    H9922535   7.092   2.290   0.398 -0.5119 -0.4281 -1.5167
  159MOL   C10022536   7.391   2.175   0.383  0.3326  0.3061 -0.4775
  159MOL   C10122537   7.354   2.031   0.396  0.1372  0.3377  0.4296
  159MOL   O10222538   7.305   1.996   0.531  0.2540  0.5613  0.0261
  159MOL   H10322539   7.421   2.196   0.280  0.0691 -1.1412 -0.8591
  159MOL   H10422540   7.488   2.193   0.430 -1.0982  0.8264  2.3906
  159MOL   H10522541   7.440   1.971   0.368 -0.6557 -0.3738 -0.5231
  159MOL   H10622542   7.241   1.928   0.516  0.5741  0.7351 -2.3526
  159MOL   C10722543   7.250   1.978   0.288 -0.2078  0.2796  0.3628
  159MOL   C10822544   7.279   2.011   0.139  0.5460  0.3177  0.6904
  159MOL   O10922545   7.397   1.951   0.098  0.3450  0.5444 -0.1184
  159MOL   H11022546   7.237   1.871   0.301 -0.5468  0.2652 -0.0991
  159MOL   H11122547   7.153   2.023   0.311 -0.8649 -0.8507 -0.1753
  159MOL   H11222548   7.283   2.119   0.122  2.3691  0.3420  1.2181
  159MOL   H11322549   7.470   1.991   0.143  0.9159  1.5900 -1.8961
  159MOL   C11422550   7.176   1.956   0.045 -0.3895  0.0411  0.0554
  159MOL   C11522551   7.188   1.994   7.411 -0.1025  0.0060  0.1439
  159MOL   O11622552   7.124   1.893   7.334  0.4917  0.6192 -0.1463
  159MOL   H11722553   7.166   1.849   0.060 -0.1564  0.0620  0.3785
  159MOL   H11822554   7.081   1.987   0.089 -2.0755 -0.5706 -3.0447
  159MOL   H11922555   7.294   1.976   7.392 -0.2219 -2.1821  1.3708
  159MOL   H12022556   7.166   1.910   7.250  1.5122 -0.2776  0.1654
  159MOL   C12122557   7.140   2.142   7.381 -0.2630 -0.0182 -0.5212
  159MOL   C12222558   7.258   2.247   7.362 -0.1133 -0.1362 -0.4422
  159MOL   O12322559   7.316   2.250   7.236 -0.3505 -0.2242 -0.9406
  159MOL   H12422560   7.095   2.137   7.282  0.8337  0.8552 -1.0780
  159MOL   H12522561   7.068   2.167   7.458 -0.2183 -0.6159 -0.2870
  159MOL   H12622562   7.344   2.219   7.422  1.7598  0.0079 -2.9718
  159MOL   H12722563   7.247   2.256   7.171 -0.3843 -2.5991 -1.1506
  159MOL   C12822564   7.205   2.388   7.373 -0.1340  0.0192 -0.6825
  159MOL   C12922565   7.207   2.443   0.002  0.2260 -0.3193 -0.0065
  159MOL   O13022566   7.309   2.534   0.007 -0.4457  0.1253  0.2415
  159MOL   H13122567   7.264   2.455   7.311  0.3324  1.2864  1.0602
  159MOL   H13222568   7.110   2.405   7.324  0.2256  0.6479 -1.1644
  159MOL   H13322569   7.231   2.367   0.075 -2.0154 -1.7190 -0.6667
  159MOL   H13422570   7.313   2.582   7.446  0.9199  2.1818  1.4816
  159MOL   C13522571   7.083   2.514   0.050 -0.3974  1.0041  0.0566
  159MOL   C13622572   6.967   2.420   0.077 -0.5836 -0.0170 -0.3952
  159MOL   O13722573   6.882   2.403   7.485  0.6579 -0.0648  0.2458
  159MOL   H13822574   7.108   2.556   0.147 -1.7912  0.2908  0.7360
  159MOL   H13922575   7.060   2.598   7.505 -1.2581 -0.5500 -1.7219
  159MOL   H14022576   6.900   2.444   0.160 -1.1185  0.5427 -0.9909
  159MOL   H14122577   6.813   2.345   7.512  0.2295  1.3794  2.3260
  159MOL   H14222578   7.009   2.321   0.098 -0.4452  0.3553  1.1764
  160MOL     C122579   1.691   1.360   0.942 -0.9900 -0.2797 -0.2689
  160MOL     C222580   1.547   1.353   0.888 -0.0603  0.1596  0.6566
  160MOL     O322581   1.535   1.242   0.797 -0.7236  0.2722  0.0553
  160MOL     H422582   1.687   1.447   1.006  0.1409 -1.6327  1.6932
  160MOL     H522583   1.769   1.369   0.866 -0.4307  0.8960  0.4264
  160MOL     H622584   1.523   1.446   0.836 -1.2381  0.6739  2.1116
  160MOL     H722585   1.601   1.256   0.730 -1.6223  0.8027 -0.7191
  160MOL     H822586   1.718   1.271   0.999 -0.1562  0.3793  0.3879
  160MOL     C922587   1.442   1.313   0.993  0.2961 -0.2833 -0.2776
  160MOL    C1022588   1.398   1.419   1.098 -0.2949 -0.1073  0.2938
  160MOL    O1122589   1.290   1.357   1.163  0.1640  0.4359 -0.5417
  160MOL    H1222590   1.356   1.272   0.940 -0.2890  1.0190 -0.3459
  160MOL    H1322591   1.478   1.226   1.048  0.5671  0.0058  0.0060
  160MOL    H1422592   1.353   1.503   1.046  1.5834 -0.5043 -2.0354
  160MOL    H1522593   1.214   1.361   1.107  1.5482 -0.1110 -2.5478
  160MOL    C1622594   1.511   1.465   1.185  0.5432  0.0320  0.2675
  160MOL    C1722595   1.585   1.362   1.261 -0.5342  0.2601 -0.1320
  160MOL    O1822596   1.682   1.443   1.327 -0.2526  0.2349  0.2838
  160MOL    H1922597   1.572   1.545   1.142  1.9208 -0.7138  0.8230
  160MOL    H2022598   1.463   1.520   1.266 -3.2565  1.3924 -2.6989
  160MOL    H2122599   1.632   1.288   1.196  0.3656 -0.1707  0.9961
  160MOL    H2222600   1.718   1.384   1.391  0.7757  0.8958  0.3335
  160MOL    C2322601   1.514   1.284   1.375  0.1798 -0.0580 -0.3194
  160MOL    C2422602   1.607   1.176   1.446  0.0884 -0.8560  0.2096
  160MOL    O2522603   1.716   1.241   1.510 -0.7018 -0.2669 -0.1730
  160MOL    H2622604   1.454   1.352   1.435  1.0264  0.5090 -0.1086
  160MOL    H2722605   1.440   1.224   1.322 -3.0743  3.8044 -0.3230
  160MOL    H2822606   1.649   1.110   1.370  1.3698  2.0400 -1.6772
  160MOL    H2922607   1.752   1.176   1.568  0.8691 -0.5484 -1.4423
  160MOL    C3022608   1.520   1.088   1.538  0.2796 -0.5221  0.2074
  160MOL    C3122609   1.585   0.968   1.605 -0.2379  0.2571  0.1978
  160MOL    O3222610   1.712   1.002   1.660  0.2558 -0.5173 -0.5284
  160MOL    H3322611   1.485   1.153   1.618  1.8641 -0.0744  0.5432
  160MOL    H3422612   1.425   1.060   1.493  0.1638 -0.6437  0.5246
  160MOL    H3522613   1.608   0.901   1.522  2.9455  0.1810  1.0605
  160MOL    H3622614   1.733   0.928   1.715  0.9515 -0.5871 -0.8844
  160MOL    C3722615   1.487   0.912   1.705 -0.1681 -0.0093 -0.1256
  160MOL    C3822616   1.501   0.759   1.736  0.4085  0.8550 -0.2835
  160MOL    O3922617   1.615   0.740   1.809  0.5298 -0.2811 -0.8863
  160MOL    H4022618   1.496   0.956   1.805 -0.0720  3.1208 -1.4753
  160MOL    H4122619   1.384   0.929   1.674  0.2335  1.1828 -0.8079
  160MOL    H4222620   1.498   0.700   1.644 -0.9164  3.1246 -1.7356
  160MOL    H4322621   1.650   0.654   1.791  1.2888 -0.3370  0.8237
  160MOL    C4422622   1.388   0.702   1.818 -0.7666 -0.0761  0.6425
  160MOL    C4522623   1.251   0.677   1.746 -0.4037 -0.4565 -0.3866
  160MOL    O4622624   1.262   0.546   1.686 -0.4609  0.5689  0.4835
  160MOL    H4722625   1.425   0.614   1.871  0.8389  2.0976  3.2897
  160MOL    H4822626   1.365   0.773   1.897  1.1256  0.3304  0.8625
  160MOL    H4922627   1.231   0.752   1.670 -1.2500  0.3126  0.5822
  160MOL    H5022628   1.245   0.479   1.750  4.7796 -0.4079  1.0325
  160MOL    C5122629   1.133   0.680   1.851  0.2146 -0.3816  0.4418
  160MOL    C5222630   0.997   0.644   1.791 -0.4630 -0.5613 -0.6910
  160MOL    O5322631   0.913   0.628   1.902  0.8155  0.1504  0.1946
  160MOL    H5422632   1.150   0.617   1.939 -1.8030  1.1489  1.9706
  160MOL    H5522633   1.134   0.779   1.897  2.6666  0.0219 -0.4120
  160MOL    H5622634   0.999   0.561   1.721 -0.4050 -0.8045 -0.4011
  160MOL    H5722635   0.824   0.625   1.870  0.7819 -1.1450  0.3694
  160MOL    C5822636   0.940   0.763   1.713 -0.1839  0.4571 -0.2864
  160MOL    C5922637   0.796   0.736   1.655 -0.0497 -0.0111 -0.1298
  160MOL    O6022638   0.705   0.724   1.754 -0.0003  0.0196 -0.6740
  160MOL    H6122639   0.914   0.841   1.784  1.5660 -0.1466  1.0630
  160MOL    H6222640   1.005   0.819   1.646  1.0067 -0.3328  0.2046
  160MOL    H6322641   0.808   0.642   1.600 -1.3414 -0.2161 -0.0611
  160MOL    H6422642   0.619   0.723   1.713  0.6159  1.5966 -2.0639
  160MOL    C6522643   0.747   0.840   1.555 -0.4402 -0.1201  0.2250
  160MOL    C6622644   0.840   0.855   1.425 -0.9640 -0.2252 -0.3594
  160MOL    O6722645   0.860   0.724   1.379  0.2111 -0.5114 -0.0827
  160MOL    H6822646   0.647   0.806   1.528 -0.2759  0.9823 -1.8525
  160MOL    H6922647   0.737   0.936   1.606  2.2017  0.2188  0.1721
  160MOL    H7022648   0.939   0.894   1.448 -0.2956 -1.1884 -1.5307
  160MOL    H7122649   0.930   0.726   1.316 -1.0164 -0.3920 -1.4482
  160MOL    C7222650   0.771   0.934   1.312 -0.6587 -0.5703  0.0743
  160MOL    C7322651   0.855   0.979   1.196  0.3512  0.0982 -0.9342
  160MOL    O7422652   0.882   0.882   1.091 -0.0042  0.4694 -0.4909
  160MOL    H7522653   0.689   0.876   1.269 -1.4930  0.4938  0.2186
  160MOL    H7622654   0.720   1.022   1.351 -0.1430 -0.3426  0.2421
  160MOL    H7722655   0.956   0.989   1.234  0.5802 -0.0787 -1.4868
  160MOL    H7822656   0.931   0.810   1.126  1.2416  1.2784 -0.5206
  160MOL    C7922657   0.805   1.113   1.130 -0.0076 -0.1471 -0.5810
  160MOL    C8022658   0.885   1.173   1.012 -0.1628  0.1687  0.6562
  160MOL    O8122659   0.864   1.089   0.899  0.1902  0.0939 -0.1986
  160MOL    H8222660   0.699   1.109   1.106 -0.9477  2.9187  2.7140
  160MOL    H8322661   0.798   1.187   1.209 -0.2038 -2.1224  1.3094
  160MOL    H8422662   0.988   1.152   1.044 -0.7049  0.5960  2.7907
  160MOL    H8522663   0.856   1.006   0.943 -0.5243  0.1525 -0.2135
  160MOL    C8622664   0.844   1.312   0.973  0.2217 -0.3272 -0.2916
  160MOL    C8722665   0.903   1.424   1.062 -0.0238 -0.1885 -0.3647
  160MOL    O8822666   1.045   1.420   1.036  0.3711  0.0798 -0.4009
  160MOL    H8922667   0.882   1.327   0.872 -1.8036 -0.1902 -1.0572
  160MOL    H9022668   0.735   1.316   0.966  0.1335  0.3216  1.1987
  160MOL    H9122669   0.879   1.398   1.165 -1.0662  1.7866 -0.0790
  160MOL    H9222670   1.055   1.471   0.958 -2.6052  0.8564 -0.3439
  160MOL    C9322671   0.840   1.560   1.035  1.0946 -0.1895  0.0300
  160MOL    C9422672   0.902   1.668   1.122 -0.1791  1.2252 -0.2121
  160MOL    O9522673   0.845   1.792   1.093 -0.1998 -0.4874  0.2378
  160MOL    H9622674   0.846   1.579   0.928 -1.7591 -1.1803 -0.3530
  160MOL    H9722675   0.732   1.562   1.053  0.6782 -0.5939 -2.2423
  160MOL    H9822676   1.011   1.672   1.114 -0.1282  0.0841 -0.1410
  160MOL    H9922677   0.879   1.819   1.009  0.6664 -1.4876  0.2585
  160MOL   C10022678   0.878   1.636   1.281 -0.4853 -0.1813  0.3119
  160MOL   C10122679   0.899   1.761   1.372 -0.4258 -0.2213  1.1490
  160MOL   O10222680   0.868   1.713   1.496 -0.4444  0.4856  0.5363
  160MOL   H10322681   0.773   1.612   1.295 -0.7987  1.5966  1.1754
  160MOL   H10422682   0.943   1.553   1.310  0.9238  0.7096 -0.2586
  160MOL   H10522683   0.835   1.835   1.325  1.6385 -0.0116 -1.4572
  160MOL   H10622684   0.775   1.698   1.497 -0.4832  0.7351  0.5154
  160MOL   C10722685   1.042   1.822   1.377 -1.0164  0.1460 -0.0205
  160MOL   C10822686   1.154   1.739   1.450 -0.7836  0.5570 -0.7223
  160MOL   O10922687   1.201   1.638   1.360 -0.0363 -0.0521 -0.2588
  160MOL   H11022688   1.070   1.859   1.279  0.0910 -1.1353 -0.2079
  160MOL   H11122689   1.032   1.907   1.444 -1.3395 -1.8376  2.5523
  160MOL   H11222690   1.111   1.684   1.533 -0.6639 -1.0104 -1.6769
  160MOL   H11322691   1.153   1.561   1.384  0.3297 -0.2252 -0.0886
  160MOL   C11422692   1.266   1.832   1.508 -0.3459 -0.4782  0.0156
  160MOL   C11522693   1.365   1.763   1.594 -0.1903 -0.2044  0.2086
  160MOL   O11622694   1.483   1.847   1.608 -0.1955  0.8063 -0.4154
  160MOL   H11722695   1.310   1.880   1.421 -5.9617  2.2046 -1.5716
  160MOL   H11822696   1.215   1.921   1.544 -1.8122 -1.6475  0.9049
  160MOL   H11922697   1.403   1.680   1.535 -0.4321  0.6596 -1.1711
  160MOL   H12022698   1.561   1.803   1.579  0.4568  1.5088  0.2285
  160MOL   C12122699   1.309   1.735   1.728 -0.0521 -1.1711  0.0262
  160MOL   C12222700   1.386   1.639   1.826  0.4585 -0.2886  0.0991
  160MOL   O12322701   1.332   1.674   1.951  0.1636 -0.0422 -0.2452
  160MOL   H12422702   1.299   1.832   1.778  2.1069 -0.0460 -1.6338
  160MOL   H12522703   1.208   1.695   1.729 -0.5544  0.0659 -0.0481
  160MOL   H12622704   1.493   1.657   1.824  0.3193  0.5603  0.3425
  160MOL   H12722705   1.382   1.741   1.995 -2.8809  1.0632  1.6236
  160MOL   C12822706   1.354   1.489   1.784  0.2191 -0.2965  0.3162
  160MOL   C12922707   1.430   1.390   1.874 -0.1484 -0.6418 -0.6199
  160MOL   O13022708   1.360   1.262   1.860  0.0674 -0.0722 -0.2708
  160MOL   H13122709   1.247   1.473   1.794 -0.1235  2.0108  0.4276
  160MOL   H13222710   1.377   1.461   1.681  2.0255  1.4010  0.2228
  160MOL   H13322711   1.417   1.418   1.978  0.0939 -2.0886 -0.1805
  160MOL   H13422712   1.374   1.216   1.942  0.2977 -0.4931 -0.5480
  160MOL   C13522713   1.571   1.371   1.829 -0.1694  0.8092 -0.1521
  160MOL   C13622714   1.662   1.283   1.924 -0.3196  0.7297 -0.3773
  160MOL   O13722715   1.780   1.248   1.861 -0.3180  0.3340  0.4740
  160MOL   H13822716   1.569   1.333   1.727  0.0302 -0.6972  0.3931
  160MOL   H13922717   1.629   1.463   1.821  1.7606 -0.1253  2.5413
  160MOL   H14022718   1.606   1.194   1.952  0.3984  0.3061 -0.2823
  160MOL   H14122719   1.759   1.186   1.793 -0.3138  2.0176 -1.1202
  160MOL   H14222720   1.685   1.332   2.019  1.3794 -0.2287 -0.2880
  161MOL     C122721   3.232   0.587   5.171 -0.1415  0.1513 -0.1352
  161MOL     C222722   3.203   0.438   5.140 -0.0348 -0.2649 -0.5003
  161MOL     O322723   3.317   0.399   5.070  0.3181  0.1053 -0.1205
  161MOL     H422724   3.144   0.652   5.169  1.0039  1.7614 -3.4510
  161MOL     H522725   3.300   0.641   5.105  0.3737  0.2198  0.4421
  161MOL     H622726   3.122   0.427   5.068 -0.7930 -0.8162  0.4257
  161MOL     H722727   3.388   0.382   5.130  1.1637  1.2392 -0.7722
  161MOL     H822728   3.276   0.589   5.270 -1.7549  0.5847  0.5784
  161MOL     C922729   3.181   0.353   5.265 -0.2685  0.1488 -0.1015
  161MOL    C1022730   3.036   0.321   5.299  0.4182  0.2543 -0.1346
  161MOL    O1122731   3.049   0.281   5.436 -0.1567  0.1505 -0.1921
  161MOL    H1222732   3.234   0.259   5.252  0.0609  0.5504 -1.8510
  161MOL    H1322733   3.229   0.400   5.351 -0.2806 -1.9753  1.1046
  161MOL    H1422734   2.989   0.242   5.240 -1.5316  2.2386 -1.3368
  161MOL    H1522735   3.131   0.320   5.463 -0.6526  2.7886 -2.2327
  161MOL    C1622736   2.945   0.446   5.300 -0.6960  0.0565  0.1663
  161MOL    C1722737   2.798   0.426   5.327  0.4651  0.1118 -0.2110
  161MOL    O1822738   2.755   0.537   5.411 -0.1445  0.2610 -0.3013
  161MOL    H1922739   2.988   0.521   5.367  0.7126 -1.2729  0.7838
  161MOL    H2022740   2.961   0.504   5.209  0.6913 -0.9736 -0.2746
  161MOL    H2122741   2.793   0.340   5.393  2.3804 -0.4454 -0.7654
  161MOL    H2222742   2.687   0.507   5.469 -0.4030 -0.3981 -0.9381
  161MOL    C2322743   2.702   0.424   5.204 -0.2340 -0.1399  0.1574
  161MOL    C2422744   2.728   0.306   5.113  0.0004  0.0276  0.2404
  161MOL    O2522745   2.665   0.188   5.172 -0.2485  0.5072  0.4167
  161MOL    H2622746   2.596   0.423   5.225 -0.2062  0.2777  0.3224
  161MOL    H2722747   2.712   0.513   5.143  0.4082 -0.2951  0.0307
  161MOL    H2822748   2.836   0.288   5.120 -0.0444  0.4102  2.0102
  161MOL    H2922749   2.574   0.182   5.146 -0.5024 -1.7255  1.7093
  161MOL    C3022750   2.680   0.308   4.963  0.4672  0.4889  0.4422
  161MOL    C3122751   2.770   0.401   4.869 -0.3794 -0.4126 -0.3735
  161MOL    O3222752   2.902   0.351   4.860  0.6309  0.0152  0.3629
  161MOL    H3322753   2.671   0.210   4.916  4.6242  0.2440 -0.0099
  161MOL    H3422754   2.585   0.361   4.973 -1.8109 -3.0032 -1.5702
  161MOL    H3522755   2.779   0.497   4.919  2.3128 -1.2795  0.9060
  161MOL    H3622756   2.954   0.430   4.859  0.0855  0.3763  0.2349
  161MOL    C3722757   2.725   0.397   4.718 -0.2371 -0.0279 -0.3142
  161MOL    C3822758   2.577   0.444   4.702  0.2434 -0.1541 -0.0757
  161MOL    O3922759   2.565   0.569   4.759  0.1725  0.1715 -0.3948
  161MOL    H4022760   2.780   0.466   4.654 -2.0833  0.5686 -1.2694
  161MOL    H4122761   2.732   0.296   4.678  2.1728  1.1838 -3.1234
  161MOL    H4222762   2.512   0.369   4.746  1.2397 -0.1179  1.4621
  161MOL    H4322763   2.476   0.594   4.736 -0.5568 -0.5613  1.5237
  161MOL    C4422764   2.535   0.446   4.551 -0.2168 -0.2123 -0.4231
  161MOL    C4522765   2.525   0.312   4.467  0.2276 -0.2999  0.1669
  161MOL    O4622766   2.389   0.280   4.443  0.0303  0.1289  0.0334
  161MOL    H4722767   2.442   0.502   4.540  0.7544  1.8187  1.3676
  161MOL    H4822768   2.605   0.514   4.503  1.6217 -2.1940 -0.6119
  161MOL    H4922769   2.560   0.221   4.516 -1.8066 -1.7937 -1.0724
  161MOL    H5022770   2.352   0.236   4.518  2.9334  1.0241  2.0486
  161MOL    C5122771   2.593   0.339   4.331 -0.0759  0.1106 -0.1442
  161MOL    C5222772   2.550   0.241   4.219  0.0708  0.8885  0.0096
  161MOL    O5322773   2.634   0.267   4.103  0.2202 -0.2444  0.3791
  161MOL    H5422774   2.563   0.436   4.292 -0.8917 -0.1207 -0.1072
  161MOL    H5522775   2.701   0.337   4.338 -0.1344  0.3674  0.8181
  161MOL    H5622776   2.448   0.264   4.191 -0.3419 -1.5823 -0.6684
  161MOL    H5722777   2.614   0.352   4.067 -0.1609 -0.1378  0.8382
  161MOL    C5822778   2.572   0.090   4.246 -0.4871  0.4669 -0.0700
  161MOL    C5922779   2.537   7.511   4.129  0.0593 -0.4652  0.2940
  161MOL    O6022780   2.584   7.378   4.152 -0.3107  0.0773  0.1865
  161MOL    H6122781   2.678   0.088   4.271 -0.6025  1.0839  0.4929
  161MOL    H6222782   2.517   0.055   4.334 -1.0874 -1.7033 -1.2556
  161MOL    H6322783   2.591   0.005   4.035 -1.8187  0.3935 -0.6926
  161MOL    H6422784   2.653   7.358   4.091  2.0045  0.9920  2.3839
  161MOL    C6522785   2.389   7.496   4.097 -0.5712  0.2261 -0.5713
  161MOL    C6622786   2.284   7.500   4.214  0.2516  0.5051 -0.0017
  161MOL    O6722787   2.152   7.507   4.150 -0.2136 -0.3317  0.6308
  161MOL    H6822788   2.368   0.066   4.039 -0.7759 -0.2889 -1.2999
  161MOL    H6922789   2.375   7.410   4.031 -2.3352  1.6523 -2.0840
  161MOL    H7022790   2.303   0.062   4.285  0.0971 -0.6405  1.3808
  161MOL    H7122791   2.147   7.457   4.070  1.1465 -0.0635  0.3700
  161MOL    C7222792   2.285   7.362   4.285 -0.1773 -0.2613 -0.3443
  161MOL    C7322793   2.178   7.339   4.392  0.0052 -0.0164  0.0382
  161MOL    O7422794   2.052   7.361   4.343 -0.0551  0.1284  0.0484
  161MOL    H7522795   2.279   7.283   4.210  1.5518  1.7751 -2.7204
  161MOL    H7622796   2.375   7.359   4.346 -1.6134 -0.7101  1.7941
  161MOL    H7722797   2.187   7.414   4.470  2.4420 -1.5916  1.3530
  161MOL    H7822798   2.060   7.410   4.262 -2.1415  0.9342  0.2917
  161MOL    C7922799   2.193   7.200   4.465  0.2386  0.1058  0.7265
  161MOL    C8022800   2.090   7.172   4.577  0.0024  0.5493 -0.0729
  161MOL    O8122801   1.966   7.163   4.515  0.1083  0.0674  0.1927
  161MOL    H8222802   2.188   7.127   4.384 -0.3800  1.9621 -0.9579
  161MOL    H8322803   2.291   7.196   4.512  0.6442  0.6668 -0.0680
  161MOL    H8422804   2.092   7.264   4.635  1.6560  1.5218 -1.6160
  161MOL    H8522805   1.963   7.241   4.462 -0.3202  1.8684  2.7715
  161MOL    C8622806   2.128   7.057   4.666  1.1880 -0.0026 -0.2652
  161MOL    C8722807   2.040   7.027   4.790 -0.6886 -0.1443  0.7965
  161MOL    O8822808   1.914   6.997   4.744  0.0024  0.7608  0.1707
  161MOL    H8922809   2.143   6.965   4.609  2.2445  0.1120 -0.1766
  161MOL    H9022810   2.220   7.086   4.715 -0.4035  0.3209  2.6737
  161MOL    H9122811   2.028   7.117   4.849  0.1400  0.6644 -0.2412
  161MOL    H9222812   1.905   7.031   4.656  1.2281  0.0562 -0.2292
  161MOL    C9322813   2.082   6.906   4.865  0.2006  0.4291  0.0937
  161MOL    C9422814   2.009   6.877   4.994  0.8749  0.0315 -0.4023
  161MOL    O9522815   1.867   6.870   4.966 -0.0150  0.3726 -0.2173
  161MOL    H9622816   2.073   6.819   4.801 -0.7298  0.8045 -0.2917
  161MOL    H9722817   2.189   6.917   4.885  0.0985  0.8475  0.4275
  161MOL    H9822818   2.029   6.959   5.063 -0.3965  1.1055 -1.2709
  161MOL    H9922819   1.851   6.934   4.899 -3.8776  0.3363  0.5881
  161MOL   C10022820   2.050   6.750   5.063 -0.5522  0.0827 -1.2014
  161MOL   C10122821   2.200   6.741   5.100  0.5428  0.6466  0.1045
  161MOL   O10222822   2.205   6.839   5.198  0.2023 -0.1257 -0.3002
  161MOL   H10322823   1.976   6.726   5.139  0.6115  0.3505  0.0324
  161MOL   H10422824   2.031   6.666   4.995  3.0987 -2.1988  0.4132
  161MOL   H10522825   2.267   6.779   5.023 -2.0735 -0.4953 -2.8857
  161MOL   H10622826   2.285   6.888   5.184  0.1402  0.1947  0.4539
  161MOL   C10722827   2.235   6.595   5.149 -0.1877  0.2258 -0.3933
  161MOL   C10822828   2.381   6.561   5.183 -0.1362 -0.0007 -0.6690
  161MOL   O10922829   2.424   6.647   5.290 -0.1885 -0.2204 -0.6794
  161MOL   H11022830   2.163   6.561   5.222 -1.7115  1.6014 -1.2280
  161MOL   H11122831   2.202   6.535   5.064 -0.2476  0.6794 -0.6957
  161MOL   H11222832   2.432   6.576   5.088  0.2533 -0.6741 -0.5658
  161MOL   H11322833   2.361   6.714   5.312  0.7964  1.0832 -1.7577
  161MOL   C11422834   2.399   6.418   5.234 -0.4108 -0.8540 -0.0909
  161MOL   C11522835   2.379   6.304   5.128 -0.2236  0.1846 -0.2807
  161MOL   O11622836   2.499   6.288   5.054 -0.1141  0.1838 -0.1773
  161MOL   H11722837   2.498   6.405   5.278 -1.3612  0.9936  2.6470
  161MOL   H11822838   2.328   6.398   5.313  0.9482 -0.0627  1.3560
  161MOL   H11922839   2.302   6.337   5.058 -0.1262  0.6741 -0.1549
  161MOL   H12022840   2.522   6.196   5.052  0.5641  0.3499 -0.4484
  161MOL   C12122841   2.333   6.168   5.185  0.4621  0.0866 -0.1716
  161MOL   C12222842   2.189   6.153   5.218  0.2190  0.7869 -0.0282
  161MOL   O12322843   2.109   6.195   5.110 -0.4106  0.0899  0.5705
  161MOL   H12422844   2.363   6.090   5.114 -2.1577 -0.7650 -0.3974
  161MOL   H12522845   2.391   6.147   5.274  0.4955  2.8455  0.4981
  161MOL   H12622846   2.174   6.231   5.293  0.6001 -0.4273  1.3352
  161MOL   H12722847   2.041   6.246   5.149 -1.0321 -0.5367  0.3226
  161MOL   C12822848   2.144   6.017   5.275 -0.6752  0.0740  0.2040
  161MOL   C12922849   2.155   5.992   5.423 -0.0144 -0.1207  0.0856
  161MOL   O13022850   2.284   6.005   5.485  0.4565  0.1653  0.1207
  161MOL   H13122851   2.042   6.006   5.237 -1.4686  0.7730  2.0559
  161MOL   H13222852   2.189   5.932   5.225 -1.2979  0.0980 -0.4090
  161MOL   H13322853   2.108   5.895   5.437 -2.6506  1.1471  0.2266
  161MOL   H13422854   2.326   6.088   5.466  2.4392 -0.4134  1.8555
  161MOL   C13522855   2.075   6.090   5.511  0.3311  0.0291  0.1471
  161MOL   C13622856   2.036   6.046   5.655 -0.1872 -0.5836  0.3939
  161MOL   O13722857   1.993   6.166   5.717 -0.4902 -0.0308  0.6193
  161MOL   H13822858   2.121   6.189   5.513  0.0541  0.1502  0.6063
  161MOL   H13922859   1.984   6.118   5.458 -0.1945  0.2462  1.1514
  161MOL   H14022860   2.112   5.996   5.715 -2.2406 -1.5062  2.3009
  161MOL   H14122861   2.057   6.212   5.770 -0.8573  1.3403 -0.1001
  161MOL   H14222862   1.970   5.961   5.635 -1.3451  0.9668 -2.7359
  162MOL     C122863   4.410   2.662   1.161 -0.4767  0.3888 -0.3283
  162MOL     C222864   4.414   2.558   1.275 -0.2688  0.6641  0.5227
  162MOL     O322865   4.457   2.625   1.392  0.2277 -0.3140 -0.0351
  162MOL     H422866   4.504   2.713   1.139 -1.9978  2.6597 -1.7964
  162MOL     H522867   4.328   2.730   1.186 -0.3545  0.0556  1.0086
  162MOL     H622868   4.495   2.489   1.252 -0.0211  1.3190 -0.5802
  162MOL     H722869   4.468   2.552   1.451  1.4823 -1.5574 -1.7384
  162MOL     H822870   4.380   2.616   1.067 -0.5095 -0.7373  0.2233
  162MOL     C922871   4.277   2.499   1.304  0.0424 -0.3807 -0.0766
  162MOL    C1022872   4.239   2.391   1.202  1.3902 -0.2662 -0.3002
  162MOL    O1122873   4.318   2.280   1.244 -0.7982  0.2675 -0.8637
  162MOL    H1222874   4.260   2.462   1.406  1.8833  0.2294  0.4706
  162MOL    H1322875   4.198   2.574   1.299 -0.5034 -0.9923 -0.6152
  162MOL    H1422876   4.266   2.431   1.105  1.0704 -1.6465 -0.9728
  162MOL    H1522877   4.310   2.208   1.183  0.7526 -0.6667  0.0090
  162MOL    C1622878   4.094   2.332   1.205 -0.3572 -0.0273  0.3615
  162MOL    C1722879   4.067   2.230   1.093  0.4431 -0.7964  0.3947
  162MOL    O1822880   4.100   2.107   1.145  0.1558 -0.3354  0.8171
  162MOL    H1922881   4.087   2.292   1.306  0.6251  0.5051  0.6388
  162MOL    H2022882   4.021   2.412   1.193  0.5299  0.6084 -0.8788
  162MOL    H2122883   4.129   2.258   1.008  1.0325 -0.6257  0.8686
  162MOL    H2222884   4.053   2.091   1.225 -0.3349 -1.8646  0.2569
  162MOL    C2322885   3.925   2.232   1.039 -0.1397 -1.0994 -0.0323
  162MOL    C2422886   3.887   2.350   0.937 -0.8054  0.4839 -0.1101
  162MOL    O2522887   3.973   2.348   0.828  0.1336 -0.2922  0.0231
  162MOL    H2622888   3.914   2.136   0.987  3.0531 -1.0143 -0.9197
  162MOL    H2722889   3.859   2.222   1.125  0.7298 -2.7045  0.4610
  162MOL    H2822890   3.897   2.446   0.987 -0.8193  0.9181 -0.9433
  162MOL    H2922891   4.048   2.389   0.868  0.7905 -2.8227  1.5167
  162MOL    C3022892   3.738   2.336   0.886 -0.1682 -0.0913  0.0427
  162MOL    C3122893   3.706   2.412   0.750  0.1853 -0.4038 -0.2359
  162MOL    O3222894   3.578   2.367   0.712 -0.4588 -0.2698 -0.5714
  162MOL    H3322895   3.716   2.232   0.867 -1.2396  0.6678 -3.0975
  162MOL    H3422896   3.669   2.370   0.963  1.7668  1.5239  1.1377
  162MOL    H3522897   3.766   2.389   0.662 -1.0007 -1.5416 -0.7654
  162MOL    H3622898   3.592   2.280   0.677 -0.4798  0.5260 -2.5958
  162MOL    C3722899   3.702   2.567   0.771  0.4736 -0.6258  0.0593
  162MOL    C3822900   3.694   2.649   0.629 -0.4260  0.3900 -0.2625
  162MOL    O3922901   3.644   2.784   0.646  0.4509 -0.0290  0.2559
  162MOL    H4022902   3.612   2.596   0.826  0.4687 -0.9243  0.2076
  162MOL    H4122903   3.790   2.598   0.827  0.3811 -0.7564  0.2759
  162MOL    H4222904   3.618   2.600   0.568 -0.7772 -0.1812  0.6231
  162MOL    H4322905   3.661   2.837   0.570  2.3113 -0.5261  0.3016
  162MOL    C4422906   3.823   2.664   0.545 -1.6139 -0.0407  0.4995
  162MOL    C4522907   3.811   2.709   0.398  0.0995 -0.5795  0.3162
  162MOL    O4622908   3.769   2.847   0.409  0.3199 -0.4169 -0.3280
  162MOL    H4722909   3.902   2.710   0.604 -0.9296 -2.3260  1.4125
  162MOL    H4822910   3.854   2.560   0.530 -1.0185  0.3759 -1.3762
  162MOL    H4922911   3.734   2.658   0.340  0.8469  1.0749 -2.2275
  162MOL    H5022912   3.683   2.866   0.374 -0.3020 -0.3674  1.1907
  162MOL    C5122913   3.948   2.708   0.329  0.1630 -0.5254 -0.8002
  162MOL    C5222914   4.020   2.572   0.304 -0.2273  0.3157 -0.1352
  162MOL    O5322915   4.028   2.539   0.165 -0.1954 -0.6563  0.3069
  162MOL    H5422916   3.949   2.759   0.233 -1.1871 -1.4683 -1.3251
  162MOL    H5522917   4.018   2.768   0.387 -0.5271  0.2636 -0.7908
  162MOL    H5622918   3.964   2.490   0.348  1.3406 -1.1242 -0.7758
  162MOL    H5722919   3.938   2.544   0.137  0.0154  0.1716 -0.2484
  162MOL    C5822920   4.163   2.568   0.363  0.0739  0.0039  0.2162
  162MOL    C5922921   4.181   2.560   0.517 -0.0258  0.6370  0.9223
  162MOL    O6022922   4.114   2.451   0.570 -0.3071 -0.1774  0.0573
  162MOL    H6122923   4.206   2.480   0.315 -3.1153  0.0989 -3.0183
  162MOL    H6222924   4.219   2.656   0.333  0.0160  0.6664  1.9722
  162MOL    H6322925   4.133   2.645   0.567  0.3001  1.2410  0.2255
  162MOL    H6422926   4.170   2.415   0.638 -0.2840 -2.0716 -0.9234
  162MOL    C6522927   4.326   2.530   0.559 -0.0294 -0.0662  0.8292
  162MOL    C6622928   4.372   2.505   0.705  0.3135  0.2000 -0.1124
  162MOL    O6722929   4.285   2.412   0.767  0.3572  0.4724  0.3794
  162MOL    H6822930   4.358   2.445   0.499 -2.2565 -0.4364  0.1255
  162MOL    H6922931   4.385   2.615   0.523  0.2053 -0.9960 -1.0257
  162MOL    H7022932   4.392   2.599   0.757  0.7370  0.4088 -0.6570
  162MOL    H7122933   4.327   2.383   0.846 -2.5911 -1.2870  1.3953
  162MOL    C7222934   4.513   2.446   0.720  0.3802  0.2191  0.4660
  162MOL    C7322935   4.559   2.441   0.870  0.6823  0.1415  0.3723
  162MOL    O7422936   4.485   2.357   0.952  0.5299  0.0244 -0.4674
  162MOL    H7522937   4.512   2.353   0.662 -0.3973 -0.6406  1.8440
  162MOL    H7622938   4.580   2.514   0.668  0.3038  3.0202  3.9006
  162MOL    H7722939   4.554   2.543   0.908  1.3184  0.4878 -0.4364
  162MOL    H7822940   4.529   2.279   0.981 -0.8843 -0.6527 -0.0977
  162MOL    C7922941   4.703   2.397   0.878 -0.0363 -0.0065 -0.5051
  162MOL    C8022942   4.769   2.396   1.015  0.0541 -0.1189  0.2295
  162MOL    O8122943   4.869   2.293   1.011  1.1419 -0.8415  0.0645
  162MOL    H8222944   4.705   2.293   0.843 -0.5794 -0.5026  0.8996
  162MOL    H8322945   4.765   2.443   0.802  0.9925  1.4308  1.1634
  162MOL    H8422946   4.692   2.375   1.090  0.7437  2.8984  1.8813
  162MOL    H8522947   4.824   2.211   1.021 -2.6670  0.9925 -1.1135
  162MOL    C8622948   4.837   2.527   1.051 -0.1683  0.2282  0.2709
  162MOL    C8722949   4.901   2.526   1.195 -0.3329  0.5751  1.0315
  162MOL    O8822950   5.026   2.456   1.183 -0.5331  0.2464  0.2268
  162MOL    H8922951   4.919   2.548   0.982  0.0766 -1.0915  0.1516
  162MOL    H9022952   4.768   2.610   1.034 -1.1650 -0.3291  1.6069
  162MOL    H9122953   4.824   2.472   1.250 -1.8705 -0.5545 -2.0674
  162MOL    H9222954   5.011   2.379   1.129  1.3348  0.6050 -0.8650
  162MOL    C9322955   4.931   2.659   1.251 -0.5501 -0.3281 -0.0885
  162MOL    C9422956   4.808   2.735   1.302  0.5035 -0.8605 -0.3835
  162MOL    O9522957   4.749   2.680   1.421 -0.1197 -0.0115  0.2700
  162MOL    H9622958   5.002   2.641   1.332  1.9864 -0.1014 -2.1618
  162MOL    H9722959   4.977   2.723   1.175 -2.2288  1.1928  0.1441
  162MOL    H9822960   4.728   2.742   1.228  0.4084 -0.7965 -0.2751
  162MOL    H9922961   4.668   2.724   1.441  0.0114 -0.8540  2.8988
  162MOL   C10022962   4.843   2.874   1.348  0.2616 -0.0319 -0.0426
  162MOL   C10122963   4.722   2.973   1.339  0.1243  0.4564 -0.6024
  162MOL   O10222964   4.751   3.098   1.392  0.3369  0.1837  0.1050
  162MOL   H10322965   4.884   2.876   1.449  0.4162  0.5202 -0.1175
  162MOL   H10422966   4.920   2.901   1.276  1.0310 -1.1383  0.3380
  162MOL   H10522967   4.638   2.937   1.398  1.2121 -1.2101 -0.0056
  162MOL   H10622968   4.760   3.086   1.485 -1.4081 -1.4531  0.0714
  162MOL   C10722969   4.665   3.002   1.200  0.3101  0.7297  0.1651
  162MOL   C10822970   4.749   3.063   1.086  0.0931  0.1439 -0.6013
  162MOL   O10922971   4.830   2.962   1.036 -0.5389  0.5882 -0.5390
  162MOL   H11022972   4.601   2.922   1.163  0.3004  1.4183 -1.3543
  162MOL   H11122973   4.587   3.073   1.226 -0.4947 -0.3871  0.8518
  162MOL   H11222974   4.815   3.140   1.125 -1.0949  0.4527  0.8646
  162MOL   H11322975   4.919   2.993   1.046 -0.0788 -1.1453  0.9780
  162MOL   C11422976   4.670   3.136   0.976  0.3219 -0.0147 -0.5052
  162MOL   C11522977   4.555   3.062   0.898  0.1577 -0.4433  0.1928
  162MOL   O11622978   4.467   3.170   0.868  0.3882 -0.1665 -0.7326
  162MOL   H11722979   4.625   3.222   1.026  3.1554  0.6764  0.9760
  162MOL   H11822980   4.735   3.179   0.899  1.3101  0.5960  0.6463
  162MOL   H11922981   4.500   2.992   0.962 -2.1585  0.4404 -0.8082
  162MOL   H12022982   4.433   3.198   0.951 -1.4382  0.4130 -1.6610
  162MOL   C12122983   4.606   3.013   0.765  0.4947  0.1654  0.4103
  162MOL   C12222984   4.700   2.892   0.766 -0.6526 -0.8950 -0.0639
  162MOL   O12322985   4.685   2.800   0.863 -0.2176  0.2937  0.4662
  162MOL   H12422986   4.519   2.997   0.702  0.6210 -0.6240  0.4369
  162MOL   H12522987   4.648   3.094   0.704  1.4777 -1.0156 -0.5012
  162MOL   H12622988   4.802   2.927   0.782 -1.2047 -0.3027  2.3231
  162MOL   H12722989   4.735   2.834   0.936  1.0969  0.6394 -0.5978
  162MOL   C12822990   4.681   2.820   0.633 -0.2888 -0.0742 -0.0570
  162MOL   C12922991   4.694   2.910   0.512 -0.1240  0.1792  0.3311
  162MOL   O13022992   4.807   2.992   0.517  0.5124 -0.1089 -0.0595
  162MOL   H13122993   4.757   2.742   0.623 -0.3025 -0.0684 -0.2062
  162MOL   H13222994   4.585   2.769   0.638  0.1012 -0.9566 -1.3763
  162MOL   H13322995   4.608   2.976   0.512 -0.1876  0.0966  0.4406
  162MOL   H13422996   4.887   2.949   0.492  0.3806  1.0295 -2.5420
  162MOL   C13522997   4.707   2.817   0.383 -0.3059 -0.4822  0.3493
  162MOL   C13622998   4.575   2.769   0.336  0.2895 -0.4727 -0.7881
  162MOL   O13722999   4.584   2.704   0.213  0.1427 -0.4978 -0.4174
  162MOL   H13823000   4.755   2.877   0.306 -1.1961  0.4548  0.5121
  162MOL   H13923001   4.779   2.740   0.413  0.0077 -0.8057 -1.2119
  162MOL   H14023002   4.510   2.857   0.333 -2.5000 -2.4161  0.4401
  162MOL   H14123003   4.647   2.633   0.216 -1.3546 -1.8721 -0.7635
  162MOL   H14223004   4.526   2.704   0.409  0.6544 -0.5026 -0.5705
  163MOL     C123005   5.300   4.908   3.774 -0.1586  0.8588 -0.4780
  163MOL     C223006   5.222   5.022   3.838  0.2106 -0.4978  0.7397
  163MOL     O323007   5.109   5.050   3.758 -0.4693 -0.1241  0.3756
  163MOL     H423008   5.247   4.816   3.749  0.0316  1.1175 -1.8744
  163MOL     H523009   5.378   4.882   3.846 -0.6564  0.4870 -0.0723
  163MOL     H623010   5.287   5.109   3.844  0.6172 -0.4597 -2.9933
  163MOL     H723011   5.073   4.970   3.723  0.5632 -0.5702  0.3231
  163MOL     H823012   5.351   4.941   3.683  3.4680 -0.9201  0.7848
  163MOL     C923013   5.177   5.009   3.988  0.3073 -0.5911 -0.2660
  163MOL    C1023014   5.297   5.018   4.088 -0.2919 -0.1678 -0.2596
  163MOL    O1123015   5.309   5.152   4.134 -0.2580 -0.2660  0.7214
  163MOL    H1223016   5.105   5.089   4.005 -1.3386 -2.2989  1.0458
  163MOL    H1323017   5.114   4.920   4.000  1.1727 -1.2960 -0.9227
  163MOL    H1423018   5.393   4.991   4.044 -0.6563  3.0259 -3.2092
  163MOL    H1523019   5.271   5.170   4.219  1.6340  1.1446  1.3137
  163MOL    C1623020   5.280   4.918   4.203  0.0248 -0.8439 -0.8859
  163MOL    C1723021   5.284   4.774   4.161  0.1459  0.1655  0.2912
  163MOL    O1823022   5.409   4.719   4.186 -0.4421  0.2544 -0.2054
  163MOL    H1923023   5.356   4.947   4.276 -1.0538 -1.6467  0.5785
  163MOL    H2023024   5.180   4.938   4.240  0.0941 -1.2387 -0.4737
  163MOL    H2123025   5.257   4.750   4.058  0.7823  0.1644  0.1230
  163MOL    H2223026   5.396   4.635   4.226  1.5685  0.4275  0.8930
  163MOL    C2323027   5.193   4.687   4.246  0.1389 -0.1323 -0.4826
  163MOL    C2423028   5.155   4.557   4.186  0.1486  0.1535  0.0315
  163MOL    O2523029   5.255   4.464   4.232 -0.2951 -0.0428  0.2038
  163MOL    H2623030   5.216   4.687   4.352 -2.6367  1.9453  0.1767
  163MOL    H2723031   5.101   4.745   4.242  1.1474  1.6939  1.4532
  163MOL    H2823032   5.161   4.552   4.077 -2.5827  2.0778 -0.2713
  163MOL    H2923033   5.244   4.374   4.206  1.0254 -0.2547  0.3222
  163MOL    C3023034   5.026   4.491   4.224  0.3860  0.1061  0.1649
  163MOL    C3123035   4.895   4.556   4.174 -0.5680 -0.7008  0.2200
  163MOL    O3223036   4.894   4.580   4.039 -0.4930 -0.0924 -0.6461
  163MOL    H3323037   5.036   4.391   4.181  0.8454 -1.0715  2.8664
  163MOL    H3423038   5.026   4.475   4.332 -2.3780  0.4967  0.2590
  163MOL    H3523039   4.879   4.651   4.225  0.8707 -0.7319  0.7519
  163MOL    H3623040   4.822   4.641   4.032 -0.7254  0.1940  3.0275
  163MOL    C3723041   4.768   4.470   4.186 -0.4110  0.3013 -0.1383
  163MOL    C3823042   4.721   4.453   4.326 -0.0406  0.3803  0.0184
  163MOL    O3923043   4.660   4.579   4.374  0.3008 -0.9913 -0.8568
  163MOL    H4023044   4.682   4.503   4.128 -1.2074  0.0148  0.8666
  163MOL    H4123045   4.796   4.371   4.151 -1.1539  0.0066  0.0927
  163MOL    H4223046   4.806   4.441   4.393 -0.5610  0.2614  0.6731
  163MOL    H4323047   4.567   4.584   4.359  0.3140  2.4024 -0.0944
  163MOL    C4423048   4.624   4.345   4.355 -0.3177 -0.2992  0.5382
  163MOL    C4523049   4.661   4.201   4.298 -0.0710  0.0716  0.7173
  163MOL    O4623050   4.797   4.179   4.314 -0.3612  0.1148  0.0301
  163MOL    H4723051   4.617   4.340   4.464  1.2621 -3.2803  0.5650
  163MOL    H4823052   4.521   4.368   4.328 -0.6225 -2.7261 -0.4869
  163MOL    H4923053   4.641   4.195   4.191  0.6862 -0.1523  0.5867
  163MOL    H5023054   4.820   4.118   4.245  0.5050  0.4216  0.0480
  163MOL    C5123055   4.588   4.087   4.363 -0.2863 -0.7187 -0.0234
  163MOL    C5223056   4.454   4.065   4.295  0.4962 -0.1047  0.5931
  163MOL    O5323057   4.479   3.994   4.170 -0.0919 -0.1067  0.2744
  163MOL    H5423058   4.642   3.993   4.351 -1.6334 -1.6818  1.2787
  163MOL    H5523059   4.571   4.112   4.468 -0.1768 -2.6305  0.4586
  163MOL    H5623060   4.403   4.155   4.261  0.0111 -0.9367 -0.9278
  163MOL    H5723061   4.530   3.917   4.191  1.6928  0.9554 -0.0312
  163MOL    C5823062   4.365   3.986   4.390  0.4262 -0.1465 -0.0532
  163MOL    C5923063   4.221   3.953   4.341 -0.0940 -0.2467 -0.0381
  163MOL    O6023064   4.161   3.878   4.449  0.2787  0.6129  0.4150
  163MOL    H6123065   4.412   3.892   4.419  2.1675  0.4598 -0.8543
  163MOL    H6223066   4.361   4.046   4.481  0.3690 -1.4731  0.8402
  163MOL    H6323067   4.240   3.894   4.251  0.4467 -2.2197  1.3553
  163MOL    H6423068   4.106   3.815   4.404 -0.6411  1.5334  0.2130
  163MOL    C6523069   4.136   4.074   4.311  0.1311  0.3789  0.4591
  163MOL    C6623070   3.980   4.046   4.304  1.0188 -0.2973  0.4068
  163MOL    O6723071   3.915   4.172   4.295  0.7016  0.1182 -0.3781
  163MOL    H6823072   4.162   4.153   4.381  2.2821 -0.5292  0.7142
  163MOL    H6923073   4.160   4.128   4.219 -0.9173  0.6636  0.3525
  163MOL    H7023074   3.935   3.999   4.391  0.6170 -1.9508 -0.6731
  163MOL    H7123075   3.825   4.167   4.267  0.6804  1.1227 -0.5172
  163MOL    C7223076   3.938   3.953   4.180  0.0001 -0.0341  0.8064
  163MOL    C7323077   3.966   4.002   4.032  0.4548  0.1350  0.2210
  163MOL    O7423078   4.105   4.016   4.005 -0.0151  0.0389  0.0649
  163MOL    H7523079   3.983   3.856   4.202 -1.3632 -0.9786 -0.5001
  163MOL    H7623080   3.832   3.930   4.190 -0.2157  0.0183 -1.1890
  163MOL    H7723081   3.910   4.094   4.026  0.3667 -0.0847 -2.8931
  163MOL    H7823082   4.142   3.931   4.021  0.6204  0.4008  0.5271
  163MOL    C7923083   3.902   3.904   3.929 -0.4400 -0.3222  1.0326
  163MOL    C8023084   3.960   3.915   3.788  0.3504 -0.4354  0.0180
  163MOL    O8123085   3.897   3.818   3.703 -0.3741  0.0520 -0.9198
  163MOL    H8223086   3.910   3.802   3.966 -1.1738 -0.2372  1.4186
  163MOL    H8323087   3.799   3.941   3.930  0.0791  1.2007  0.8489
  163MOL    H8423088   4.066   3.889   3.786  0.7892  1.2628 -3.8782
  163MOL    H8523089   3.938   3.734   3.709 -2.3028 -0.8010  1.5948
  163MOL    C8623090   3.937   4.046   3.712 -0.1324  0.0277 -0.6179
  163MOL    C8723091   4.027   4.070   3.591 -0.3540 -0.1245  0.3799
  163MOL    O8823092   4.003   3.965   3.495 -0.0127  0.0045  0.2310
  163MOL    H8923093   3.832   4.055   3.684 -0.2890  0.0792 -0.0156
  163MOL    H9023094   3.971   4.122   3.782  0.4836  0.8993 -1.8446
  163MOL    H9123095   4.129   4.042   3.618 -0.9260 -0.8633  1.8089
  163MOL    H9223096   3.981   3.892   3.550 -1.1003  0.6112  0.6191
  163MOL    C9323097   4.016   4.210   3.526 -0.0095  0.3444  0.1299
  163MOL    C9423098   4.051   4.331   3.619 -0.0130  0.0433 -0.6118
  163MOL    O9523099   4.196   4.322   3.644 -0.4742  0.0833  0.0255
  163MOL    H9623100   4.068   4.214   3.431 -0.0823 -1.1908  0.0184
  163MOL    H9723101   3.910   4.217   3.501 -0.0212  0.3159  0.1705
  163MOL    H9823102   4.000   4.318   3.715 -1.6174 -0.3534 -1.4996
  163MOL    H9923103   4.208   4.334   3.737 -0.3657 -2.4831  0.3852
  163MOL   C10023104   4.037   4.472   3.557  0.3283  0.5542  0.7982
  163MOL   C10123105   3.894   4.524   3.559 -0.3660 -0.2053 -0.7786
  163MOL   O10223106   3.822   4.454   3.461 -0.0564 -0.3891 -0.1948
  163MOL   H10323107   4.105   4.544   3.603  0.5307  2.3062 -2.0864
  163MOL   H10423108   4.062   4.464   3.451 -4.3586 -1.2149 -0.2821
  163MOL   H10523109   3.898   4.628   3.528 -0.4967 -0.0043 -0.1251
  163MOL   H10623110   3.864   4.456   3.376 -1.9069  1.3508 -1.1106
  163MOL   C10723111   3.812   4.503   3.696  0.0447 -0.0151 -0.3581
  163MOL   C10823112   3.884   4.570   3.817  0.4675 -0.0093 -0.0957
  163MOL   O10923113   3.856   4.710   3.810 -0.1969  0.0440 -0.0387
  163MOL   H11023114   3.710   4.540   3.688 -0.7429 -2.0641  0.0344
  163MOL   H11123115   3.801   4.396   3.713 -1.2047  0.3903  1.4948
  163MOL   H11223116   3.990   4.544   3.818 -0.3738 -3.6676 -0.2560
  163MOL   H11323117   3.933   4.753   3.777 -1.1881  0.7979 -1.4650
  163MOL   C11423118   3.825   4.525   3.959  0.3992 -0.5667 -0.1623
  163MOL   C11523119   3.878   4.601   4.081  0.2770  0.4261 -0.6272
  163MOL   O11623120   3.801   4.559   4.198 -0.3012 -0.6936 -0.0492
  163MOL   H11723121   3.716   4.536   3.961  0.5137  0.4908  0.3941
  163MOL   H11823122   3.844   4.418   3.965 -1.1440 -0.9431 -1.5546
  163MOL   H11923123   3.887   4.709   4.070 -1.1027  0.6860  0.7108
  163MOL   H12023124   3.852   4.592   4.270  1.4856  1.5499 -2.2208
  163MOL   C12123125   4.026   4.563   4.116 -0.2596 -0.5241  0.3563
  163MOL   C12223126   4.091   4.644   4.231 -0.6207  0.1000  0.2756
  163MOL   O12323127   3.999   4.627   4.336 -0.1438 -0.5875 -0.0808
  163MOL   H12423128   4.033   4.456   4.136 -1.5470 -0.6479  0.2116
  163MOL   H12523129   4.090   4.575   4.029  1.6060 -1.1077  1.6242
  163MOL   H12623130   4.094   4.751   4.211  1.2468 -0.5772 -3.5567
  163MOL   H12723131   4.003   4.538   4.366  0.3741 -1.1111 -1.6662
  163MOL   C12823132   4.231   4.604   4.278 -0.3833  0.4073 -0.3634
  163MOL   C12923133   4.290   4.671   4.407 -0.4064  0.6917 -0.0029
  163MOL   O13023134   4.405   4.586   4.447 -0.2387  0.1372 -0.4117
  163MOL   H13123135   4.226   4.497   4.301  1.0512 -0.0014 -1.8495
  163MOL   H13223136   4.302   4.595   4.196  2.3581 -1.3751  2.0848
  163MOL   H13323137   4.214   4.670   4.484 -0.7878  0.3386 -0.3873
  163MOL   H13423138   4.409   4.580   4.541 -1.2064 -0.7755 -0.4162
  163MOL   C13523139   4.333   4.816   4.379  0.3661 -0.1234 -0.1495
  163MOL   C13623140   4.385   4.882   4.510 -0.4749  0.0976 -0.0767
  163MOL   O13723141   4.416   5.016   4.475  0.0107 -0.5598  0.4125
  163MOL   H13823142   4.414   4.808   4.306  0.3815  0.3967 -0.1950
  163MOL   H13923143   4.250   4.871   4.335  0.4991  0.7146  0.6296
  163MOL   H14023144   4.479   4.836   4.542 -0.6462 -0.8586 -0.8909
  163MOL   H14123145   4.388   5.071   4.546 -1.2632 -2.4272  1.3951
  163MOL   H14223146   4.307   4.879   4.585 -0.7907 -1.6924 -0.4473
  164MOL     C123147   6.150   2.742   3.540 -0.0743  0.1766 -0.0432
  164MOL     C223148   5.995   2.740   3.557  0.5551  0.3104  0.4165
  164MOL     O323149   5.953   2.861   3.504  0.4561  0.6588  0.3777
  164MOL     H423150   6.182   2.840   3.575  0.8272  0.2780 -1.0962
  164MOL     H523151   6.180   2.724   3.436 -3.4325 -2.2011 -0.6608
  164MOL     H623152   5.971   2.732   3.663 -0.5819  2.5143  0.3642
  164MOL     H723153   5.864   2.865   3.537  0.2511 -1.3995  0.1397
  164MOL     H823154   6.191   2.675   3.615  1.6802 -0.8476 -1.8415
  164MOL     C923155   5.926   2.618   3.493 -0.4461 -0.0922  0.0262
  164MOL    C1023156   5.930   2.491   3.575 -0.0104  0.8252 -0.7768
  164MOL    O1123157   6.060   2.469   3.626 -0.1138  0.0322  0.6912
  164MOL    H1223158   5.821   2.644   3.485 -0.6702 -0.9464  0.1693
  164MOL    H1323159   5.955   2.597   3.390 -0.2901  2.4583 -0.4818
  164MOL    H1423160   5.897   2.406   3.515 -2.8063  1.4693 -0.2251
  164MOL    H1523161   6.096   2.401   3.571  0.4324  0.5862  0.3637
  164MOL    C1623162   5.831   2.497   3.699 -0.0761  0.2936 -0.2319
  164MOL    C1723163   5.812   2.367   3.782 -0.0477  0.5389  0.2758
  164MOL    O1823164   5.751   2.395   3.901 -0.2716  0.6241  0.5899
  164MOL    H1923165   5.879   2.573   3.760  1.4339 -0.6382 -0.2287
  164MOL    H2023166   5.736   2.534   3.661  0.2442  2.5536  1.1086
  164MOL    H2123167   5.913   2.329   3.798 -0.2342  1.2444  3.6275
  164MOL    H2223168   5.814   2.448   3.947  0.7192 -0.7038  0.8261
  164MOL    C2323169   5.735   2.252   3.708  0.0206  0.0816  0.0855
  164MOL    C2423170   5.774   2.110   3.762  0.9960 -0.4378 -0.0510
  164MOL    O2523171   5.734   2.076   3.893  0.3881 -0.4626 -0.6076
  164MOL    H2623172   5.631   2.282   3.721  0.5708  1.3943  1.5285
  164MOL    H2723173   5.756   2.265   3.602  1.4417  2.3613  0.6174
  164MOL    H2823174   5.883   2.106   3.757  0.9974 -0.6472  0.1299
  164MOL    H2923175   5.741   2.160   3.937 -1.7152  0.5917 -2.1719
  164MOL    C3023176   5.708   1.996   3.675  0.0605  0.5752  0.0714
  164MOL    C3123177   5.768   1.849   3.709  0.0516 -0.1539  1.1528
  164MOL    O3223178   5.681   1.757   3.643  0.6224  0.2541  0.3294
  164MOL    H3323179   5.600   1.999   3.687 -0.1125 -1.7155 -0.6017
  164MOL    H3423180   5.737   2.015   3.572  1.3301 -1.1974  0.0775
  164MOL    H3523181   5.759   1.838   3.817 -0.3325  2.1323  1.3659
  164MOL    H3623182   5.709   1.673   3.677  0.1090  0.0861  0.3416
  164MOL    C3723183   5.913   1.832   3.659 -0.6762 -0.6566  0.0698
  164MOL    C3823184   6.004   1.745   3.753 -0.2436 -0.5897 -0.5599
  164MOL    O3923185   6.136   1.734   3.701  0.6972  0.6336 -0.3581
  164MOL    H4023186   5.922   1.793   3.558 -0.7482  2.5394 -1.2161
  164MOL    H4123187   5.960   1.930   3.666  1.1445 -1.5312  0.2194
  164MOL    H4223188   5.971   1.641   3.763 -1.0340 -0.0539  2.9706
  164MOL    H4323189   6.178   1.656   3.733 -1.2425 -0.1495  0.3621
  164MOL    C4423190   6.009   1.812   3.895  0.6777 -0.1709  0.1944
  164MOL    C4523191   5.992   1.722   4.020  0.0540 -0.0891 -0.4564
  164MOL    O4623192   5.857   1.660   4.034 -0.7247  0.6597 -0.1398
  164MOL    H4723193   6.107   1.859   3.902 -0.0942  1.3671  0.9637
  164MOL    H4823194   5.950   1.902   3.912  2.0495  0.5465  1.3814
  164MOL    H4923195   6.006   1.786   4.107 -1.1887 -1.7473  1.0154
  164MOL    H5023196   5.797   1.729   4.057  0.4128  1.7501 -0.4097
  164MOL    C5123197   6.089   1.608   4.035 -0.0718 -0.1661 -0.6736
  164MOL    C5223198   6.237   1.644   4.034  0.0032  0.2815  1.1737
  164MOL    O5323199   6.269   1.728   4.140 -0.0857 -0.2906  0.0879
  164MOL    H5423200   6.062   1.558   4.128  1.6377 -0.2002 -0.1803
  164MOL    H5523201   6.065   1.527   3.967 -3.7529  0.5720 -0.3206
  164MOL    H5623202   6.256   1.715   3.953 -1.0068  2.2842  2.6558
  164MOL    H5723203   6.363   1.738   4.138 -0.0422 -0.6709  0.2386
  164MOL    C5823204   6.338   1.530   4.014 -0.4813 -0.4998  0.2108
  164MOL    C5923205   6.294   1.422   3.907  0.5500 -0.2093  0.0346
  164MOL    O6023206   6.235   1.465   3.783  0.4774  0.2499 -0.0687
  164MOL    H6123207   6.438   1.572   3.997 -0.2157 -0.2833  2.2153
  164MOL    H6223208   6.364   1.469   4.101 -1.1094  0.3407  0.9968
  164MOL    H6323209   6.217   1.357   3.949  0.0533  0.3988  0.0826
  164MOL    H6423210   6.148   1.431   3.794  0.5359 -0.1604 -0.8450
  164MOL    C6523211   6.409   1.339   3.857 -0.5427 -0.0457 -0.3374
  164MOL    C6623212   6.462   1.238   3.962 -0.7807 -0.3013 -0.7248
  164MOL    O6723213   6.355   1.166   4.025  0.0124  0.0566  0.1223
  164MOL    H6823214   6.383   1.278   3.770 -1.1879  0.3824 -0.4492
  164MOL    H6923215   6.487   1.399   3.811 -0.6511  0.1605 -0.2540
  164MOL    H7023216   6.509   1.294   4.043  1.5560 -1.8460 -0.9615
  164MOL    H7123217   6.314   1.218   4.093  0.5546 -2.4911  2.4993
  164MOL    C7223218   6.563   1.139   3.893  0.0684  0.5452 -0.0107
  164MOL    C7323219   6.672   1.075   3.985  0.1122  0.5651  0.2644
  164MOL    O7423220   6.743   1.183   4.037 -0.1536  0.5517 -0.2459
  164MOL    H7523221   6.510   1.054   3.850 -0.7292 -0.6401  3.1461
  164MOL    H7623222   6.616   1.185   3.810  0.1826 -0.0721 -0.2838
  164MOL    H7723223   6.739   1.009   3.930 -2.9685 -1.4173 -1.2636
  164MOL    H7823224   6.819   1.186   3.981  1.8578 -0.0750  2.3733
  164MOL    C7923225   6.617   0.989   4.100  0.6007  0.1040  0.4478
  164MOL    C8023226   6.537   0.864   4.051  0.2856  0.1079 -0.4020
  164MOL    O8123227   6.625   0.789   3.957  0.9579  0.2795 -0.6287
  164MOL    H8223228   6.702   0.952   4.158  1.0762 -0.9494 -0.8798
  164MOL    H8323229   6.568   1.052   4.174 -0.9784  1.3564 -1.6307
  164MOL    H8423230   6.451   0.901   3.994  2.1279  0.5440 -3.0048
  164MOL    H8523231   6.572   0.769   3.881 -0.1303  1.5722 -0.2286
  164MOL    C8623232   6.511   0.771   4.175  0.1082  0.6311  0.2808
  164MOL    C8723233   6.426   0.835   4.282  0.1997  0.3349 -0.5663
  164MOL    O8823234   6.290   0.821   4.243  0.2161  0.1914  0.1414
  164MOL    H8923235   6.468   0.675   4.145  2.5383 -0.3630 -0.1579
  164MOL    H9023236   6.615   0.759   4.207  0.3276  1.3877 -0.1345
  164MOL    H9123237   6.440   0.943   4.288 -1.0873  0.4453  0.6390
  164MOL    H9223238   6.249   0.906   4.230 -1.3947 -0.6990 -0.6935
  164MOL    C9323239   6.448   0.758   4.412  0.4125  0.2398  0.5075
  164MOL    C9423240   6.423   0.830   4.546  0.9401 -0.5674  0.5910
  164MOL    O9523241   6.522   0.936   4.562  0.2101  0.2581 -0.2527
  164MOL    H9623242   6.376   0.677   4.419  1.2996 -0.7117 -1.0406
  164MOL    H9723243   6.550   0.718   4.413  0.3075 -0.1117 -1.1776
  164MOL    H9823244   6.443   0.753   4.621 -0.4307  0.1338  1.7028
  164MOL    H9923245   6.597   0.913   4.509  0.8677  0.9286  0.3754
  164MOL   C10023246   6.280   0.891   4.548  0.0664 -0.1292  0.4728
  164MOL   C10123247   6.245   0.948   4.688 -0.1294 -0.3294  0.1161
  164MOL   O10223248   6.115   1.011   4.647 -0.2943  0.0918  0.0824
  164MOL   H10323249   6.277   0.977   4.480  4.3577 -1.3769 -1.4790
  164MOL   H10423250   6.212   0.816   4.509 -1.3678  2.1653 -1.5601
  164MOL   H10523251   6.313   1.022   4.729 -0.7279  0.1464  0.2575
  164MOL   H10623252   6.119   1.002   4.553 -1.0572 -1.7085  0.2083
  164MOL   C10723253   6.222   0.843   4.798 -0.3945 -0.0742  0.8106
  164MOL   C10823254   6.138   0.718   4.775  0.4190 -0.1942  0.8423
  164MOL   O10923255   6.214   0.629   4.694 -0.1143 -0.2800 -0.2394
  164MOL   H11023256   6.315   0.801   4.836 -0.7168 -1.1756  0.4018
  164MOL   H11123257   6.184   0.907   4.878  0.4513 -0.0730  1.2191
  164MOL   H11223258   6.041   0.734   4.728  0.5920  0.3290  0.6590
  164MOL   H11323259   6.161   0.580   4.633 -0.1930 -0.4949 -0.0019
  164MOL   C11423260   6.113   0.644   4.913 -0.1737 -0.0364  0.6721
  164MOL   C11523261   6.038   0.507   4.899  0.2666  0.0358 -0.7212
  164MOL   O11623262   6.069   0.425   5.012  0.5293  0.2676  0.4706
  164MOL   H11723263   6.209   0.630   4.962  0.6362 -2.2440 -1.4563
  164MOL   H11823264   6.058   0.712   4.978 -0.5470 -0.2347  0.5651
  164MOL   H11923265   6.065   0.448   4.812 -2.6114 -1.2680 -0.8101
  164MOL   H12023266   6.056   0.337   4.981  1.7773  0.2708 -0.0770
  164MOL   C12123267   5.883   0.525   4.897  0.6888  0.4058 -0.0911
  164MOL   C12223268   5.796   0.397   4.882  0.6818 -0.0027  0.2590
  164MOL   O12323269   5.655   0.436   4.873 -0.3029  0.0530 -0.3804
  164MOL   H12423270   5.851   0.570   4.991  1.9442  0.0533  0.5093
  164MOL   H12523271   5.846   0.595   4.822 -0.3843  1.7327  1.6385
  164MOL   H12623272   5.827   0.330   4.962 -0.3259  0.2225  0.8394
  164MOL   H12723273   5.636   0.438   4.965  2.1794 -2.9023  0.2405
  164MOL   C12823274   5.821   0.330   4.748 -0.8233  0.0280 -0.3122
  164MOL   C12923275   5.759   0.197   4.731 -0.0934  0.3632  0.4865
  164MOL   O13023276   5.617   0.210   4.713  0.4511  0.1537 -0.2426
  164MOL   H13123277   5.788   0.394   4.667 -0.3088  1.7529  0.8082
  164MOL   H13223278   5.928   0.309   4.749 -1.2187 -2.0798 -0.0738
  164MOL   H13323279   5.773   0.138   4.822  2.3496 -2.6394 -1.7556
  164MOL   H13423280   5.608   0.274   4.782  2.4092  0.1878  0.0124
  164MOL   C13523281   5.812   0.119   4.602  0.1472 -0.1589 -0.4054
  164MOL   C13623282   5.962   0.073   4.600 -0.0225 -0.4143 -0.6625
  164MOL   O13723283   6.033   0.171   4.533  0.0148  0.1646 -0.6647
  164MOL   H13823284   5.760   0.025   4.585  1.2995 -0.4953 -2.1589
  164MOL   H13923285   5.780   0.165   4.509  1.2435  3.9757  1.1207
  164MOL   H14023286   5.964   7.498   4.547 -1.2208 -0.4292 -0.6802
  164MOL   H14123287   6.008   0.172   4.442 -1.4957  0.1201 -0.2729
  164MOL   H14223288   6.001   0.059   4.701  1.4356  1.8553 -0.8667
  165MOL     C123289   6.173   0.825   6.778  0.1814  0.2622  0.0274
  165MOL     C223290   6.208   0.741   6.661 -0.1931 -0.4538 -0.2761
  165MOL     O323291   6.096   0.697   6.583  0.0411  0.1031  0.3314
  165MOL     H423292   6.072   0.805   6.815 -0.9585  3.2566 -1.3634
  165MOL     H523293   6.177   0.930   6.751  1.1907 -0.4445 -2.8057
  165MOL     H623294   6.261   0.653   6.697  1.8777  0.6745 -0.5166
  165MOL     H723295   6.086   0.746   6.502 -0.0875 -1.1909 -0.4582
  165MOL     H823296   6.241   0.806   6.861 -0.9310  0.3640  0.9704
  165MOL     C923297   6.308   0.819   6.573 -0.8530 -0.7101 -0.4892
  165MOL    C1023298   6.339   0.774   6.424  0.5362 -0.2687  0.5220
  165MOL    O1123299   6.219   0.809   6.343  0.0428 -1.0923  0.3136
  165MOL    H1223300   6.276   0.923   6.563  0.2400 -0.1438  1.6780
  165MOL    H1323301   6.402   0.816   6.627 -1.2183 -2.5795  0.0783
  165MOL    H1423302   6.366   0.669   6.425  0.6678 -0.2333  1.0763
  165MOL    H1523303   6.211   0.902   6.329  1.6701 -0.7297  1.5177
  165MOL    C1623304   6.465   0.845   6.371 -0.9038 -0.6491  0.5233
  165MOL    C1723305   6.489   0.839   6.210  0.1453 -0.2828  0.0085
  165MOL    O1823306   6.613   0.900   6.177  0.1170 -1.0034  0.1574
  165MOL    H1923307   6.442   0.949   6.398  1.9706  0.2351 -0.2513
  165MOL    H2023308   6.553   0.822   6.431 -1.2787 -1.6853  0.6855
  165MOL    H2123309   6.411   0.894   6.157  0.3388  1.0357  1.0803
  165MOL    H2223310   6.596   0.993   6.175  1.0249 -0.7829  2.0461
  165MOL    C2323311   6.496   0.688   6.166  0.2301  0.2256  0.0498
  165MOL    C2423312   6.551   0.657   6.023  0.5845 -0.2313 -0.3869
  165MOL    O2523313   6.599   0.521   6.024 -0.6271  0.2495 -0.1250
  165MOL    H2623314   6.558   0.639   6.241 -0.5715 -1.0889 -0.1236
  165MOL    H2723315   6.394   0.651   6.172 -0.5504  2.1458 -0.9334
  165MOL    H2823316   6.622   0.730   5.985 -0.5694  0.7141 -0.7390
  165MOL    H2923317   6.586   0.483   5.939 -1.6241 -1.5593  0.8197
  165MOL    C3023318   6.420   0.671   5.930  0.6775  0.2840  0.6765
  165MOL    C3123319   6.444   0.678   5.784  0.4922  0.4283 -0.4627
  165MOL    O3223320   6.519   0.563   5.763  0.5301 -0.2069  0.7475
  165MOL    H3323321   6.357   0.585   5.948 -0.8846  0.7879 -2.1901
  165MOL    H3423322   6.368   0.761   5.964 -0.8725 -0.7194  1.0035
  165MOL    H3523323   6.507   0.765   5.764  0.5120  0.9109  1.6363
  165MOL    H3623324   6.530   0.566   5.669 -0.0980  1.3022  0.7140
  165MOL    C3723325   6.322   0.679   5.701  0.5152  0.0497  0.3473
  165MOL    C3823326   6.240   0.808   5.714 -0.0237  0.1116  0.7019
  165MOL    O3923327   6.303   0.912   5.633  0.1604  0.5329 -0.3231
  165MOL    H4023328   6.358   0.664   5.599  0.2012  0.2499  0.2082
  165MOL    H4123329   6.260   0.593   5.724 -1.9272  0.9769 -2.4939
  165MOL    H4223330   6.228   0.848   5.814 -3.7259 -0.4133  0.5246
  165MOL    H4323331   6.279   1.001   5.656 -1.3926  0.3263 -1.0723
  165MOL    C4423332   6.092   0.781   5.668 -0.1083  1.1149 -0.1755
  165MOL    C4523333   6.000   0.690   5.764 -0.7300 -0.6814  0.0739
  165MOL    O4623334   5.975   0.784   5.870 -0.1354  0.1937 -0.2506
  165MOL    H4723335   6.039   0.875   5.658 -1.3829  0.4404  0.2104
  165MOL    H4823336   6.096   0.737   5.568 -0.2272  1.5788 -0.3863
  165MOL    H4923337   6.048   0.604   5.811  0.5792 -0.4819 -0.8572
  165MOL    H5023338   5.912   0.848   5.839  1.2503  0.6315 -2.2716
  165MOL    C5123339   5.873   0.650   5.697  0.0445  0.1486  0.3943
  165MOL    C5223340   5.876   0.499   5.644  0.4055 -0.3152  0.0666
  165MOL    O5323341   5.744   0.438   5.649 -0.4736 -0.3872 -0.1219
  165MOL    H5423342   5.791   0.663   5.767  0.1718  0.2360  0.5273
  165MOL    H5523343   5.835   0.708   5.613  0.8618  0.4477  0.2243
  165MOL    H5623344   5.934   0.439   5.715 -0.6921  1.5074  2.5770
  165MOL    H5723345   5.717   0.422   5.738  0.9515 -2.5547 -0.0397
  165MOL    C5823346   5.939   0.482   5.509  0.0724 -0.2737  0.6583
  165MOL    C5923347   5.851   0.508   5.388  0.2816 -0.3629  0.0004
  165MOL    O6023348   5.928   0.569   5.289 -0.0432 -0.2330 -0.3206
  165MOL    H6123349   6.034   0.535   5.502  0.1312 -0.4340  0.1928
  165MOL    H6223350   5.975   0.381   5.494 -1.9392 -0.8989 -0.1225
  165MOL    H6323351   5.779   0.582   5.423  2.4277  1.6519  0.3287
  165MOL    H6423352   6.002   0.514   5.270  0.2233  0.9508 -2.9776
  165MOL    C6523353   5.783   0.376   5.343  0.6708 -0.0712 -0.3948
  165MOL    C6623354   5.683   0.390   5.234  0.2043 -0.2040  0.3193
  165MOL    O6723355   5.660   0.267   5.186 -0.2617 -0.4591  0.4143
  165MOL    H6823356   5.859   0.306   5.307  1.7628  0.0833  1.5075
  165MOL    H6923357   5.733   0.318   5.420  2.5401 -1.3957 -0.1243
  165MOL    H7023358   5.713   0.462   5.158 -0.8158 -0.6065 -0.4737
  165MOL    H7123359   5.606   0.228   5.253 -1.3784  3.4270  1.8985
  165MOL    C7223360   5.546   0.440   5.285 -0.1431 -0.1794  0.1000
  165MOL    C7323361   5.524   0.593   5.295 -0.4391  0.2536  0.3166
  165MOL    O7423362   5.537   0.647   5.164 -0.3924  0.7430  0.7402
  165MOL    H7523363   5.478   0.401   5.210  0.5183 -0.2787 -0.4582
  165MOL    H7623364   5.527   0.401   5.385  1.2523  1.4266  1.0125
  165MOL    H7723365   5.589   0.639   5.370  0.3487 -1.6206  0.8215
  165MOL    H7823366   5.557   0.739   5.176  0.8857  0.4534  0.9129
  165MOL    C7923367   5.382   0.621   5.352 -0.2429  0.0347 -0.5951
  165MOL    C8023368   5.351   0.573   5.494  0.0174  0.1547 -0.3469
  165MOL    O8123369   5.419   0.649   5.591 -0.3134  0.2741 -0.2207
  165MOL    H8223370   5.355   0.726   5.343 -1.0454 -0.0247  0.8658
  165MOL    H8323371   5.307   0.579   5.284  1.2879 -1.5388 -1.3480
  165MOL    H8423372   5.387   0.471   5.496 -2.4520 -0.8187 -2.6528
  165MOL    H8523373   5.417   0.614   5.679 -0.1209  1.7286  0.3763
  165MOL    C8623374   5.199   0.554   5.524  0.0568 -0.6213  0.0233
  165MOL    C8723375   5.096   0.664   5.511  0.5581  0.1236  0.0826
  165MOL    O8823376   4.971   0.610   5.533 -0.1070 -0.1288 -0.0563
  165MOL    H8923377   5.154   0.491   5.447 -2.2540 -0.4691  1.2173
  165MOL    H9023378   5.172   0.503   5.616  1.2633 -3.3600 -1.0751
  165MOL    H9123379   5.109   0.695   5.407  1.8744 -1.0327 -0.1075
  165MOL    H9223380   4.909   0.638   5.468  0.3850  0.9906 -0.0549
  165MOL    C9323381   5.129   0.779   5.612  0.3827  0.0576  1.0847
  165MOL    C9423382   5.020   0.897   5.632  0.0659 -0.5332  0.3539
  165MOL    O9523383   4.922   0.841   5.719 -0.0515 -0.2116  0.4845
  165MOL    H9623384   5.163   0.737   5.707 -2.6425 -0.7368  1.8871
  165MOL    H9723385   5.214   0.824   5.562 -0.9300  0.3801 -0.8991
  165MOL    H9823386   4.975   0.935   5.540  0.0979 -0.3786  0.4021
  165MOL    H9923387   4.873   0.775   5.672 -1.2799  0.1149  1.2875
  165MOL   C10023388   5.092   1.028   5.687  0.3814 -0.7713  0.0383
  165MOL   C10123389   4.999   1.135   5.757  0.3534  0.6502  0.7472
  165MOL   O10223390   5.093   1.230   5.803 -0.0609  0.0714 -0.2016
  165MOL   H10323391   5.150   0.999   5.775 -1.1974 -3.3413  0.3112
  165MOL   H10423392   5.153   1.072   5.609  0.8519 -1.3411  0.0799
  165MOL   H10523393   4.962   1.098   5.852  1.3550  2.2284  1.7701
  165MOL   H10623394   5.145   1.179   5.863 -0.6481 -0.4779 -0.1620
  165MOL   C10723395   4.895   1.198   5.662 -0.2465 -0.2438 -0.0898
  165MOL   C10823396   4.791   1.289   5.725 -0.0138 -0.1322  0.5796
  165MOL   O10923397   4.763   1.384   5.637  0.0532 -0.0618 -0.2130
  165MOL   H11023398   4.954   1.244   5.583  0.0300 -3.2269 -1.6706
  165MOL   H11123399   4.842   1.117   5.612 -0.4892  0.4414 -0.9762
  165MOL   H11223400   4.833   1.330   5.817 -0.6098  1.2252  0.2493
  165MOL   H11323401   4.717   1.445   5.693 -1.5064 -2.2063  0.9309
  165MOL   C11423402   4.657   1.227   5.756  0.5215  0.1482 -0.4853
  165MOL   C11523403   4.664   1.130   5.871 -0.1224  0.0684 -0.1111
  165MOL   O11623404   4.670   1.206   5.991 -0.0574  0.4925 -0.2404
  165MOL   H11723405   4.589   1.306   5.787 -0.8878 -1.3996  0.4401
  165MOL   H11823406   4.609   1.183   5.668  1.3614  0.1561 -0.9622
  165MOL   H11923407   4.753   1.069   5.858 -1.2722 -1.9006  1.0823
  165MOL   H12023408   4.582   1.233   6.016 -0.4189  0.2938 -1.2626
  165MOL   C12123409   4.552   1.027   5.880 -0.5778  0.1615  0.2068
  165MOL   C12223410   4.543   0.910   5.769 -0.1369 -0.0515 -0.0245
  165MOL   O12323411   4.500   0.786   5.829 -0.6951 -0.2348  0.3259
  165MOL   H12423412   4.578   0.973   5.971 -0.0213  0.4002  0.1896
  165MOL   H12523413   4.456   1.073   5.901  0.1852  0.4415  3.4650
  165MOL   H12623414   4.649   0.895   5.746 -0.1410 -0.2862  0.1081
  165MOL   H12723415   4.418   0.818   5.863  0.1471 -0.0010  2.1941
  165MOL   C12823416   4.457   0.929   5.643  0.5256 -0.3142  0.5483
  165MOL   C12923417   4.490   0.836   5.526 -0.1644 -0.0286  0.7146
  165MOL   O13023418   4.400   0.876   5.423  0.0019 -0.2271  0.5203
  165MOL   H13123419   4.351   0.934   5.669  0.1678 -3.2637 -0.1553
  165MOL   H13223420   4.478   1.027   5.600 -1.5965  0.7487  1.8639
  165MOL   H13323421   4.477   0.734   5.560 -1.3837  0.3916  1.5415
  165MOL   H13423422   4.313   0.876   5.459  0.4585  2.3493  1.7321
  165MOL   C13523423   4.638   0.852   5.474 -0.5650 -0.4378 -0.1847
  165MOL   C13623424   4.674   0.784   5.342  0.0131  0.3449  0.6731
  165MOL   O13723425   4.793   0.712   5.352 -0.4435  0.0089 -0.4992
  165MOL   H13823426   4.652   0.960   5.461 -1.8529 -0.2824 -0.4420
  165MOL   H13923427   4.705   0.829   5.557  0.8219  2.2176 -0.5103
  165MOL   H14023428   4.666   0.850   5.256  0.3927 -0.4635  0.0023
  165MOL   H14123429   4.794   0.651   5.280 -0.7446  0.3451 -0.7918
  165MOL   H14223430   4.596   0.709   5.327 -0.1021  0.7451 -0.7922
  166MOL     C123431   4.226   7.332   2.466 -0.0417  0.8987 -0.0355
  166MOL     C223432   4.081   7.345   2.411  0.3839 -0.1020  0.1064
  166MOL     O323433   4.092   7.316   2.276  0.2265 -0.6162 -0.5776
  166MOL     H423434   4.271   7.244   2.421 -0.0689  0.6394  0.4394
  166MOL     H523435   4.238   7.329   2.575  1.2848  0.9914 -0.1732
  166MOL     H623436   4.039   7.444   2.426  0.2543 -0.2171  0.4990
  166MOL     H723437   4.025   7.361   2.227 -1.5783 -1.3723  1.1376
  166MOL     H823438   4.279   7.422   2.435  0.5021  0.5352 -0.1608
  166MOL     C923439   3.991   7.245   2.482  0.1331 -0.4790 -1.1132
  166MOL    C1023440   3.942   7.279   2.622  0.4559 -0.8469 -0.0459
  166MOL    O1123441   3.862   7.396   2.606  0.2827 -0.0401  0.0212
  166MOL    H1223442   3.900   7.228   2.424  1.8851 -2.8972 -3.2348
  166MOL    H1323443   4.046   7.152   2.490  2.2574  0.8850  0.8055
  166MOL    H1423444   4.027   7.296   2.687 -0.0803 -0.7409  0.6346
  166MOL    H1523445   3.815   7.390   2.688  1.7531 -0.3521  0.8517
  166MOL    C1623446   3.850   7.174   2.688 -0.4366 -0.0936  0.2008
  166MOL    C1723447   3.809   7.213   2.832  0.0202  0.6236 -0.2596
  166MOL    O1823448   3.731   7.332   2.831 -0.0095 -0.1024 -0.2953
  166MOL    H1923449   3.765   7.145   2.626 -0.6220 -1.4984  1.0941
  166MOL    H2023450   3.917   7.088   2.698 -0.9554 -0.4897  0.3123
  166MOL    H2123451   3.883   7.214   2.912  2.3739 -0.6346 -2.3399
  166MOL    H2223452   3.698   7.336   2.920  2.5496  2.5398  0.6211
  166MOL    C2323453   3.715   7.104   2.887 -0.0717 -0.0212  0.3391
  166MOL    C2423454   3.701   7.082   3.041  0.5285 -0.5469 -0.5161
  166MOL    O2523455   3.656   7.200   3.111 -0.1263 -0.4406 -0.6412
  166MOL    H2623456   3.617   7.108   2.839  0.5264 -3.2819 -1.3349
  166MOL    H2723457   3.759   7.011   2.851 -0.0412  0.2408 -0.3238
  166MOL    H2823458   3.803   7.050   3.065  0.6790 -0.5407 -1.1379
  166MOL    H2923459   3.619   7.163   3.190  1.6267 -1.6601 -0.3585
  166MOL    C3023460   3.608   6.965   3.079  0.1826  0.0186 -0.4182
  166MOL    C3123461   3.611   6.935   3.236 -0.1466 -0.5044 -0.3835
  166MOL    O3223462   3.560   7.053   3.302 -0.0460 -0.6959  0.1900
  166MOL    H3323463   3.515   6.981   3.025  0.3708 -0.1823 -0.8055
  166MOL    H3423464   3.650   6.875   3.034  0.9938 -0.6832  1.6610
  166MOL    H3523465   3.717   6.927   3.259 -0.0225  1.2313 -0.2530
  166MOL    H3623466   3.467   7.041   3.308 -0.3716  1.4104 -0.4564
  166MOL    C3723467   3.528   6.811   3.279 -0.0889 -0.1996 -0.2726
  166MOL    C3823468   3.589   6.673   3.259  0.0231 -0.8775  0.0320
  166MOL    O3923469   3.624   6.630   3.391 -0.1873 -0.0061  0.3017
  166MOL    H4023470   3.490   6.808   3.381  1.7796 -0.7747  0.4118
  166MOL    H4123471   3.443   6.815   3.210  1.4081  2.3170 -2.0515
  166MOL    H4223472   3.676   6.680   3.194 -0.0058 -0.2734  0.0536
  166MOL    H4323473   3.671   6.548   3.386  0.5832  0.3900  1.0555
  166MOL    C4423474   3.494   6.568   3.207 -0.4955 -0.2048  0.5379
  166MOL    C4523475   3.441   6.592   3.059  0.0348 -0.4626 -0.4833
  166MOL    O4623476   3.501   6.496   2.976 -0.9311 -0.0453  0.4569
  166MOL    H4723477   3.538   6.469   3.217  0.2289  0.1226  0.5918
  166MOL    H4823478   3.404   6.549   3.265 -1.8556  1.7748 -0.8333
  166MOL    H4923479   3.466   6.692   3.025 -0.2434  0.4351  1.8617
  166MOL    H5023480   3.585   6.468   3.008 -0.3005 -1.2694 -2.1919
  166MOL    C5123481   3.290   6.585   3.041 -0.4662 -0.4795  0.2507
  166MOL    C5223482   3.232   6.625   2.901 -0.0404 -0.7076  0.2882
  166MOL    O5323483   3.095   6.602   2.914 -0.2252  0.5272  0.1956
  166MOL    H5423484   3.264   6.481   3.061 -1.2916 -0.5231 -1.0456
  166MOL    H5523485   3.242   6.636   3.124 -0.8056  0.2909 -0.4184
  166MOL    H5623486   3.275   6.559   2.826  0.8589  0.7557 -0.5078
  166MOL    H5723487   3.095   6.508   2.907 -0.7207  0.6381 -1.3965
  166MOL    C5823488   3.263   6.769   2.854 -0.1091 -0.8841 -0.3643
  166MOL    C5923489   3.349   6.781   2.726 -0.4875 -0.4379 -0.7810
  166MOL    O6023490   3.368   6.923   2.708  0.1434  0.4329  0.1003
  166MOL    H6123491   3.174   6.831   2.847  0.6810  0.1556 -1.6543
  166MOL    H6223492   3.305   6.823   2.939  0.7657 -0.7607 -0.8589
  166MOL    H6323493   3.292   6.738   2.644  1.5728 -0.7966 -2.0802
  166MOL    H6423494   3.303   6.969   2.656 -1.8489 -0.4997  1.7265
  166MOL    C6523495   3.490   6.727   2.733  0.0889 -0.0362 -0.0088
  166MOL    C6623496   3.579   6.759   2.606  0.5382 -0.0055 -0.0060
  166MOL    O6723497   3.705   6.699   2.620  0.5715  0.2715  0.0985
  166MOL    H6823498   3.549   6.777   2.810  0.9426 -0.0657 -0.6423
  166MOL    H6923499   3.485   6.621   2.759 -1.3209  0.2397  0.9143
  166MOL    H7023500   3.613   6.863   2.600 -0.1959  0.1283 -2.4606
  166MOL    H7123501   3.764   6.723   2.550  1.2293  1.9899  1.2117
  166MOL    C7223502   3.520   6.698   2.474  0.3628 -0.2311 -0.0797
  166MOL    C7323503   3.425   6.793   2.394 -0.3441  0.1460 -0.6942
  166MOL    O7423504   3.506   6.890   2.332 -0.5503 -0.0531  0.0503
  166MOL    H7523505   3.589   6.664   2.397  2.9664  0.4695  1.8709
  166MOL    H7623506   3.480   6.602   2.506 -0.3715 -0.0344 -0.3999
  166MOL    H7723507   3.356   6.840   2.464  0.0412  0.2090 -0.3576
  166MOL    H7823508   3.564   6.852   2.268  1.3218  1.7048  0.6819
  166MOL    C7923509   3.333   6.725   2.296  0.6467 -0.1675  0.0257
  166MOL    C8023510   3.257   6.602   2.349  0.0781 -0.3906  0.5921
  166MOL    O8123511   3.181   6.637   2.460 -0.2082 -0.3088  0.6359
  166MOL    H8223512   3.277   6.803   2.245  1.9425  0.9215  0.2262
  166MOL    H8323513   3.392   6.684   2.215 -1.1040 -2.6165 -0.0580
  166MOL    H8423514   3.324   6.522   2.380  0.6458 -0.2607 -0.2598
  166MOL    H8523515   3.118   6.704   2.438 -0.7060 -1.0190 -0.1483
  166MOL    C8623516   3.156   6.545   2.246 -0.1830 -0.7823  0.5683
  166MOL    C8723517   3.092   6.405   2.286 -0.2825 -0.2034  0.4288
  166MOL    O8823518   3.039   6.412   2.418 -0.1300 -0.0506  0.1542
  166MOL    H8923519   3.077   6.616   2.223  1.0033 -0.2164 -1.9465
  166MOL    H9023520   3.216   6.542   2.155  0.2699  1.4657  0.7777
  166MOL    H9123521   3.185   6.350   2.265 -1.1085 -1.4697  0.0346
  166MOL    H9223522   3.077   6.490   2.455  0.7008 -1.0644  1.4537
  166MOL    C9323523   2.970   6.377   2.193 -0.1054  0.6248 -0.3071
  166MOL    C9423524   2.919   6.230   2.190 -0.3712  0.4509 -0.0020
  166MOL    O9523525   2.794   6.225   2.121  0.8658 -0.3578 -0.3207
  166MOL    H9623526   2.885   6.433   2.232  0.1729 -0.7939  2.4781
  166MOL    H9723527   3.006   6.401   2.093 -1.2340  1.0348 -0.6228
  166MOL    H9823528   2.895   6.212   2.294  1.5482 -3.5515 -0.1668
  166MOL    H9923529   2.792   6.255   2.031  2.5972  0.0475 -0.2388
  166MOL   C10023530   3.022   6.126   2.130  0.6873 -0.1423 -0.4077
  166MOL   C10123531   3.008   5.980   2.154  0.0749  0.4886  0.1678
  166MOL   O10223532   2.931   5.917   2.055 -0.4733 -0.4167  0.3581
  166MOL   H10323533   3.042   6.158   2.027 -0.0317  2.1023  0.1188
  166MOL   H10423534   3.113   6.160   2.180 -0.5892  2.0336  0.5037
  166MOL   H10523535   2.958   5.969   2.250 -1.3937 -0.7593 -0.7190
  166MOL   H10623536   2.852   5.964   2.035 -0.6503 -1.3457 -1.2325
  166MOL   C10723537   3.146   5.903   2.148  0.1237  0.1093 -0.1427
  166MOL   C10823538   3.131   5.747   2.159  1.1042  0.3977  0.3901
  166MOL   O10923539   3.259   5.684   2.136 -0.6288 -0.2461  0.0816
  166MOL   H11023540   3.172   5.914   2.043  4.0701 -2.1277  0.4935
  166MOL   H11123541   3.219   5.935   2.222 -1.1312  0.4524  0.9670
  166MOL   H11223542   3.074   5.712   2.073  1.8806  0.4645 -0.1616
  166MOL   H11323543   3.267   5.663   2.044 -0.1324 -0.9207  0.2724
  166MOL   C11423544   3.074   5.697   2.296 -0.6762 -0.2290  0.4267
  166MOL   C11523545   3.028   5.549   2.301  0.9581  0.2553  0.7245
  166MOL   O11623546   3.067   5.500   2.433  0.8175  0.2519 -0.0696
  166MOL   H11723547   3.143   5.731   2.373 -0.7750  0.4241  0.2322
  166MOL   H11823548   2.988   5.759   2.320 -0.7960 -0.2673  0.0861
  166MOL   H11923549   3.080   5.494   2.222 -0.6590  0.3536 -0.4287
  166MOL   H12023550   3.014   5.547   2.495 -1.9105 -2.1539 -0.4964
  166MOL   C12123551   2.875   5.527   2.283 -0.1816 -0.4608  0.3502
  166MOL   C12223552   2.815   5.575   2.147 -0.1055  0.2082  0.1578
  166MOL   O12323553   2.859   5.496   2.043  0.0046 -0.0034 -0.2529
  166MOL   H12423554   2.849   5.422   2.295  1.8937 -1.0100  0.3577
  166MOL   H12523555   2.829   5.584   2.363 -0.2168  1.9098 -1.3326
  166MOL   H12623556   2.841   5.678   2.123  3.2553 -0.7406 -0.5739
  166MOL   H12723557   2.875   5.547   1.965 -1.1102 -0.0448 -0.5192
  166MOL   C12823558   2.660   5.556   2.155 -0.4281 -0.2826  0.3811
  166MOL   C12923559   2.587   5.604   2.022 -0.3719  0.0319  0.1694
  166MOL   O13023560   2.453   5.564   2.045 -0.2960 -0.2875 -0.3658
  166MOL   H13123561   2.652   5.454   2.191 -1.4427  0.3081  1.9183
  166MOL   H13223562   2.625   5.615   2.239  1.7835  1.5260  0.0993
  166MOL   H13323563   2.613   5.538   1.940 -1.0400 -1.5308  1.1931
  166MOL   H13423564   2.435   5.566   2.138 -1.3067 -1.6116 -0.5217
  166MOL   C13523565   2.595   5.752   1.976  0.1774  0.5612 -0.0238
  166MOL   C13623566   2.593   5.859   2.086  0.1979 -0.3831  0.3313
  166MOL   O13723567   2.627   5.976   2.020 -0.0098  0.4378 -0.5371
  166MOL   H13823568   2.686   5.768   1.919 -0.8278  0.0697 -1.7965
  166MOL   H13923569   2.512   5.778   1.910  1.2424 -0.3427 -1.7361
  166MOL   H14023570   2.658   5.833   2.169  0.1165  0.1543  0.5649
  166MOL   H14123571   2.646   6.042   2.085 -0.9530  0.3461 -0.1684
  166MOL   H14223572   2.489   5.883   2.109  0.2599 -0.9925  1.2619
  167MOL     C123573   1.102   1.418   4.082 -0.0649  0.7163  0.3646
  167MOL     C223574   1.196   1.500   3.993 -0.2324  0.1308  0.3956
  167MOL     O323575   1.314   1.517   4.071 -0.5916 -0.5219 -0.2599
  167MOL     H423576   1.157   1.334   4.124  1.0618  1.6928  0.8989
  167MOL     H523577   1.016   1.384   4.025 -0.2608  0.8582  0.5741
  167MOL     H623578   1.152   1.598   3.972 -0.3755 -0.3391 -1.6201
  167MOL     H723579   1.386   1.467   4.035 -1.0945 -1.6668  0.2834
  167MOL     H823580   1.059   1.478   4.162  0.8103 -0.3272  1.6569
  167MOL     C923581   1.212   1.431   3.855  0.3711  0.1454 -0.2207
  167MOL    C1023582   1.243   1.513   3.725 -0.1602  0.0997  0.2938
  167MOL    O1123583   1.249   1.416   3.614  0.3827 -0.0566  0.1385
  167MOL    H1223584   1.279   1.344   3.849 -0.6130 -0.6769  0.6578
  167MOL    H1323585   1.115   1.384   3.843 -0.8025  1.0567  4.7371
  167MOL    H1423586   1.343   1.557   3.735  1.2799 -1.9059 -3.9936
  167MOL    H1523587   1.337   1.399   3.584  1.3303  0.9776  2.2291
  167MOL    C1623588   1.150   1.623   3.691  0.4477 -0.4039 -0.1517
  167MOL    C1723589   1.207   1.718   3.572  0.9431  0.0753 -0.6886
  167MOL    O1823590   1.098   1.801   3.525 -0.5145  0.3354 -0.0859
  167MOL    H1923591   1.050   1.584   3.670  0.3759 -0.5025  0.3723
  167MOL    H2023592   1.137   1.690   3.776 -0.2114 -2.1968  1.1775
  167MOL    H2123593   1.240   1.654   3.490  0.7946 -4.8327  2.8330
  167MOL    H2223594   1.045   1.748   3.467 -1.1065 -2.1785  2.6493
  167MOL    C2323595   1.331   1.811   3.601 -0.1555 -0.1703  0.1246
  167MOL    C2423596   1.380   1.900   3.491 -0.1850 -0.1116 -0.3300
  167MOL    O2523597   1.474   1.988   3.534 -0.3781  0.5107 -0.7355
  167MOL    H2623598   1.308   1.872   3.689  0.6013 -0.0339  0.2273
  167MOL    H2723599   1.412   1.749   3.639  0.7527  0.6087 -0.5471
  167MOL    H2823600   1.299   1.962   3.455  0.1537  1.4484  1.5011
  167MOL    H2923601   1.460   2.058   3.473 -0.9667  0.0320 -1.1534
  167MOL    C3023602   1.436   1.824   3.371  0.5853 -0.2883  0.1193
  167MOL    C3123603   1.520   1.914   3.268 -0.0588  0.2515  0.0295
  167MOL    O3223604   1.569   1.828   3.170  0.0356 -0.3269  0.0913
  167MOL    H3323605   1.494   1.744   3.417  0.7466  0.8251  1.9258
  167MOL    H3423606   1.358   1.781   3.308  0.2889  0.1833  0.1629
  167MOL    H3523607   1.612   1.941   3.320  0.6435 -0.1027 -1.0068
  167MOL    H3623608   1.649   1.786   3.199  0.3011 -0.5225 -0.9107
  167MOL    C3723609   1.437   2.035   3.204 -0.5478 -0.1805  0.6773
  167MOL    C3823610   1.465   2.181   3.243 -0.8387  0.8363  0.1611
  167MOL    O3923611   1.437   2.199   3.372  0.7576  0.4318  0.8048
  167MOL    H4023612   1.456   2.030   3.097  5.2393  1.1730  1.4621
  167MOL    H4123613   1.331   2.010   3.209 -0.9275  0.8512 -1.5864
  167MOL    H4223614   1.406   2.249   3.181  0.3914  2.0410  0.2930
  167MOL    H4323615   1.343   2.213   3.370  0.5193 -1.1980 -1.1506
  167MOL    C4423616   1.608   2.227   3.230  0.2635 -0.4146  0.1608
  167MOL    C4523617   1.672   2.219   3.096  0.6601  0.8180  0.4838
  167MOL    O4623618   1.587   2.259   2.993  0.2208  0.3084 -0.2523
  167MOL    H4723619   1.613   2.333   3.256  2.5437  0.0878 -2.0799
  167MOL    H4823620   1.670   2.182   3.308  0.4863 -0.6108 -0.1304
  167MOL    H4923621   1.693   2.115   3.070  0.1535  1.1120 -1.1549
  167MOL    H5023622   1.646   2.274   2.921  1.1139 -2.2307 -0.1151
  167MOL    C5123623   1.809   2.291   3.083  0.0601  0.1690  0.5243
  167MOL    C5223624   1.896   2.239   2.959  0.1988 -0.1690  0.1772
  167MOL    O5323625   1.810   2.254   2.848 -0.2755 -0.4756  0.0483
  167MOL    H5423626   1.804   2.399   3.095  1.5460  0.3139  0.0255
  167MOL    H5523627   1.873   2.261   3.166 -0.5762 -2.5848  0.0915
  167MOL    H5623628   1.924   2.134   2.966 -1.6339 -0.8813 -2.2998
  167MOL    H5723629   1.846   2.194   2.784 -0.1521 -1.4191  0.9751
  167MOL    C5823630   2.014   2.333   2.928  0.1336 -0.4251  0.0592
  167MOL    C5923631   2.141   2.298   3.005  1.3213 -0.0909 -0.2398
  167MOL    O6023632   2.187   2.168   2.978 -0.6137 -0.0976 -0.0230
  167MOL    H6123633   2.034   2.331   2.821  1.4407 -0.5912  0.3028
  167MOL    H6223634   1.981   2.435   2.949 -0.0884  0.5567 -4.5363
  167MOL    H6323635   2.101   2.280   3.105  1.5146  2.2041  0.2908
  167MOL    H6423636   2.159   2.145   2.891  4.1489  1.7340 -2.2040
  167MOL    C6523637   2.244   2.412   3.004  0.5615  0.0488  0.8525
  167MOL    C6623638   2.309   2.437   2.862 -0.0317  0.0062 -0.6521
  167MOL    O6723639   2.359   2.571   2.871  0.2002 -0.0454  0.3274
  167MOL    H6823640   2.191   2.503   3.032 -0.6802  0.6761 -3.1838
  167MOL    H6923641   2.315   2.392   3.084 -1.1914 -2.6433  1.8238
  167MOL    H7023642   2.231   2.436   2.786  0.1796 -0.0292 -0.8686
  167MOL    H7123643   2.307   2.624   2.812 -0.3874 -0.4637  0.4629
  167MOL    C7223644   2.436   2.346   2.829 -1.1396 -0.1835  0.2585
  167MOL    C7323645   2.469   2.333   2.681  0.0031  0.1893  0.6851
  167MOL    O7423646   2.603   2.290   2.652  0.5214 -0.1568 -0.1912
  167MOL    H7523647   2.523   2.383   2.884 -0.8936 -0.3144 -0.0439
  167MOL    H7623648   2.432   2.246   2.872  2.9705  0.4821  2.4201
  167MOL    H7723649   2.445   2.427   2.630  2.1689  0.8879  0.9360
  167MOL    H7823650   2.635   2.338   2.577 -0.0548  0.6106  0.0453
  167MOL    C7923651   2.392   2.212   2.616  0.5548 -0.6014 -0.1664
  167MOL    C8023652   2.237   2.222   2.600 -0.0807 -0.4537  0.4880
  167MOL    O8123653   2.209   2.319   2.499 -0.2585  0.1407 -0.1102
  167MOL    H8223654   2.431   2.191   2.516  1.6878  0.9821 -0.0662
  167MOL    H8323655   2.418   2.128   2.681 -1.6045 -2.7426 -1.9490
  167MOL    H8423656   2.184   2.248   2.691  0.0746 -1.0115  0.7401
  167MOL    H8523657   2.122   2.354   2.511  0.7488  3.1697 -1.2314
  167MOL    C8623658   2.172   2.088   2.552  1.4473  0.1185 -0.4509
  167MOL    C8723659   2.147   1.988   2.669 -0.0416 -0.4276 -0.4699
  167MOL    O8823660   2.045   2.054   2.748 -0.8173  0.2461  0.1228
  167MOL    H8923661   2.074   2.100   2.506  0.8507  0.9527  0.9856
  167MOL    H9023662   2.253   2.053   2.488  0.3025 -0.9058 -1.3660
  167MOL    H9123663   2.234   1.976   2.734  0.3924 -0.3370 -1.0375
  167MOL    H9223664   1.964   2.005   2.753  0.6482 -2.3793 -0.8012
  167MOL    C9323665   2.093   1.854   2.617  0.9183  0.0342  0.2234
  167MOL    C9423666   2.068   1.748   2.727 -0.5679  0.9180  1.2032
  167MOL    O9523667   1.945   1.764   2.797 -0.6065 -0.0711 -0.6794
  167MOL    H9623668   2.001   1.875   2.563  0.3951 -0.4508  0.9327
  167MOL    H9723669   2.160   1.815   2.540 -0.1864  0.0035 -0.7311
  167MOL    H9823670   2.140   1.775   2.804  0.1759  0.3628  0.7160
  167MOL    H9923671   1.954   1.717   2.878  2.1704  0.5991 -0.5208
  167MOL   C10023672   2.091   1.600   2.673 -0.4723 -0.6177  0.3771
  167MOL   C10123673   2.176   1.503   2.755  0.0139 -0.6701  0.4096
  167MOL   O10223674   2.185   1.386   2.686 -0.2699 -0.2003  0.0359
  167MOL   H10323675   1.998   1.545   2.657  0.4204 -1.1006 -3.7387
  167MOL   H10423676   2.138   1.602   2.575 -0.0572  0.0636  0.5815
  167MOL   H10523677   2.117   1.486   2.845  0.0125 -0.4457  0.4515
  167MOL   H10623678   2.190   1.316   2.749 -0.8911 -0.5909 -0.3378
  167MOL   C10723679   2.307   1.566   2.793 -0.1435 -0.6142  0.3221
  167MOL   C10823680   2.396   1.632   2.687  0.3136  0.0188  0.7381
  167MOL   O10923681   2.501   1.697   2.755  0.3477 -0.4998 -0.3363
  167MOL   H11023682   2.291   1.639   2.873 -1.2204  2.2027 -2.3446
  167MOL   H11123683   2.374   1.484   2.819  0.1873  0.3727  2.7482
  167MOL   H11223684   2.348   1.712   2.631 -0.3867 -1.6595 -1.1127
  167MOL   H11323685   2.528   1.776   2.709 -1.8065 -0.0446 -0.8828
  167MOL   C11423686   2.457   1.549   2.575 -0.3254 -0.6682  0.6168
  167MOL   C11523687   2.378   1.533   2.450  0.1716  0.3007  0.1724
  167MOL   O11623688   2.334   1.653   2.381  0.8504  0.3403 -0.1869
  167MOL   H11723689   2.558   1.582   2.548 -1.2045  1.0639 -0.6301
  167MOL   H11823690   2.476   1.452   2.622 -0.2792 -1.5374 -1.1426
  167MOL   H11923691   2.291   1.479   2.487  0.1858  1.1396  1.4528
  167MOL   H12023692   2.266   1.633   2.319 -0.4114  0.9546  0.9789
  167MOL   C12123693   2.448   1.437   2.340  0.4525 -0.4794  0.1594
  167MOL   C12223694   2.363   1.407   2.210  0.6406 -0.1701 -0.1542
  167MOL   O12323695   2.453   1.356   2.118 -0.2310  0.0654  0.0132
  167MOL   H12423696   2.544   1.482   2.313 -0.0169  0.7643  0.5576
  167MOL   H12523697   2.471   1.343   2.389 -0.7081 -1.0779 -0.4178
  167MOL   H12623698   2.328   1.497   2.159  0.1007  0.2828  0.9859
  167MOL   H12723699   2.395   1.343   2.044  2.7426 -1.1648 -2.1892
  167MOL   C12823700   2.246   1.306   2.219  0.5785 -0.0154 -0.1567
  167MOL   C12923701   2.153   1.291   2.101 -0.1431  0.4161 -0.1776
  167MOL   O13023702   2.238   1.266   1.983  0.5081  0.4493 -0.4628
  167MOL   H13123703   2.285   1.208   2.247 -0.1187 -0.0052  0.8791
  167MOL   H13223704   2.182   1.327   2.305 -0.6798 -1.9550 -0.5702
  167MOL   H13323705   2.102   1.386   2.087  0.3176  0.7294  0.2156
  167MOL   H13423706   2.182   1.274   1.907  0.8071  5.8604 -0.3069
  167MOL   C13523707   2.052   1.177   2.121 -0.4654  0.6516 -0.1476
  167MOL   C13623708   1.950   1.199   2.235 -0.2561 -0.1359  0.3247
  167MOL   O13723709   1.851   1.103   2.219 -0.0641  0.7347  0.2826
  167MOL   H13823710   1.992   1.167   2.030 -1.8209  0.0338  0.8010
  167MOL   H13923711   2.109   1.084   2.130 -0.3768  0.4183 -2.7391
  167MOL   H14023712   1.898   1.295   2.233  1.6745  0.9223 -2.5912
  167MOL   H14123713   1.784   1.122   2.284  1.1122 -1.1231  2.1294
  167MOL   H14223714   1.983   1.180   2.337 -0.6440 -0.3593  0.4134
  168MOL     C123715   1.597   5.933   3.983 -0.3172  0.7014 -0.1916
  168MOL     C223716   1.740   5.914   3.915  0.7114  0.5630 -0.3546
  168MOL     O323717   1.730   5.977   3.792 -0.2552  0.2977  0.1504
  168MOL     H423718   1.521   5.884   3.923 -0.8129  0.2453  0.7881
  168MOL     H523719   1.583   6.040   3.996  1.5880  1.0109 -0.4956
  168MOL     H623720   1.750   5.805   3.917  0.7327  0.5892  1.9356
  168MOL     H723721   1.808   5.967   3.739  2.5993 -0.6907  4.3453
  168MOL     H823722   1.597   5.884   4.081  2.7167 -1.7220 -1.3344
  168MOL     C923723   1.847   5.960   4.009 -0.0846  0.4280 -0.1842
  168MOL    C1023724   1.993   5.945   3.964 -0.3960  0.1659 -0.3442
  168MOL    O1123725   2.068   6.055   4.012 -0.1714  0.6672  0.5217
  168MOL    H1223726   1.815   6.060   4.038 -1.6233  0.8164 -3.0283
  168MOL    H1323727   1.841   5.915   4.108  1.4145  2.7304  0.9957
  168MOL    H1423728   1.991   5.943   3.855  0.1241 -1.3221 -0.3306
  168MOL    H1523729   2.036   6.121   3.951 -1.1155  0.1928  0.5118
  168MOL    C1623730   2.063   5.814   4.008 -0.2206 -0.2710  0.4193
  168MOL    C1723731   2.202   5.808   3.957  0.0296 -0.7900 -0.0624
  168MOL    O1823732   2.271   5.825   4.079  0.0733  0.4384 -0.2978
  168MOL    H1923733   2.052   5.795   4.115 -1.2402 -1.0162  0.1920
  168MOL    H2023734   2.001   5.741   3.957  0.9016 -0.5827 -0.5160
  168MOL    H2123735   2.219   5.882   3.878 -0.8152 -0.9466 -0.4012
  168MOL    H2223736   2.243   5.910   4.108 -0.4023 -0.4336  1.9277
  168MOL    C2323737   2.238   5.674   3.897 -0.8883  0.0763  0.5366
  168MOL    C2423738   2.187   5.655   3.753 -0.0308 -0.5316 -0.1800
  168MOL    O2523739   2.273   5.724   3.666  0.0600  0.0421 -0.1306
  168MOL    H2623740   2.342   5.643   3.895 -1.0315 -0.3912  0.3379
  168MOL    H2723741   2.203   5.594   3.963 -2.0146  1.2253  1.3597
  168MOL    H2823742   2.093   5.699   3.722  0.7293  2.4006  1.5248
  168MOL    H2923743   2.360   5.688   3.679 -0.5796 -1.3792  0.3832
  168MOL    C3023744   2.187   5.511   3.702  0.3360 -0.5307 -0.2022
  168MOL    C3123745   2.115   5.407   3.783 -0.1319  0.1366  0.0435
  168MOL    O3223746   1.977   5.429   3.761  0.1191  0.1442 -0.2719
  168MOL    H3323747   2.150   5.507   3.600 -1.0421 -1.8551  0.3381
  168MOL    H3423748   2.294   5.486   3.701  0.2644 -0.9503  1.1331
  168MOL    H3523749   2.136   5.416   3.889 -1.2231  0.7931  0.2092
  168MOL    H3623750   1.964   5.436   3.668  1.0592 -2.0461 -0.5962
  168MOL    C3723751   2.151   5.258   3.743 -0.7059  0.1503  0.3342
  168MOL    C3823752   2.289   5.201   3.773 -0.0588 -0.0677  0.2021
  168MOL    O3923753   2.304   5.199   3.911 -0.0865 -0.0891 -0.2593
  168MOL    H4023754   2.084   5.191   3.797  0.3368  0.5101  2.1260
  168MOL    H4123755   2.126   5.241   3.639  0.3671 -0.7716  0.2248
  168MOL    H4223756   2.362   5.260   3.718 -1.8550  1.0007 -1.0914
  168MOL    H4323757   2.374   5.260   3.929 -0.4978  0.9565 -2.0981
  168MOL    C4423758   2.301   5.054   3.730 -0.3605  0.6733  0.4566
  168MOL    C4523759   2.441   4.991   3.726 -0.2259  0.0213  0.3057
  168MOL    O4623760   2.434   4.854   3.711 -0.4171  0.2102  0.4121
  168MOL    H4723761   2.229   4.993   3.783 -0.3103  0.4413  0.2615
  168MOL    H4823762   2.266   5.041   3.628  0.4156  0.1027  0.2518
  168MOL    H4923763   2.493   5.008   3.821 -0.1462 -1.1175  0.4801
  168MOL    H5023764   2.384   4.846   3.632  0.3411  1.7668 -0.2279
  168MOL    C5123765   2.523   5.045   3.610  1.2599  0.1391 -0.1865
  168MOL    C5223766   2.673   5.002   3.608 -0.6870 -0.1769  0.0889
  168MOL    O5323767   2.715   5.057   3.483  0.1223  0.0649 -0.4736
  168MOL    H5423768   2.472   4.999   3.525  0.4871 -2.4542  1.5999
  168MOL    H5523769   2.508   5.152   3.595  0.1307  0.0159 -0.0091
  168MOL    H5623770   2.687   4.894   3.612  1.1504  0.0792  0.6516
  168MOL    H5723771   2.789   5.004   3.456  0.1943 -2.3002  3.8119
  168MOL    C5823772   2.754   5.071   3.718 -0.6740  0.5088  0.7664
  168MOL    C5923773   2.894   5.022   3.754 -0.3592  0.1243  0.2384
  168MOL    O6023774   2.984   5.026   3.647 -0.2603 -0.2028  0.1268
  168MOL    H6123775   2.763   5.179   3.704  0.8022  0.1731 -1.1578
  168MOL    H6223776   2.696   5.067   3.810  0.5237  0.8574  1.5444
  168MOL    H6323777   2.887   4.917   3.781  0.8943 -0.4929 -1.6669
  168MOL    H6423778   3.026   4.941   3.646  1.1168  0.4818 -0.1221
  168MOL    C6523779   2.949   5.112   3.869 -0.1321  0.2847 -0.4236
  168MOL    C6623780   3.049   5.041   3.964 -0.1926 -0.0903 -0.1303
  168MOL    O6723781   2.980   4.941   4.040 -0.0152  0.2670 -0.3899
  168MOL    H6823782   2.992   5.204   3.832  0.4079  0.3051  0.2528
  168MOL    H6923783   2.859   5.144   3.923  0.5797  0.1661  0.8466
  168MOL    H7023784   3.084   5.116   4.035 -0.6086 -1.1588  1.2154
  168MOL    H7123785   2.930   4.992   4.101  0.9779 -1.1973  1.7127
  168MOL    C7223786   3.172   4.979   3.886 -0.2070  0.9227  0.5664
  168MOL    C7323787   3.287   4.923   3.968  0.5253 -0.3059 -0.5731
  168MOL    O7423788   3.234   4.811   4.035  0.1747  0.7606 -0.0315
  168MOL    H7523789   3.139   4.902   3.817  1.5081  2.9865 -2.7067
  168MOL    H7623790   3.218   5.051   3.817  0.4140 -0.1402 -0.1337
  168MOL    H7723791   3.327   4.994   4.041  0.0096  0.3094 -0.8867
  168MOL    H7823792   3.147   4.825   4.069  1.3567  1.6781  2.6799
  168MOL    C7923793   3.403   4.861   3.888  0.5342 -0.6704  0.3134
  168MOL    C8023794   3.480   4.959   3.802  0.1876 -0.3118 -0.2268
  168MOL    O8123795   3.530   5.062   3.886 -0.9279 -0.3230 -0.1567
  168MOL    H8223796   3.474   4.821   3.960  1.8909 -0.5460 -0.9162
  168MOL    H8323797   3.372   4.781   3.820 -2.7216  1.5509 -0.9270
  168MOL    H8423798   3.415   5.013   3.734 -0.5557  0.2220  0.8846
  168MOL    H8523799   3.582   5.021   3.954  2.3891 -1.1324 -3.0049
  168MOL    C8623800   3.605   4.890   3.735 -0.7319 -0.0605 -0.7800
  168MOL    C8723801   3.602   4.858   3.586 -0.0832  0.5315 -0.6239
  168MOL    O8823802   3.736   4.803   3.564 -0.0435  0.6529 -0.1593
  168MOL    H8923803   3.690   4.959   3.733 -1.2952  0.6475 -0.2924
  168MOL    H9023804   3.639   4.808   3.799 -0.3442  1.4550  1.0135
  168MOL    H9123805   3.588   4.954   3.536 -1.2780  0.9155  0.4021
  168MOL    H9223806   3.754   4.743   3.635  2.7894 -0.2117 -1.5120
  168MOL    C9323807   3.508   4.754   3.539  0.1277 -1.3101  0.5007
  168MOL    C9423808   3.395   4.787   3.440 -0.0862  0.8486 -0.4337
  168MOL    O9523809   3.314   4.889   3.485  0.5703 -0.2670  0.0281
  168MOL    H9623810   3.560   4.663   3.509  1.3973 -0.9615  1.6059
  168MOL    H9723811   3.466   4.712   3.630  0.1889  0.7024  1.4849
  168MOL    H9823812   3.341   4.694   3.457  1.8388 -0.0672  0.8942
  168MOL    H9923813   3.233   4.856   3.522  0.3098  0.9883  0.6184
  168MOL   C10023814   3.435   4.807   3.293  0.3304  0.0855 -0.2661
  168MOL   C10123815   3.497   4.682   3.227  0.0575  0.3747  1.0335
  168MOL   O10223816   3.398   4.576   3.224  1.4382  0.3277 -0.0326
  168MOL   H10323817   3.347   4.829   3.233 -0.3833 -0.3607  0.6218
  168MOL   H10423818   3.506   4.890   3.300  0.2651  0.0477  0.9671
  168MOL   H10523819   3.587   4.641   3.274 -0.2026 -1.9648 -0.4365
  168MOL   H10623820   3.429   4.497   3.265 -0.4865  0.8570  2.5570
  168MOL   C10723821   3.536   4.713   3.083 -0.6352 -1.1978 -0.3930
  168MOL   C10823822   3.594   4.584   3.011  0.2342 -0.4836 -0.3687
  168MOL   O10923823   3.486   4.499   2.985 -0.2613  0.0103  0.7085
  168MOL   H11023824   3.455   4.759   3.025 -0.5852  0.8345  1.0894
  168MOL   H11123825   3.607   4.795   3.082 -1.7122 -0.2555 -1.1610
  168MOL   H11223826   3.659   4.533   3.082  0.0762  1.2344  1.0544
  168MOL   H11323827   3.424   4.513   3.055  0.6531  1.7007  1.2180
  168MOL   C11423828   3.669   4.617   2.884 -0.5999  0.9515 -0.3346
  168MOL   C11523829   3.732   4.499   2.809  0.2314 -0.2525 -0.3756
  168MOL   O11623830   3.625   4.413   2.766  0.2420 -0.2696  0.7022
  168MOL   H11723831   3.595   4.667   2.821 -0.0172  2.8935  0.4880
  168MOL   H11823832   3.737   4.702   2.886  1.1549 -0.4385  0.5800
  168MOL   H11923833   3.798   4.443   2.874  0.0883 -0.2446 -0.2253
  168MOL   H12023834   3.576   4.407   2.846 -1.0997  1.2746  0.0392
  168MOL   C12123835   3.814   4.555   2.687 -0.4192 -0.1000 -0.8353
  168MOL   C12223836   3.890   4.440   2.621  0.8028 -0.5123 -0.3780
  168MOL   O12323837   3.794   4.370   2.544  0.3775  0.4356  0.5116
  168MOL   H12423838   3.757   4.606   2.610 -1.3430  1.5619  0.8843
  168MOL   H12523839   3.873   4.638   2.727 -0.9127 -0.3613  0.4760
  168MOL   H12623840   3.909   4.370   2.701  0.5389 -3.3736 -2.7354
  168MOL   H12723841   3.717   4.355   2.596 -0.5584 -1.1084 -1.2271
  168MOL   C12823842   4.009   4.494   2.541 -0.0830  0.5090  0.0287
  168MOL   C12923843   4.115   4.388   2.499 -0.6469 -0.1669  0.3954
  168MOL   O13023844   4.203   4.457   2.416 -0.5102 -0.6095  0.6443
  168MOL   H13123845   3.970   4.552   2.457  2.2199  0.8173 -0.8561
  168MOL   H13223846   4.060   4.567   2.603  0.7612 -0.2864  0.2871
  168MOL   H13323847   4.069   4.312   2.437 -1.6069  0.3917  0.4217
  168MOL   H13423848   4.251   4.393   2.365 -0.7988 -0.1915 -0.1613
  168MOL   C13523849   4.183   4.298   2.609  0.2051 -0.3377  0.4118
  168MOL   C13623850   4.269   4.383   2.699  0.1013 -0.1230 -0.3247
  168MOL   O13723851   4.328   4.305   2.801 -0.0123 -0.0556  0.3555
  168MOL   H13823852   4.121   4.238   2.675  0.6851  0.4068  1.5532
  168MOL   H13923853   4.236   4.220   2.555 -0.7459 -0.1076 -0.9005
  168MOL   H14023854   4.219   4.469   2.745  1.0865  1.4227 -2.0423
  168MOL   H14123855   4.372   4.228   2.767  1.5792  0.6438  0.8039
  168MOL   H14223856   4.357   4.418   2.645 -0.7504  0.7474 -1.1752
  169MOL     C123857   4.247   3.993   6.730 -0.2910 -0.4936 -0.2173
  169MOL     C223858   4.376   4.072   6.743 -0.6647 -0.0076  0.4773
  169MOL     O323859   4.368   4.181   6.650  0.0054 -0.7370 -0.8324
  169MOL     H423860   4.234   3.954   6.629 -0.4365  0.8579 -0.7242
  169MOL     H523861   4.159   4.048   6.761  0.8406  1.0683  0.2796
  169MOL     H623862   4.459   4.007   6.715  2.1133  3.4486  0.3464
  169MOL     H723863   4.376   4.154   6.560 -2.4210  0.0621 -1.3032
  169MOL     H823864   4.244   3.904   6.794 -1.8377  1.4817  2.5654
  169MOL     C923865   4.392   4.146   6.883  0.0109  0.6938  0.5289
  169MOL    C1023866   4.522   4.226   6.903  0.9346 -0.6978  0.2107
  169MOL    O1123867   4.497   4.295   7.020  0.0325 -0.3145 -0.2229
  169MOL    H1223868   4.302   4.206   6.901 -0.3213  0.2049  0.5003
  169MOL    H1323869   4.401   4.073   6.963 -0.2288  1.7887  1.5699
  169MOL    H1423870   4.538   4.298   6.824  0.2993 -0.0826  0.6318
  169MOL    H1523871   4.415   4.337   7.001 -0.0709 -0.1342  0.6037
  169MOL    C1623872   4.649   4.148   6.916  0.0928  0.6153  0.5530
  169MOL    C1723873   4.784   4.221   6.919  0.5961 -0.5040 -0.2007
  169MOL    O1823874   4.881   4.123   6.956 -0.1048 -0.2363  0.2554
  169MOL    H1923875   4.648   4.085   7.005  1.1488 -0.2301 -0.0145
  169MOL    H2023876   4.649   4.076   6.834  0.5572  0.2704  0.8497
  169MOL    H2123877   4.775   4.294   6.999 -0.3542  0.5862 -1.2714
  169MOL    H2223878   4.875   4.106   7.049 -0.0473 -1.5888  0.0299
  169MOL    C2323879   4.827   4.294   6.791  0.0856  0.0890 -0.3054
  169MOL    C2423880   4.952   4.389   6.805 -0.1745 -0.3676 -0.7921
  169MOL    O2523881   4.915   4.499   6.891 -0.2868 -0.6096 -0.3239
  169MOL    H2623882   4.848   4.208   6.726 -3.5935 -1.4333  0.3811
  169MOL    H2723883   4.743   4.348   6.746  0.1854  0.5853  0.1068
  169MOL    H2823884   4.966   4.434   6.707 -0.8379  0.5634 -0.4698
  169MOL    H2923885   4.833   4.535   6.862 -0.4800 -1.2043 -0.5206
  169MOL    C3023886   5.088   4.329   6.858 -0.3583 -0.2133  0.6639
  169MOL    C3123887   5.217   4.400   6.811  0.1160  0.0140 -0.1528
  169MOL    O3223888   5.314   4.419   6.913 -0.0358  0.2310 -0.3437
  169MOL    H3323889   5.074   4.329   6.966 -1.3111  1.2859  0.5638
  169MOL    H3423890   5.102   4.224   6.833  0.1046  0.5826 -2.7315
  169MOL    H3523891   5.187   4.501   6.781  1.2086  0.4537  0.2282
  169MOL    H3623892   5.352   4.334   6.933 -1.5535  0.3321  3.3645
  169MOL    C3723893   5.287   4.327   6.695  0.1274 -0.6461 -0.1785
  169MOL    C3823894   5.226   4.341   6.551  0.1653 -0.2936  0.0168
  169MOL    O3923895   5.199   4.477   6.523 -0.4950  0.0652 -0.2124
  169MOL    H4023896   5.392   4.357   6.695 -0.3500  1.1399 -1.5073
  169MOL    H4123897   5.301   4.221   6.711 -0.2327 -0.5460  0.7707
  169MOL    H4223898   5.125   4.301   6.541  0.6596 -1.3845 -0.7509
  169MOL    H4323899   5.272   4.524   6.560  0.3577 -0.3192 -1.3548
  169MOL    C4423900   5.314   4.282   6.441 -0.0250  0.9074  0.1918
  169MOL    C4523901   5.263   4.294   6.292 -0.4805 -0.6278 -0.0194
  169MOL    O4623902   5.258   4.436   6.266  0.5649  0.4740 -0.1538
  169MOL    H4723903   5.415   4.322   6.447  1.1590 -1.5951 -2.0159
  169MOL    H4823904   5.325   4.177   6.468 -0.3240  1.0813  1.0021
  169MOL    H4923905   5.164   4.249   6.302 -1.6291  1.7006 -0.4154
  169MOL    H5023906   5.254   4.467   6.355 -0.4228 -1.4481  0.5036
  169MOL    C5123907   5.351   4.215   6.193 -0.2527  0.2363  0.7984
  169MOL    C5223908   5.283   4.199   6.052 -0.4436  1.1723  0.0790
  169MOL    O5323909   5.388   4.200   5.965  0.1228 -0.3040  0.8057
  169MOL    H5423910   5.442   4.273   6.174  0.1536 -0.6842 -0.0855
  169MOL    H5523911   5.384   4.125   6.243  0.8559  0.1297 -0.1041
  169MOL    H5623912   5.215   4.281   6.029 -2.8987  0.0129  2.8957
  169MOL    H5723913   5.408   4.293   5.959  1.6704 -0.7413 -1.5620
  169MOL    C5823914   5.210   4.065   6.029  0.2410  0.2167 -0.1055
  169MOL    C5923915   5.102   4.072   5.917 -0.2743 -0.2013 -0.8806
  169MOL    O6023916   5.081   3.942   5.863 -0.0419  0.1467 -0.1192
  169MOL    H6123917   5.271   3.976   6.016  1.0198  0.7496 -0.1254
  169MOL    H6223918   5.158   4.036   6.120 -0.3129  0.4172 -0.3557
  169MOL    H6323919   5.138   4.132   5.833  1.5510  1.1487  0.8399
  169MOL    H6423920   5.135   3.941   5.785  1.6406 -1.8647  1.0178
  169MOL    C6523921   4.961   4.120   5.969 -0.3375 -0.0573 -0.3415
  169MOL    C6623922   4.929   4.268   5.937  0.2682  0.3493 -0.3534
  169MOL    O6723923   4.891   4.281   5.807 -0.7508  0.3240 -0.1059
  169MOL    H6823924   4.885   4.047   5.940 -2.2302  1.2981  1.0275
  169MOL    H6923925   4.965   4.109   6.077  1.0824 -0.5459 -0.4415
  169MOL    H7023926   5.021   4.326   5.936  0.0817  0.6494 -0.6150
  169MOL    H7123927   4.807   4.239   5.797 -0.6126 -0.0803  0.4552
  169MOL    C7223928   4.832   4.344   6.034  0.3051 -0.5948  0.3077
  169MOL    C7323929   4.904   4.411   6.157  0.5926  0.0525 -0.0596
  169MOL    O7423930   4.996   4.508   6.108 -0.0037 -0.6645  0.3422
  169MOL    H7523931   4.778   4.424   5.983 -0.3542 -1.4629 -0.3782
  169MOL    H7623932   4.756   4.274   6.070  0.0602  0.0126  0.9832
  169MOL    H7723933   4.976   4.334   6.184  0.2705 -0.4749 -0.6717
  169MOL    H7823934   5.078   4.505   6.156  0.9805 -0.0731 -1.2542
  169MOL    C7923935   4.825   4.448   6.282  0.3048  0.2948  0.1351
  169MOL    C8023936   4.724   4.343   6.326 -0.1116  0.2944  0.3735
  169MOL    O8123937   4.785   4.214   6.366 -0.6722 -0.0175  0.1691
  169MOL    H8223938   4.890   4.473   6.366  0.9397  0.6549 -0.4638
  169MOL    H8323939   4.776   4.545   6.268 -0.5210 -0.0085  0.8615
  169MOL    H8423940   4.662   4.303   6.245  1.1806 -1.4278  0.2124
  169MOL    H8523941   4.732   4.160   6.423 -1.1106  0.6606  0.4057
  169MOL    C8623942   4.639   4.393   6.449  0.3546 -0.3423  0.2929
  169MOL    C8723943   4.527   4.484   6.400 -0.0191  0.3955  0.1488
  169MOL    O8823944   4.415   4.404   6.355  0.4544 -0.0902 -0.1701
  169MOL    H8923945   4.580   4.324   6.510 -0.8276  1.1868  0.9054
  169MOL    H9023946   4.714   4.439   6.513  0.8521 -0.3852 -0.2518
  169MOL    H9123947   4.558   4.542   6.312 -0.5010  0.4208 -0.0061
  169MOL    H9223948   4.343   4.464   6.343  1.3086  0.9014 -0.3888
  169MOL    C9323949   4.471   4.580   6.509 -0.0883 -0.0246 -0.6089
  169MOL    C9423950   4.568   4.691   6.558 -0.4338  0.4476 -0.1786
  169MOL    O9523951   4.602   4.780   6.450  0.0775  0.2944  0.5428
  169MOL    H9623952   4.382   4.630   6.471 -0.2235  1.0291  1.0445
  169MOL    H9723953   4.438   4.520   6.593 -0.7178  0.4400 -0.5253
  169MOL    H9823954   4.663   4.646   6.587  0.6676  1.0863 -2.7050
  169MOL    H9923955   4.680   4.823   6.481  1.2328 -0.8046 -0.7352
  169MOL   C10023956   4.518   4.761   6.690 -0.8248 -0.2403  0.2183
  169MOL   C10123957   4.540   4.685   6.824  0.5909 -0.3875  0.5377
  169MOL   O10223958   4.681   4.667   6.840 -0.1837  0.1073 -0.3136
  169MOL   H10323959   4.560   4.861   6.696  1.9604 -1.3709  0.2219
  169MOL   H10423960   4.411   4.780   6.680 -0.7603 -0.2619 -0.5597
  169MOL   H10523961   4.474   4.600   6.811 -1.2101  1.4126 -2.6494
  169MOL   H10623962   4.723   4.751   6.833  0.1005 -0.1414 -1.7811
  169MOL   C10723963   4.479   4.749   6.951  0.0729 -0.1459 -0.1767
  169MOL   C10823964   4.510   4.677   7.084 -0.2122 -0.2308  0.5239
  169MOL   O10923965   4.625   4.731   7.139  0.0139  0.1527 -0.0395
  169MOL   H11023966   4.517   4.851   6.964  0.0170  0.0255 -1.3201
  169MOL   H11123967   4.371   4.765   6.949  0.4764  2.9945 -0.1731
  169MOL   H11223968   4.524   4.570   7.073 -1.0858 -0.1645 -1.4736
  169MOL   H11323969   4.694   4.715   7.077  0.5335 -0.4902  0.7009
  169MOL   C11423970   4.394   4.690   7.196 -0.8607  0.4934  0.2329
  169MOL   C11523971   4.264   4.613   7.166  0.1621  0.1333  0.4400
  169MOL   O11623972   4.299   4.478   7.202 -0.3509 -0.1039 -0.0942
  169MOL   H11723973   4.431   4.672   7.296  1.3770  1.1673 -0.4435
  169MOL   H11823974   4.364   4.795   7.198 -1.1965  0.4346 -1.0503
  169MOL   H11923975   4.232   4.608   7.062 -0.0870 -1.3801  0.5712
  169MOL   H12023976   4.236   4.427   7.153 -0.3310  0.2860 -0.5320
  169MOL   C12123977   4.147   4.656   7.251  0.8533 -0.3382 -0.3396
  169MOL   C12223978   4.087   4.795   7.238  0.7110  0.2353  0.1952
  169MOL   O12323979   4.072   4.819   7.101 -0.1409  0.3580 -0.1759
  169MOL   H12423980   4.072   4.579   7.237  0.8075 -0.1139 -1.4004
  169MOL   H12523981   4.179   4.656   7.355 -0.1264  0.2583 -0.0306
  169MOL   H12623982   4.164   4.865   7.269  1.8906 -0.6495 -0.6543
  169MOL   H12723983   4.124   4.896   7.083  1.0964 -0.1958  0.9845
  169MOL   C12823984   3.965   4.816   7.320  0.1828 -0.1103  0.0714
  169MOL   C12923985   3.985   4.820   7.475 -1.2187  0.1152  0.2066
  169MOL   O13023986   4.097   4.892   7.517  0.7057  0.6191 -0.5560
  169MOL   H13123987   3.915   4.904   7.281 -1.5216 -0.9208  0.3749
  169MOL   H13223988   3.893   4.736   7.301  0.2678 -0.1487 -0.0868
  169MOL   H13323989   3.984   4.714   7.499 -1.2298  0.1428  0.3239
  169MOL   H13423990   4.117   4.855   0.082  0.1850  1.1417 -0.2029
  169MOL   C13523991   3.874   4.896   0.024  0.3798 -0.5517 -0.2639
  169MOL   C13623992   3.742   4.823   0.030 -0.0111  0.5292  0.3997
  169MOL   O13723993   3.656   4.921   0.089  0.3219  0.1985  0.5376
  169MOL   H13823994   3.891   4.932   0.125 -2.2370 -0.5061  0.1914
  169MOL   H13923995   3.864   4.985   7.481  0.7730  0.1633  0.6991
  169MOL   H14023996   3.743   4.727   0.083  1.0529  0.9153  1.0849
  169MOL   H14123997   3.669   4.912   0.182 -0.2212  1.3845  0.7319
  169MOL   H14223998   3.707   4.806   7.447  0.6522  0.3993  0.1932
  170MOL     C123999   6.485   3.637   7.405  0.2147 -0.3631 -0.8323
  170MOL     C224000   6.507   3.637   7.257  0.2618  0.2332 -0.0885
  170MOL     O324001   6.644   3.607   7.235  0.0059  0.5697  0.5227
  170MOL     H424002   6.526   3.545   7.447  1.2570  0.9798  1.1421
  170MOL     H524003   6.380   3.651   7.432  0.7752  1.3299  0.6024
  170MOL     H624004   6.482   3.736   7.217 -0.4368 -0.2739 -0.9049
  170MOL     H724005   6.660   3.521   7.272  1.7227  0.4110 -0.5377
  170MOL     H824006   6.550   3.712   7.449  0.8570 -0.7586 -1.1056
  170MOL     C924007   6.425   3.522   7.190 -0.0329 -0.6398 -0.0001
  170MOL    C1024008   6.444   3.494   7.039 -0.0573  0.2903 -0.1152
  170MOL    O1124009   6.404   3.364   7.012 -0.1357 -0.3275 -0.1013
  170MOL    H1224010   6.455   3.428   7.236 -0.5612 -2.0185 -2.3617
  170MOL    H1324011   6.320   3.543   7.211 -0.4051 -2.1539 -0.2653
  170MOL    H1424012   6.544   3.505   6.995  0.6632  0.8280  1.6145
  170MOL    H1524013   6.398   3.361   6.918 -1.9153 -0.7068 -0.0071
  170MOL    C1624014   6.350   3.567   6.945  0.1283 -0.1553  0.1300
  170MOL    C1724015   6.373   3.720   6.920  0.4233  0.4690  0.5621
  170MOL    O1824016   6.324   3.781   7.038  0.6917  0.0940 -0.1613
  170MOL    H1924017   6.365   3.518   6.848 -1.9370 -0.7265  0.0745
  170MOL    H2024018   6.245   3.546   6.964 -0.1938 -0.0548 -1.4210
  170MOL    H2124019   6.300   3.757   6.848 -0.7587 -3.0005 -0.1457
  170MOL    H2224020   6.283   3.718   7.095  1.4486  1.0142  1.4216
  170MOL    C2324021   6.512   3.767   6.872 -0.4029 -0.4579  0.0247
  170MOL    C2424022   6.513   3.909   6.826  0.6694  0.0909  0.8644
  170MOL    O2524023   6.643   3.947   6.798 -0.1632  0.0944 -0.3413
  170MOL    H2624024   6.566   3.753   6.966  1.8699 -1.2373 -1.3592
  170MOL    H2724025   6.556   3.703   6.796  2.4758  0.0976  1.1788
  170MOL    H2824026   6.485   3.970   6.912 -4.7584  0.6974 -1.1287
  170MOL    H2924027   6.693   3.982   6.870  0.9200 -0.1730 -0.9566
  170MOL    C3024028   6.436   3.932   6.692 -0.1547  0.0442 -0.1850
  170MOL    C3124029   6.433   4.086   6.646  0.0874 -0.2436  0.2493
  170MOL    O3224030   6.373   4.085   6.518  0.2007  0.5179  0.5717
  170MOL    H3324031   6.469   3.877   6.603 -0.1151  0.4935 -0.4536
  170MOL    H3424032   6.336   3.898   6.715 -0.7471  0.8457 -1.4656
  170MOL    H3524033   6.532   4.131   6.640  0.5181 -1.1635  0.3081
  170MOL    H3624034   6.413   4.157   6.472 -2.3222  1.2396 -0.5967
  170MOL    C3724035   6.352   4.170   6.749 -0.3220  0.1202  0.4965
  170MOL    C3824036   6.375   4.323   6.728 -0.1732  0.7780 -0.4964
  170MOL    O3924037   6.268   4.406   6.771 -0.2953  0.1493  0.1666
  170MOL    H4024038   6.245   4.152   6.733  0.3000 -4.2927  0.5631
  170MOL    H4124039   6.354   4.144   6.854 -0.8793 -0.2019  0.4339
  170MOL    H4224040   6.383   4.354   6.623  1.0209 -0.6923 -0.8616
  170MOL    H4324041   6.279   4.490   6.729  1.9603 -0.3141 -0.2509
  170MOL    C4424042   6.495   4.399   6.804 -0.3901  0.7274 -0.3191
  170MOL    C4524043   6.638   4.339   6.809 -0.1057  0.7226 -0.2315
  170MOL    O4624044   6.683   4.359   6.675 -0.1554  0.0587 -0.6325
  170MOL    H4724045   6.495   4.505   6.779 -0.3164  0.5759 -0.9728
  170MOL    H4824046   6.472   4.400   6.911  0.4682  3.6532 -0.1198
  170MOL    H4924047   6.633   4.230   6.820  1.4447  0.6809  0.2225
  170MOL    H5024048   6.673   4.450   6.650  1.1090  1.1603  2.5863
  170MOL    C5124049   6.740   4.401   6.909  0.6308  0.2095 -0.0291
  170MOL    C5224050   6.775   4.557   6.892  0.4368  0.0799 -0.7520
  170MOL    O5324051   6.670   4.633   6.958 -0.0246  0.4761 -0.0994
  170MOL    H5424052   6.715   4.388   7.014  0.1484  2.5044  0.1770
  170MOL    H5524053   6.829   4.340   6.903 -0.2359 -1.0204 -0.4796
  170MOL    H5624054   6.775   4.569   6.783 -2.4499 -0.5372 -0.8642
  170MOL    H5724055   6.590   4.638   6.909 -1.2128 -0.0609  1.7292
  170MOL    C5824056   6.914   4.592   6.952 -0.1478  0.4604 -0.3836
  170MOL    C5924057   6.959   4.742   6.926 -0.7088 -0.2132 -0.3280
  170MOL    O6024058   7.065   4.777   7.003  0.0511 -0.2671 -0.3910
  170MOL    H6124059   6.919   4.568   7.058 -0.8237 -0.0455 -0.4649
  170MOL    H6224060   6.989   4.522   6.914  1.2142  1.9387 -0.4720
  170MOL    H6324061   6.873   4.802   6.952 -0.2334  0.7579 -0.9841
  170MOL    H6424062   7.045   4.755   7.093 -0.2225  2.7151  0.3188
  170MOL    C6524063   6.997   4.767   6.777 -0.0881  0.3058 -0.0592
  170MOL    C6624064   6.983   4.921   6.738  0.2003  0.2757 -0.6210
  170MOL    O6724065   7.050   4.948   6.620  0.0986 -0.3897 -0.1778
  170MOL    H6824066   7.105   4.753   6.768 -0.5436 -2.6752 -1.4491
  170MOL    H6924067   6.956   4.699   6.703  1.5108  0.8780 -1.5209
  170MOL    H7024068   7.018   4.985   6.819 -1.4923 -2.5613  2.5052
  170MOL    H7124069   7.128   4.895   6.626  0.8664  0.9340  2.2568
  170MOL    C7224070   6.841   4.955   6.701 -0.0108  0.3549 -0.3553
  170MOL    C7324071   6.724   4.942   6.803  0.2307  0.1630 -0.4736
  170MOL    O7424072   6.755   5.012   6.916  0.1824 -0.8866  0.0306
  170MOL    H7524073   6.839   5.059   6.667 -2.6801  0.8904  1.3075
  170MOL    H7624074   6.816   4.897   6.613  0.2550  2.4095 -1.8251
  170MOL    H7724075   6.716   4.837   6.832 -1.3269  0.3685 -0.1325
  170MOL    H7824076   6.715   4.962   6.985  0.6583 -0.6718  0.4671
  170MOL    C7924077   6.585   4.982   6.764 -0.8711 -0.5536  0.2942
  170MOL    C8024078   6.506   4.882   6.678  0.8548  0.2899 -0.5112
  170MOL    O8124079   6.443   4.781   6.767 -0.6616  0.4084 -0.0129
  170MOL    H8224080   6.524   4.983   6.855  1.1825  1.3516  1.7037
  170MOL    H8324081   6.579   5.087   6.736  2.8853 -0.3895 -0.1029
  170MOL    H8424082   6.577   4.845   6.604 -0.6329  0.0372 -1.8380
  170MOL    H8524083   6.363   4.753   6.724 -0.7524 -1.1444  1.1396
  170MOL    C8624084   6.390   4.959   6.603  0.0624 -0.2648 -0.6833
  170MOL    C8724085   6.434   5.058   6.495  0.3958  0.5518 -0.4145
  170MOL    O8824086   6.475   4.984   6.383  0.3728  0.1829 -0.1596
  170MOL    H8924087   6.309   4.900   6.559 -1.5481  0.9003  0.6221
  170MOL    H9024088   6.340   5.012   6.684  0.9588  0.9611 -0.9311
  170MOL    H9124089   6.531   5.103   6.517  1.1533 -2.0854  1.9582
  170MOL    H9224090   6.530   5.043   6.335 -0.4301  1.9103  0.9983
  170MOL    C9324091   6.336   5.177   6.461  0.0358  0.1421 -0.1563
  170MOL    C9424092   6.353   5.291   6.556 -0.6145  0.4180 -0.5195
  170MOL    O9524093   6.307   5.268   6.697  0.3551 -0.2762  0.1150
  170MOL    H9624094   6.350   5.214   6.360  2.0637 -2.3909 -0.8380
  170MOL    H9724095   6.234   5.140   6.471  0.0077  0.2366 -0.0844
  170MOL    H9824096   6.289   5.373   6.526  0.3830  0.6902 -2.0086
  170MOL    H9924097   6.214   5.254   6.690  0.7725 -2.5928 -1.8322
  170MOL   C10024098   6.494   5.358   6.577  0.1408 -0.2013  0.3741
  170MOL   C10124099   6.561   5.394   6.439 -0.1081  0.1628  0.0072
  170MOL   O10224100   6.481   5.498   6.383  0.0505 -0.0670 -0.2116
  170MOL   H10324101   6.485   5.448   6.639  0.8125  1.9300 -2.4876
  170MOL   H10424102   6.546   5.281   6.634 -1.6762 -0.8361  1.2061
  170MOL   H10524103   6.557   5.314   6.366 -3.4110 -0.2076  0.5514
  170MOL   H10624104   6.442   5.468   6.302  2.0390  0.1639 -1.2863
  170MOL   C10724105   6.707   5.441   6.439  0.3883 -0.2994  0.4968
  170MOL   C10824106   6.820   5.345   6.485 -0.1712 -0.2545 -0.3588
  170MOL   O10924107   6.815   5.241   6.387 -0.0444  0.0849  0.2698
  170MOL   H11024108   6.737   5.484   6.344 -1.4146 -0.0228  0.0299
  170MOL   H11124109   6.715   5.519   6.514 -1.5265  0.7614 -0.3777
  170MOL   H11224110   6.801   5.302   6.583  1.0860 -0.7038 -0.3003
  170MOL   H11324111   6.899   5.199   6.370 -0.1683  0.3178 -0.9820
  170MOL   C11424112   6.962   5.406   6.484  0.2488 -0.2638 -0.0778
  170MOL   C11524113   7.059   5.312   6.549  0.2133  0.2278  0.0748
  170MOL   O11624114   7.078   5.200   6.463  0.0462  0.5092  0.1896
  170MOL   H11724115   6.992   5.434   6.383 -1.7288 -1.6103 -1.0713
  170MOL   H11824116   6.963   5.493   6.550 -0.4889  0.7500 -1.3857
  170MOL   H11924117   7.015   5.266   6.637 -0.2294 -1.4955 -1.0327
  170MOL   H12024118   7.097   5.121   6.512  0.1387  0.4992  0.1379
  170MOL   C12124119   7.192   5.370   6.590 -0.1793  0.3713 -0.7231
  170MOL   C12224120   7.196   5.415   6.742 -0.9080 -0.1185  0.2900
  170MOL   O12324121   7.130   5.542   6.760  0.0296 -0.3333  0.0858
  170MOL   H12424122   7.282   5.309   6.589  0.8348  1.6622  2.9574
  170MOL   H12524123   7.215   5.458   6.531  2.8363 -0.2714 -0.5744
  170MOL   H12624124   7.294   5.451   6.773 -0.5740  0.4541 -1.3648
  170MOL   H12724125   7.178   5.580   6.832  0.0813 -1.8173  0.8604
  170MOL   C12824126   7.164   5.295   6.840  0.1576 -0.0364 -0.5589
  170MOL   C12924127   7.293   5.232   6.907  0.2487  0.8037  0.1579
  170MOL   O13024128   7.347   5.330   7.002  0.0243 -1.0753 -0.2089
  170MOL   H13124129   7.122   5.343   6.928  4.0165 -0.0379  1.4385
  170MOL   H13224130   7.100   5.211   6.814  0.1450 -0.1106 -0.2907
  170MOL   H13324131   7.372   5.215   6.834  0.9808 -1.0487  1.3602
  170MOL   H13424132   7.421   5.285   7.041  2.3413  2.2445 -0.5499
  170MOL   C13524133   7.274   5.101   6.989  0.6064  0.2820 -0.5888
  170MOL   C13624134   7.342   4.975   6.912  0.3569 -0.0551  0.3796
  170MOL   O13724135   7.322   4.850   6.974 -0.1383  0.1902 -0.5537
  170MOL   H13824136   7.320   5.112   7.088 -0.2617 -1.9047  0.0853
  170MOL   H13924137   7.168   5.079   7.002  0.6781  1.3578  2.2162
  170MOL   H14024138   7.451   4.968   6.917  0.3553  0.6816  1.6104
  170MOL   H14124139   7.229   4.838   6.983  0.0350 -0.9590 -0.2762
  170MOL   H14224140   7.304   4.974   6.810 -0.8533  2.0340  0.7859
  171MOL     C124141   4.098   1.588   2.524 -0.3707 -0.2200 -0.0431
  171MOL     C224142   3.979   1.690   2.531  0.1906 -0.2047  0.6404
  171MOL     O324143   4.039   1.816   2.491 -0.6092 -0.0711  0.0401
  171MOL     H424144   4.142   1.573   2.426 -1.4716  1.0302 -0.7443
  171MOL     H524145   4.080   1.493   2.576 -0.0393 -0.0867  0.3188
  171MOL     H624146   3.943   1.690   2.634  0.7173  1.7857  0.8375
  171MOL     H724147   4.084   1.853   2.566 -3.2230  0.4096  1.4566
  171MOL     H824148   4.186   1.624   2.578 -0.1889  0.5643 -0.8566
  171MOL     C924149   3.861   1.672   2.437 -0.0251 -0.2280 -0.1486
  171MOL    C1024150   3.765   1.560   2.468 -0.5829  0.3058  0.3149
  171MOL    O1124151   3.639   1.604   2.416  0.1350 -0.7853  0.0903
  171MOL    H1224152   3.814   1.771   2.440 -1.5557 -0.9179 -0.9002
  171MOL    H1324153   3.904   1.672   2.337  0.2391  0.0872 -0.0350
  171MOL    H1424154   3.760   1.543   2.575  0.5112 -0.2162  0.2963
  171MOL    H1524155   3.639   1.596   2.322 -0.5214 -0.1647  0.0280
  171MOL    C1624156   3.822   1.440   2.394  0.7311  0.5109  1.2829
  171MOL    C1724157   3.729   1.316   2.387 -0.2930  0.3817  0.2543
  171MOL    O1824158   3.767   1.220   2.290 -0.2153  0.7568  0.2005
  171MOL    H1924159   3.848   1.467   2.292 -1.0067 -0.1579  0.6616
  171MOL    H2024160   3.920   1.405   2.427  0.3403 -0.4744  1.4075
  171MOL    H2124161   3.627   1.347   2.363 -0.6591  0.2151  1.5539
  171MOL    H2224162   3.861   1.220   2.285 -0.3649 -0.0642 -4.7275
  171MOL    C2324163   3.717   1.241   2.522 -0.2876  0.0220 -0.8907
  171MOL    C2424164   3.572   1.192   2.540 -0.3608 -0.3271  0.0261
  171MOL    O2524165   3.569   1.097   2.647  0.2266 -0.3341 -0.1290
  171MOL    H2624166   3.783   1.155   2.514  0.3677  0.3510  0.9240
  171MOL    H2724167   3.758   1.299   2.605 -1.5008 -0.5719  0.1443
  171MOL    H2824168   3.543   1.142   2.448 -2.9768 -3.4528  2.4610
  171MOL    H2924169   3.593   1.017   2.603  0.9190  0.7290 -1.7174
  171MOL    C3024170   3.468   1.307   2.564  0.1030  0.5241 -1.1284
  171MOL    C3124171   3.327   1.277   2.537 -0.4425 -0.4651  0.6283
  171MOL    O3224172   3.325   1.263   2.396  0.3578  0.0634 -0.6867
  171MOL    H3324173   3.488   1.337   2.668 -2.2308  0.3827 -0.6213
  171MOL    H3424174   3.491   1.391   2.498  0.5871  0.5660 -0.9086
  171MOL    H3524175   3.268   1.366   2.559 -0.7781 -0.0867 -1.6308
  171MOL    H3624176   3.305   1.351   2.369  3.3560  0.9399 -0.3127
  171MOL    C3724177   3.272   1.153   2.618 -0.4483 -0.1709 -0.5067
  171MOL    C3824178   3.253   1.172   2.774  0.5617  0.0805  0.0250
  171MOL    O3924179   3.165   1.283   2.791  0.3396 -0.2159 -0.0811
  171MOL    H4024180   3.177   1.130   2.569  0.2519 -1.1147 -1.4369
  171MOL    H4124181   3.316   1.058   2.587  1.0417  0.8729 -1.6506
  171MOL    H4224182   3.345   1.185   2.831  0.8770  1.6809 -0.8233
  171MOL    H4324183   3.216   1.348   2.836  1.4073  0.0188 -1.5653
  171MOL    C4424184   3.192   1.046   2.837 -0.1632 -0.0609  0.3299
  171MOL    C4524185   3.197   1.022   2.994 -0.2403 -0.2445 -0.3086
  171MOL    O4624186   3.316   0.943   3.018 -0.2319  0.1233  0.5508
  171MOL    H4724187   3.090   1.052   2.797  0.2743 -1.4058 -1.0571
  171MOL    H4824188   3.237   0.958   2.790 -0.2626 -0.2855  0.6554
  171MOL    H4924189   3.118   0.952   3.020  2.3994 -2.1379  3.0115
  171MOL    H5024190   3.392   0.996   2.999 -0.9661  2.0902  2.7658
  171MOL    C5124191   3.177   1.139   3.093 -0.4621 -0.1709 -0.2661
  171MOL    C5224192   3.036   1.201   3.102  0.1328  0.0014 -0.4019
  171MOL    O5324193   2.946   1.095   3.135  0.5374 -0.5148 -0.7111
  171MOL    H5424194   3.202   1.107   3.194 -0.4743 -2.4988 -0.9834
  171MOL    H5524195   3.247   1.219   3.068 -1.1784  0.3973 -0.4852
  171MOL    H5624196   3.000   1.237   3.005 -1.2000 -1.1108 -0.3461
  171MOL    H5724197   2.895   1.089   3.056 -1.6088 -2.7087  0.7511
  171MOL    C5824198   3.020   1.302   3.217  0.1030  0.1052 -0.7703
  171MOL    C5924199   3.078   1.452   3.195  0.2908  0.0013 -0.5541
  171MOL    O6024200   3.221   1.452   3.186 -0.6791  0.1965  0.2617
  171MOL    H6124201   2.914   1.314   3.238  0.6942  0.6887  2.0418
  171MOL    H6224202   3.053   1.261   3.312 -0.3270 -0.6108 -0.9298
  171MOL    H6324203   3.071   1.510   3.287  0.3423 -2.2106  0.8935
  171MOL    H6424204   3.245   1.458   3.277 -2.2331  2.3393  0.5793
  171MOL    C6524205   3.029   1.523   3.071 -0.1113  0.1032 -0.0115
  171MOL    C6624206   2.881   1.569   3.075  0.0105 -0.2799  0.4069
  171MOL    O6724207   2.865   1.668   3.173  0.4673  0.2230  0.2474
  171MOL    H6824208   3.092   1.610   3.052 -0.5987  0.1193 -1.6661
  171MOL    H6924209   3.050   1.459   2.985 -3.5210 -3.3845  1.5939
  171MOL    H7024210   2.822   1.483   3.106 -1.0791  0.2884 -0.0614
  171MOL    H7124211   2.944   1.711   3.202  0.2255 -0.8186  2.5550
  171MOL    C7224212   2.843   1.615   2.935  0.2665 -0.2064 -0.2976
  171MOL    C7324213   2.799   1.493   2.845  0.9257  0.8058  0.0070
  171MOL    O7424214   2.663   1.468   2.878  0.7750 -0.1631 -1.0389
  171MOL    H7524215   2.758   1.684   2.940 -1.6359 -2.3438 -2.1976
  171MOL    H7624216   2.936   1.651   2.891  1.6215 -2.7131  0.3961
  171MOL    H7724217   2.865   1.411   2.873 -0.0700  0.3724  1.1192
  171MOL    H7824218   2.622   1.553   2.875 -0.5826 -0.7676 -0.1575
  171MOL    C7924219   2.812   1.516   2.701  0.6601  0.1470 -0.3101
  171MOL    C8024220   2.782   1.393   2.617  0.5757  0.5077 -0.0258
  171MOL    O8124221   2.780   1.443   2.484 -0.3075 -0.1500  0.6147
  171MOL    H8224222   2.745   1.600   2.680 -0.3995 -1.0031 -1.6005
  171MOL    H8324223   2.913   1.547   2.676  1.7574 -2.5099  0.7021
  171MOL    H8424224   2.680   1.361   2.640  0.6384 -0.1680 -0.6875
  171MOL    H8524225   2.864   1.465   2.446 -1.4454  1.9306 -0.7931
  171MOL    C8624226   2.896   1.296   2.613  0.1897  0.2652 -0.2574
  171MOL    C8724227   2.884   1.161   2.531 -0.3611  0.1896 -0.1071
  171MOL    O8824228   2.775   1.085   2.587 -0.5763  0.1156  0.1029
  171MOL    H8924229   2.985   1.345   2.575 -1.1707  2.4968 -0.6716
  171MOL    H9024230   2.921   1.256   2.711 -2.3067  0.1469  0.3762
  171MOL    H9124231   2.978   1.104   2.537  0.0384  0.7758 -0.7102
  171MOL    H9224232   2.806   0.996   2.594  1.2752  0.6800 -0.6849
  171MOL    C9324233   2.868   1.178   2.372 -0.1360  0.2550  0.3676
  171MOL    C9424234   3.001   1.207   2.295 -0.0741  0.3000 -0.2866
  171MOL    O9524235   3.066   1.081   2.260  0.2553 -0.2532  0.2384
  171MOL    H9624236   2.834   1.081   2.338 -0.8153  1.5740 -2.9327
  171MOL    H9724237   2.784   1.246   2.355 -1.5297 -1.8722 -1.4332
  171MOL    H9824238   3.056   1.271   2.364 -0.3970  1.3677 -0.9963
  171MOL    H9924239   3.142   1.103   2.209 -0.1603 -0.5959 -0.5339
  171MOL   C10024240   2.990   1.300   2.171  0.7031  0.6231  0.2064
  171MOL   C10124241   2.913   1.436   2.195  0.2884  0.2450 -0.3874
  171MOL   O10224242   2.991   1.505   2.300  0.2303  0.4286 -0.3146
  171MOL   H10324243   3.091   1.320   2.137  1.1990  0.7297  1.7288
  171MOL   H10424244   2.935   1.242   2.096  2.3972  2.9996 -2.9833
  171MOL   H10524245   2.808   1.417   2.216  0.2760  0.3103 -0.3898
  171MOL   H10624246   3.082   1.492   2.279  0.8007  1.1251  1.6485
  171MOL   C10724247   2.909   1.516   2.065  0.3308 -0.9467  0.1568
  171MOL   C10824248   2.832   1.653   2.065  0.0427 -0.1066  0.7943
  171MOL   O10924249   2.911   1.757   2.123  0.3901  0.1733 -0.2110
  171MOL   H11024250   3.009   1.540   2.028 -0.8086 -0.2353 -2.6333
  171MOL   H11124251   2.858   1.447   1.997 -1.4776  0.9790 -0.4895
  171MOL   H11224252   2.739   1.641   2.122 -0.9922  2.3009 -0.3329
  171MOL   H11324253   2.904   1.754   2.217  0.9349  1.5827 -0.1013
  171MOL   C11424254   2.785   1.694   1.918  0.7041  0.1224 -0.3874
  171MOL   C11524255   2.871   1.653   1.794  0.3045  0.0964 -0.0568
  171MOL   O11624256   2.798   1.663   1.666  0.3380 -0.2866  0.3158
  171MOL   H11724257   2.689   1.642   1.921  0.2666  1.0479  2.5836
  171MOL   H11824258   2.766   1.801   1.917  0.0516  0.0110 -0.6815
  171MOL   H11924259   2.903   1.549   1.801 -1.9592 -0.5717  1.1020
  171MOL   H12024260   2.743   1.587   1.657 -1.0853  0.6442  0.9478
  171MOL   C12124261   2.997   1.736   1.786 -0.1071 -0.5598 -0.3092
  171MOL   C12224262   3.099   1.699   1.675  0.0733 -0.2905 -0.1442
  171MOL   O12324263   3.202   1.794   1.667  0.0063 -0.3660  0.5088
  171MOL   H12424264   2.971   1.841   1.777 -2.0888 -0.8211  2.0768
  171MOL   H12524265   3.054   1.731   1.879 -0.1054 -2.3704 -0.3936
  171MOL   H12624266   3.055   1.698   1.575 -0.3974  2.2301  0.0063
  171MOL   H12724267   3.188   1.848   1.591  2.3723 -0.1327  0.1830
  171MOL   C12824268   3.180   1.569   1.681  0.0769 -0.2041  0.2201
  171MOL   C12924269   3.110   1.427   1.661 -0.0396 -0.7275  0.5150
  171MOL   O13024270   3.066   1.420   1.523  0.6821  0.2160 -0.0874
  171MOL   H13124271   3.253   1.572   1.599 -0.5862  1.7577 -0.3098
  171MOL   H13224272   3.244   1.564   1.769 -1.9599 -0.2221  1.7139
  171MOL   H13324273   3.023   1.413   1.726 -1.8112  0.7348 -1.4430
  171MOL   H13424274   3.134   1.418   1.458  2.5090  0.3777  1.7803
  171MOL   C13524275   3.202   1.306   1.690 -0.9488  0.2629  0.6682
  171MOL   C13624276   3.125   1.172   1.658  0.7302  0.2854 -0.0173
  171MOL   O13724277   3.214   1.070   1.637 -0.5603  0.1794 -0.4700
  171MOL   H13824278   3.284   1.315   1.619 -1.7263  0.5692 -0.2031
  171MOL   H13924279   3.243   1.314   1.791  0.0092  2.3764  0.1431
  171MOL   H14024280   3.058   1.171   1.571 -0.6648  1.5756  1.0178
  171MOL   H14124281   3.174   0.990   1.665 -2.0810  0.8336 -0.7439
  171MOL   H14224282   3.061   1.135   1.738 -0.9184 -0.5209 -1.6596
  172MOL     C124283   3.370   2.084   5.087  0.4895 -0.2006  0.3495
  172MOL     C224284   3.456   1.999   5.184 -0.4054 -0.0986  0.5695
  172MOL     O324285   3.589   1.991   5.140 -0.5064  0.2782 -0.0040
  172MOL     H424286   3.270   2.110   5.122 -0.5982 -2.4414 -1.0280
  172MOL     H524287   3.361   2.020   4.999 -0.7459 -0.5777  0.7548
  172MOL     H624288   3.409   1.901   5.192 -0.8222  0.2946  3.4335
  172MOL     H724289   3.594   1.935   5.065 -4.3705 -0.6607  0.3379
  172MOL     H824290   3.418   2.180   5.064 -1.0509 -0.1334 -2.8790
  172MOL     C924291   3.454   2.063   5.323  0.3462 -0.5999  0.0350
  172MOL    C1024292   3.325   2.096   5.386 -0.3332  0.1028 -0.2801
  172MOL    O1124293   3.255   1.976   5.400  0.5225  0.2192 -0.4863
  172MOL    H1224294   3.507   1.993   5.386 -0.4082 -1.9337 -0.8004
  172MOL    H1324295   3.507   2.159   5.317  0.5992 -0.7555 -0.2268
  172MOL    H1424296   3.263   2.160   5.324 -0.3774  0.9602  0.6305
  172MOL    H1524297   3.170   1.999   5.435 -0.0329 -2.5550  0.0666
  172MOL    C1624298   3.355   2.168   5.522  0.5149  0.3749  1.4768
  172MOL    C1724299   3.229   2.226   5.592  0.2643  0.6830 -0.3129
  172MOL    O1824300   3.278   2.303   5.699  0.1896 -0.1690 -0.3726
  172MOL    H1924301   3.411   2.098   5.584  0.8310 -1.2056 -0.5106
  172MOL    H2024302   3.422   2.253   5.508  0.5273  0.3365  1.2968
  172MOL    H2124303   3.169   2.142   5.628  1.2333 -0.5018 -1.4454
  172MOL    H2224304   3.213   2.302   5.768  1.1191  0.3230  0.5151
  172MOL    C2324305   3.141   2.317   5.501  0.0460 -0.1517  0.0651
  172MOL    C2424306   3.005   2.256   5.440  0.1999 -0.3360 -0.3447
  172MOL    O2524307   3.005   2.110   5.440  0.6798 -0.3833 -0.1705
  172MOL    H2624308   3.110   2.409   5.550  0.1076 -0.0679 -0.0558
  172MOL    H2724309   3.212   2.358   5.430  0.6980  1.6369  1.7188
  172MOL    H2824310   3.012   2.283   5.334  1.4997  0.7521  0.0146
  172MOL    H2924311   2.935   2.082   5.384  0.1368 -0.5095  0.5721
  172MOL    C3024312   2.877   2.320   5.499 -0.3692 -0.4080  0.6988
  172MOL    C3124313   2.854   2.299   5.654  0.2548  0.4281  0.1571
  172MOL    O3224314   2.922   2.397   5.736  0.0482 -0.3391  0.2512
  172MOL    H3324315   2.865   2.426   5.477  0.7858  0.9748  6.0773
  172MOL    H3424316   2.789   2.295   5.440  0.6236  0.4519 -1.1946
  172MOL    H3524317   2.907   2.208   5.681  2.0058  0.9990 -1.1927
  172MOL    H3624318   2.891   2.481   5.703 -0.1874 -1.1608 -1.6901
  172MOL    C3724319   2.707   2.296   5.688  0.5103 -0.6003 -0.2386
  172MOL    C3824320   2.625   2.181   5.628 -0.7196  0.5536 -0.0544
  172MOL    O3924321   2.626   2.074   5.717  0.1508  0.2999 -0.4527
  172MOL    H4024322   2.698   2.304   5.797 -1.6997 -0.0979 -0.4258
  172MOL    H4124323   2.673   2.390   5.644  1.8314  0.1573  0.3325
  172MOL    H4224324   2.664   2.141   5.534 -0.9255 -1.0461  0.5135
  172MOL    H4324325   2.709   2.028   5.710 -0.0757 -0.3600  1.0751
  172MOL    C4424326   2.486   2.233   5.599  0.0435  0.4285  0.2456
  172MOL    C4524327   2.392   2.140   5.529  1.3574 -0.4589  0.2998
  172MOL    O4624328   2.450   2.102   5.408  0.4216  0.5380  0.6481
  172MOL    H4724329   2.439   2.267   5.691 -1.3623  0.3388 -0.4295
  172MOL    H4824330   2.490   2.325   5.541  0.0178 -2.7195 -5.1074
  172MOL    H4924331   2.304   2.201   5.509  2.4802  1.8026  2.0790
  172MOL    H5024332   2.469   2.173   5.349  1.4410 -0.6455 -0.4916
  172MOL    C5124333   2.353   2.009   5.591  0.6678 -0.7120 -0.0481
  172MOL    C5224334   2.231   1.942   5.525  0.3552  0.0735 -0.9364
  172MOL    O5324335   2.276   1.850   5.421 -0.2676 -0.2990 -0.2216
  172MOL    H5424336   2.439   1.942   5.600  0.5346 -0.9270 -0.3329
  172MOL    H5524337   2.328   2.030   5.695  1.1060 -1.2690  0.1778
  172MOL    H5624338   2.160   2.011   5.480  0.4446  2.1930  2.0495
  172MOL    H5724339   2.344   1.893   5.370 -0.0516 -0.1778  0.1660
  172MOL    C5824340   2.141   1.867   5.625  0.1555  0.5128 -0.4120
  172MOL    C5924341   2.218   1.769   5.721  0.2968 -0.2574 -0.4124
  172MOL    O6024342   2.121   1.723   5.815  0.3370 -0.3383  0.0533
  172MOL    H6124343   2.088   1.941   5.685 -1.2372  0.0218 -1.0364
  172MOL    H6224344   2.065   1.807   5.577 -0.1021  0.2162  0.3527
  172MOL    H6324345   2.298   1.825   5.768  0.2970 -1.7136  1.3912
  172MOL    H6424346   2.065   1.664   5.767  0.5298  0.4735 -1.1690
  172MOL    C6524347   2.268   1.644   5.640 -0.2347 -0.8445  0.7769
  172MOL    C6624348   2.314   1.523   5.727 -0.1997  0.3570 -0.6834
  172MOL    O6724349   2.348   1.416   5.639  0.1303  0.3216  0.4785
  172MOL    H6824350   2.200   1.619   5.558  0.7440 -0.5844 -0.1307
  172MOL    H6924351   2.355   1.676   5.582 -1.3466  2.4526  0.7885
  172MOL    H7024352   2.233   1.490   5.792 -1.0779 -2.6740 -3.1866
  172MOL    H7124353   2.300   1.421   5.558  1.3992  0.7503 -0.2522
  172MOL    C7224354   2.434   1.554   5.820 -0.1555 -0.3499  0.0593
  172MOL    C7324355   2.486   1.434   5.903  0.0769 -0.6584 -0.7272
  172MOL    O7424356   2.573   1.351   5.825  0.2078  0.1353  0.0714
  172MOL    H7524357   2.514   1.583   5.752  0.8159 -2.8018  0.1073
  172MOL    H7624358   2.419   1.643   5.881  0.1803  0.7366 -1.3979
  172MOL    H7724359   2.395   1.385   5.938 -0.6079  1.8774  1.2214
  172MOL    H7824360   2.531   1.321   5.745  1.4369 -0.2453 -0.4370
  172MOL    C7924361   2.576   1.474   6.026  0.4125  0.1190 -0.0536
  172MOL    C8024362   2.492   1.565   6.132 -0.1424  0.3846 -0.0720
  172MOL    O8124363   2.368   1.510   6.155 -0.2281 -0.0847 -0.2607
  172MOL    H8224364   2.606   1.381   6.074  3.3298  0.8188 -0.4321
  172MOL    H8324365   2.657   1.541   5.999 -0.7722  1.1228 -1.2470
  172MOL    H8424366   2.467   1.665   6.095  0.0641 -0.0664 -1.4606
  172MOL    H8524367   2.312   1.534   6.083  2.1766  0.5201 -2.0148
  172MOL    C8624368   2.563   1.598   6.261 -0.5686 -0.1648 -0.0188
  172MOL    C8724369   2.689   1.693   6.251 -0.2020 -0.5862  0.0464
  172MOL    O8824370   2.649   1.820   6.209 -0.0680 -1.0337  0.0119
  172MOL    H8924371   2.487   1.633   6.332 -0.6741 -0.4672  0.0167
  172MOL    H9024372   2.585   1.504   6.311  0.9092 -0.6859 -1.6069
  172MOL    H9124373   2.759   1.661   6.173  0.3908  0.0935  0.2931
  172MOL    H9224374   2.709   1.841   6.138 -0.1400 -0.6147  0.0732
  172MOL    C9324375   2.753   1.722   6.392 -0.3591  0.4622 -0.1367
  172MOL    C9424376   2.833   1.597   6.444  0.5772 -0.6388 -1.2133
  172MOL    O9524377   2.967   1.612   6.392 -0.1295 -0.0708 -0.2031
  172MOL    H9624378   2.819   1.808   6.382  0.2216  0.1594  1.0294
  172MOL    H9724379   2.676   1.754   6.462  0.3564  1.9447 -0.0176
  172MOL    H9824380   2.798   1.507   6.395  0.7110 -0.5906 -1.3952
  172MOL    H9924381   2.969   1.676   6.322 -1.3283 -0.4567 -0.6039
  172MOL   C10024382   2.838   1.585   6.595  0.8980 -0.5591 -0.0997
  172MOL   C10124383   2.912   1.462   6.652 -0.2273 -0.1101  1.0834
  172MOL   O10224384   3.050   1.476   6.606 -0.2863 -0.0154  0.0387
  172MOL   H10324385   2.880   1.680   6.629 -0.0458 -0.9722  2.3400
  172MOL   H10424386   2.738   1.583   6.638  0.7672 -2.7189 -0.4929
  172MOL   H10524387   2.891   1.365   6.608  1.7820 -0.6431  1.2212
  172MOL   H10624388   3.042   1.501   6.516 -0.9766 -0.1851  0.0479
  172MOL   C10724389   2.895   1.442   6.801 -0.5850  0.2998 -0.6340
  172MOL   C10824390   2.947   1.311   6.867 -0.8372  0.1974 -0.2611
  172MOL   O10924391   3.089   1.307   6.855 -0.2256 -0.2277 -0.4583
  172MOL   H11024392   2.939   1.517   6.867  0.6910 -0.3985 -0.6887
  172MOL   H11124393   2.793   1.452   6.839  0.0201 -1.6634  1.6351
  172MOL   H11224394   2.909   1.221   6.818  0.7454 -0.3948 -0.4182
  172MOL   H11324395   3.103   1.387   6.806  1.3846 -0.5084 -0.4620
  172MOL   C11424396   2.911   1.294   7.018  0.1584  0.2776  0.1054
  172MOL   C11524397   2.984   1.170   7.084  0.9382 -0.4137  0.0159
  172MOL   O11624398   2.944   1.168   7.226 -0.7041  0.5066 -0.3424
  172MOL   H11724399   2.931   1.388   7.069  3.2681  0.7494 -1.8489
  172MOL   H11824400   2.804   1.276   7.033  0.3921 -1.7513 -0.4633
  172MOL   H11924401   3.092   1.182   7.080  1.0827 -1.2124  1.2033
  172MOL   H12024402   2.961   1.255   7.259  0.2007  0.4541 -0.6695
  172MOL   C12124403   2.947   1.033   7.021 -0.1596 -0.4118  0.5086
  172MOL   C12224404   3.031   0.911   7.056 -0.5270 -1.3323  0.3239
  172MOL   O12324405   2.949   0.799   7.044 -0.2112  0.0688 -0.0211
  172MOL   H12424406   2.843   1.023   7.049 -0.4910  0.3775 -0.3923
  172MOL   H12524407   2.933   1.039   6.913  0.2425 -2.8867  0.2806
  172MOL   H12624408   3.057   0.920   7.161 -0.4815 -0.8522  0.2712
  172MOL   H12724409   2.937   0.752   7.125 -2.0079 -1.4421 -1.1243
  172MOL   C12824410   3.165   0.893   6.979  0.0653  0.0690  0.3391
  172MOL   C12924411   3.258   0.782   7.030 -0.4622 -0.5222  0.1530
  172MOL   O13024412   3.361   0.773   6.939 -0.4131 -0.0717 -0.2465
  172MOL   H13124413   3.127   0.858   6.883 -1.4153  1.3494  0.4496
  172MOL   H13224414   3.217   0.988   6.964 -1.2802  0.8937  0.8255
  172MOL   H13324415   3.210   0.685   7.039 -2.3713  0.4604  0.7328
  172MOL   H13424416   3.419   0.702   6.963  1.0841  1.2852  0.2460
  172MOL   C13524417   3.315   0.802   7.164 -0.2094 -0.2848 -0.6490
  172MOL   C13624418   3.407   0.697   7.231  0.1499 -0.0776  0.0614
  172MOL   O13724419   3.443   0.733   7.365  0.1784  0.1563 -0.1830
  172MOL   H13824420   3.378   0.891   7.160 -2.0605  0.9878 -2.3827
  172MOL   H13924421   3.230   0.807   7.232  0.4305 -2.6023  0.3646
  172MOL   H14024422   3.489   0.676   7.162  2.4795  1.7403  2.2015
  172MOL   H14124423   3.473   0.653   7.406  0.8189  1.3011  1.5904
  172MOL   H14224424   3.339   0.611   7.231 -0.7063  0.5891 -0.6375
  173MOL     C124425   6.438   2.842   3.340  0.1586 -0.2069 -0.4960
  173MOL     C224426   6.378   2.979   3.382  0.2338 -0.1314  0.5369
  173MOL     O324427   6.443   3.014   3.504  0.2155  0.4783 -0.0590
  173MOL     H424428   6.546   2.840   3.327  0.2390  0.5126  0.0046
  173MOL     H524429   6.399   2.786   3.255 -3.2084 -2.7434  2.5538
  173MOL     H624430   6.275   2.955   3.408  0.3803 -1.2059  0.1572
  173MOL     H724431   6.428   2.939   3.559  1.2936  1.8947  2.2566
  173MOL     H824432   6.420   2.763   3.412  0.1410 -0.7122 -1.0521
  173MOL     C924433   6.384   3.088   3.277 -0.8689 -0.0217  0.2814
  173MOL    C1024434   6.284   3.058   3.155 -0.4256  0.1557 -0.1996
  173MOL    O1124435   6.172   3.144   3.171 -0.1387  0.5346 -0.2620
  173MOL    H1224436   6.365   3.189   3.313  3.2124  0.5276  1.1429
  173MOL    H1324437   6.488   3.084   3.243 -0.5269  0.4337  1.2231
  173MOL    H1424438   6.254   2.954   3.165 -1.0189  0.4755  1.5087
  173MOL    H1524439   6.117   3.108   3.239  0.0224 -0.6493 -0.7383
  173MOL    C1624440   6.346   3.083   3.010  0.3046 -0.0349  0.0385
  173MOL    C1724441   6.420   2.952   2.973 -0.2122  0.4364  0.7607
  173MOL    O1824442   6.321   2.857   2.949 -0.2764  0.4089 -0.3127
  173MOL    H1924443   6.264   3.099   2.941 -0.6065 -1.1425  0.8472
  173MOL    H2024444   6.415   3.168   3.016  1.4358 -1.0786  2.3034
  173MOL    H2124445   6.492   2.924   3.050  0.6058 -0.9734 -0.4879
  173MOL    H2224446   6.370   2.777   2.963  0.1341  0.7772  0.4174
  173MOL    C2324447   6.488   2.958   2.832 -0.1437  0.1631 -0.3795
  173MOL    C2424448   6.637   2.995   2.837  0.2816 -0.1810 -0.3648
  173MOL    O2524449   6.710   2.881   2.888 -0.1462 -0.1781 -0.1558
  173MOL    H2624450   6.491   2.864   2.777  0.1153 -0.4722  0.6955
  173MOL    H2724451   6.431   3.024   2.768 -0.4756 -0.7775 -1.0584
  173MOL    H2824452   6.655   3.077   2.907  0.2823  0.0851 -0.6729
  173MOL    H2924453   6.707   2.806   2.831 -0.3114 -0.6388  0.4514
  173MOL    C3024454   6.688   3.032   2.695  0.3785  0.2217 -0.0513
  173MOL    C3124455   6.826   3.105   2.698  0.1753 -0.5649 -0.2446
  173MOL    O3224456   6.933   3.028   2.760  0.6426  0.2547  0.0826
  173MOL    H3324457   6.690   2.940   2.636 -0.1876 -0.7866  1.4659
  173MOL    H3424458   6.620   3.099   2.642  0.7827 -0.5693 -1.6024
  173MOL    H3524459   6.816   3.198   2.755 -0.6527 -0.3954 -0.6680
  173MOL    H3624460   6.890   2.984   2.831 -0.0612 -0.8057 -0.9934
  173MOL    C3724461   6.857   3.156   2.554  0.0361  0.1349  0.4232
  173MOL    C3824462   6.963   3.267   2.554 -0.5737 -0.1914  0.3689
  173MOL    O3924463   6.912   3.384   2.623 -0.4080 -0.1143 -0.0134
  173MOL    H4024464   6.893   3.074   2.491 -2.0862 -1.6610  1.4688
  173MOL    H4124465   6.772   3.194   2.498 -1.0995 -1.5816  0.9274
  173MOL    H4224466   6.971   3.298   2.450  1.2677  0.8782  0.8069
  173MOL    H4324467   6.973   3.453   2.604 -0.1005 -0.9675 -2.3275
  173MOL    C4424468   7.107   3.234   2.597 -0.9103 -0.2286  0.2638
  173MOL    C4524469   7.212   3.342   2.570  0.2320  0.2534 -0.1554
  173MOL    O4624470   7.199   3.445   2.669 -0.6314 -0.5184 -0.0553
  173MOL    H4724471   7.113   3.209   2.703  0.4226  0.5317  0.3780
  173MOL    H4824472   7.138   3.144   2.543 -0.4405 -1.0563  1.8956
  173MOL    H4924473   7.197   3.399   2.478  0.4594  1.2106  0.3961
  173MOL    H5024474   7.258   3.516   2.649 -1.3900  0.8384  2.3590
  173MOL    C5124475   7.355   3.302   2.560 -0.0890 -0.8146 -0.1200
  173MOL    C5224476   7.389   3.238   2.429  0.7355  0.7912  0.8843
  173MOL    O5324477   7.338   3.303   2.316  0.1515 -0.1779  0.0765
  173MOL    H5424478   7.431   3.379   2.571 -0.3042 -0.7077  0.6383
  173MOL    H5524479   7.378   3.230   2.638  1.3824 -3.2148 -2.6593
  173MOL    H5624480   7.340   3.140   2.425  3.0505 -0.3256 -0.6930
  173MOL    H5724481   7.316   3.241   2.249  0.2610  0.3811 -0.4809
  173MOL    C5824482   0.015   3.228   2.399 -0.6039 -0.2539  0.4681
  173MOL    C5924483   0.104   3.168   2.511 -0.3020  0.9948 -0.3173
  173MOL    O6024484   0.075   3.029   2.510 -0.1469  0.4295 -0.3962
  173MOL    H6124485   0.015   3.166   2.309 -0.7946  0.3054  0.0786
  173MOL    H6224486   0.058   3.322   2.365  0.9047 -1.4078 -0.9310
  173MOL    H6324487   0.076   3.206   2.609  2.9046  3.5111 -0.3084
  173MOL    H6424488   7.501   3.019   2.520 -0.0750  0.0908 -0.0599
  173MOL    C6524489   0.255   3.194   2.496  0.7657  0.3650 -0.1579
  173MOL    C6624490   0.321   3.332   2.532  0.3966 -0.8019 -0.0977
  173MOL    O6724491   0.302   3.423   2.426  0.0024 -0.0277  0.8874
  173MOL    H6824492   0.306   3.121   2.558 -0.3455 -1.1587 -0.9979
  173MOL    H6924493   0.284   3.177   2.392  1.2619 -0.9296  0.1765
  173MOL    H7024494   0.430   3.330   2.532  0.4068 -0.1190 -0.2682
  173MOL    H7124495   0.346   3.395   2.347 -2.6906  1.2136 -1.1750
  173MOL    C7224496   0.281   3.394   2.665  0.1520 -0.4634 -0.6046
  173MOL    C7324497   0.308   3.304   2.790 -0.2111 -0.5042  0.4664
  173MOL    O7424498   0.430   3.346   2.858 -0.1849  0.3428 -0.2321
  173MOL    H7524499   0.326   3.492   2.682  0.9909 -0.9721  0.2058
  173MOL    H7624500   0.175   3.420   2.666 -0.1852 -1.5422  3.7636
  173MOL    H7724501   0.311   3.200   2.757 -0.8755 -0.0727 -1.0161
  173MOL    H7824502   0.398   3.407   2.922 -2.8681 -2.2440  1.0031
  173MOL    C7924503   0.196   3.303   2.889 -0.2834  0.1279 -0.0911
  173MOL    C8024504   0.203   3.223   3.018  0.0837  0.0091  0.7088
  173MOL    O8124505   0.105   3.277   3.104  0.3344  0.3247 -0.5274
  173MOL    H8224506   0.186   3.408   2.918 -1.8347 -0.1415  0.3991
  173MOL    H8324507   0.107   3.279   2.832  1.1183 -0.8234 -1.9404
  173MOL    H8424508   0.297   3.232   3.073 -1.4000 -0.9071  3.5009
  173MOL    H8524509   0.022   3.249   3.069  0.0798 -0.4941  0.6907
  173MOL    C8624510   0.202   3.069   3.003 -0.1346 -0.8662 -0.0914
  173MOL    C8724511   0.260   2.990   3.115  0.6141 -0.1058  0.1397
  173MOL    O8824512   0.400   2.992   3.112  0.4524 -0.2015 -0.1861
  173MOL    H8924513   0.102   3.040   2.970 -0.6598  0.6061  0.1285
  173MOL    H9024514   0.269   3.043   2.922  0.9881 -0.0656  0.5654
  173MOL    H9124515   0.240   2.884   3.098  0.1331 -0.1232  0.7956
  173MOL    H9224516   0.423   2.904   3.085 -0.4079 -0.4990  0.0178
  173MOL    C9324517   0.198   3.013   3.252  0.0958  0.1499  0.7577
  173MOL    C9424518   0.049   2.985   3.269 -0.7874 -0.6183 -0.0694
  173MOL    O9524519   0.018   2.853   3.234 -0.3450  0.2446 -0.7795
  173MOL    H9624520   0.246   2.942   3.319 -0.2146  1.7374  2.7490
  173MOL    H9724521   0.228   3.109   3.295  0.2055  1.4795 -2.2066
  173MOL    H9824522   0.001   3.056   3.202 -2.4985 -1.9741 -0.3232
  173MOL    H9924523   7.444   2.847   3.227 -0.1760 -0.7465 -2.7496
  173MOL   C10024524   7.518   2.999   3.415  0.2651 -0.2700 -0.6901
  173MOL   C10124525   7.404   3.099   3.444 -0.0554  0.0174  0.5054
  173MOL   O10224526   7.369   3.079   3.583 -0.2426  0.6627  0.0244
  173MOL   H10324527   7.478   2.901   3.442  2.0060 -0.8849 -0.2815
  173MOL   H10424528   0.079   3.022   3.486  0.7841  0.1532 -1.4016
  173MOL   H10524529   7.318   3.071   3.383  1.5959  1.3699 -2.5596
  173MOL   H10624530   7.308   3.149   3.602  0.3807  1.7557 -1.9109
  173MOL   C10724531   7.438   3.249   3.421  0.5180 -0.4123  0.3483
  173MOL   C10824532   7.318   3.336   3.442  0.2400 -0.3617  0.0697
  173MOL   O10924533   7.272   3.331   3.571 -0.1099 -0.0954  0.7402
  173MOL   H11024534   7.516   3.272   3.494 -0.6519  0.5834  1.3134
  173MOL   H11124535   7.478   3.258   3.320  1.3052  1.2242  0.7931
  173MOL   H11224536   7.237   3.309   3.374  0.4590  1.6929 -1.0556
  173MOL   H11324537   7.207   3.399   3.575 -2.3427 -2.2486  2.4494
  173MOL   C11424538   7.348   3.484   3.412  0.3387  0.3340  0.3809
  173MOL   C11524539   7.266   3.529   3.293  0.4628 -0.2447  0.1047
  173MOL   O11624540   7.304   3.668   3.273 -0.1618 -0.2120  0.0074
  173MOL   H11724541   7.329   3.553   3.494  0.9532  1.8185 -0.7126
  173MOL   H11824542   7.453   3.494   3.385 -0.1825 -1.7475 -2.6674
  173MOL   H11924543   7.158   3.517   3.307  0.3018  1.4714  0.3379
  173MOL   H12024544   7.399   3.666   3.278 -0.0673 -4.5671 -1.3797
  173MOL   C12124545   7.300   3.455   3.164 -0.4741 -0.1626 -0.4925
  173MOL   C12224546   7.213   3.494   3.039  0.3245 -0.4639 -0.0500
  173MOL   O12324547   7.290   3.431   2.934 -0.0680 -0.1640  0.6186
  173MOL   H12424548   7.405   3.476   3.145 -0.0519  0.5132  2.4878
  173MOL   H12524549   7.301   3.346   3.169 -0.6367 -0.2363 -1.7035
  173MOL   H12624550   7.213   3.602   3.027  1.5333 -0.3085  1.1814
  173MOL   H12724551   7.250   3.448   2.850  0.0957 -2.2111  0.0990
  173MOL   C12824552   7.069   3.440   3.041  0.2799  0.0491 -0.3869
  173MOL   C12924553   6.954   3.542   3.047  0.0369 -0.0551 -0.4146
  173MOL   O13024554   6.834   3.471   3.053 -0.0053 -0.2256  0.4100
  173MOL   H13124555   7.050   3.395   2.943  0.1913  1.1029 -0.8603
  173MOL   H13224556   7.058   3.361   3.115  1.0179  0.0382 -0.2893
  173MOL   H13324557   6.963   3.593   2.951 -0.8904 -0.1686 -0.5666
  173MOL   H13424558   6.774   3.508   2.990 -0.0173 -2.3092 -0.8636
  173MOL   C13524559   6.961   3.623   3.173 -0.4511  0.0720 -0.4960
  173MOL   C13624560   6.846   3.722   3.188  0.4515  0.0085 -0.0018
  173MOL   O13724561   6.852   3.790   3.311 -0.3773 -0.2651 -0.0821
  173MOL   H13824562   6.957   3.558   3.260 -1.8563  0.8672  0.0468
  173MOL   H13924563   7.057   3.675   3.172 -1.9765  2.9688 -2.5368
  173MOL   H14024564   6.745   3.683   3.195 -0.5065  2.1754 -1.3702
  173MOL   H14124565   6.940   3.821   3.327 -0.4940 -0.2120  0.4939
  173MOL   H14224566   6.847   3.800   3.111 -1.8182  0.3856  0.3202
  174MOL     C124567   1.416   4.747   3.962  0.8038  0.8801  0.3167
  174MOL     C224568   1.263   4.741   3.983 -0.2592 -0.9095 -0.2990
  174MOL     O324569   1.199   4.834   3.903 -0.5246 -0.0723 -0.0498
  174MOL     H424570   1.447   4.715   3.862 -0.3843  2.2065 -0.5004
  174MOL     H524571   1.463   4.674   4.028 -0.0353  1.7806  1.9396
  174MOL     H624572   1.240   4.772   4.084  3.1567 -0.6640  0.4570
  174MOL     H724573   1.243   4.917   3.914 -0.2543 -0.2319  0.0840
  174MOL     H824574   1.441   4.850   3.986  0.0336  1.5907 -1.7650
  174MOL     C924575   1.197   4.600   3.952  0.1709  0.8163 -0.0406
  174MOL    C1024576   1.259   4.482   4.031 -0.5876 -0.0668 -0.5959
  174MOL    O1124577   1.260   4.509   4.171 -0.0074  0.7884  0.0574
  174MOL    H1224578   1.092   4.595   3.980  0.0356 -4.0434 -0.9868
  174MOL    H1324579   1.204   4.574   3.846  1.1847  0.4418  0.1176
  174MOL    H1424580   1.360   4.453   4.003  0.1995 -0.1196  2.1690
  174MOL    H1524581   1.170   4.508   4.198  0.0087  1.8631  0.1719
  174MOL    C1624582   1.190   4.347   4.010  0.3082  0.1470  0.4141
  174MOL    C1724583   1.203   4.281   3.872 -0.9151 -0.3180 -0.4143
  174MOL    O1824584   1.335   4.252   3.833  0.2710  0.1871 -0.2973
  174MOL    H1924585   1.228   4.279   4.087  1.3811  2.0535  1.5972
  174MOL    H2024586   1.085   4.351   4.039  0.4892 -1.4909  1.3993
  174MOL    H2124587   1.170   4.358   3.802 -1.1942  1.3777  1.5102
  174MOL    H2224588   1.339   4.158   3.833 -0.2154  0.1633 -1.2453
  174MOL    C2324589   1.118   4.159   3.846 -0.0752 -0.1606 -0.8567
  174MOL    C2424590   0.966   4.175   3.868  0.3513  0.3053  0.2822
  174MOL    O2524591   0.924   4.226   3.744  0.2905  0.3704  0.0982
  174MOL    H2624592   1.134   4.140   3.740 -0.5173  2.4590 -1.4218
  174MOL    H2724593   1.159   4.074   3.900  0.7333  0.7666  0.0171
  174MOL    H2824594   0.938   4.247   3.945  2.6288  0.4280  1.0332
  174MOL    H2924595   0.931   4.152   3.686  0.8854  0.2667  0.2978
  174MOL    C3024596   0.879   4.051   3.890 -0.9509 -0.0392  0.2213
  174MOL    C3124597   0.896   3.984   4.027  0.6541  0.0875  0.6372
  174MOL    O3224598   0.841   4.079   4.112  0.3303 -0.2782 -0.1443
  174MOL    H3324599   0.774   4.071   3.874 -1.1043  0.1080  1.3369
  174MOL    H3424600   0.896   3.984   3.806  0.1012 -0.4423  0.7414
  174MOL    H3524601   1.001   3.961   4.048  0.5954 -0.3849  0.4219
  174MOL    H3624602   0.895   4.094   4.188 -0.6822  1.0035  0.3351
  174MOL    C3724603   0.812   3.857   4.046 -0.3804 -0.7344 -0.4823
  174MOL    C3824604   0.865   3.740   3.962  0.3101 -0.3660 -0.2974
  174MOL    O3924605   0.939   3.650   4.048 -0.1567  0.0019 -0.0358
  174MOL    H4024606   0.809   3.832   4.153  0.0691  1.4950  0.0678
  174MOL    H4124607   0.704   3.874   4.039 -0.4003  0.2197  1.7102
  174MOL    H4224608   0.940   3.774   3.892  0.6202  0.7992  0.5848
  174MOL    H4324609   1.005   3.614   3.991  0.1477 -1.5150  1.2393
  174MOL    C4424610   0.748   3.663   3.885 -0.7803 -0.4391 -0.6953
  174MOL    C4524611   0.686   3.726   3.762  0.1020 -0.0866 -0.6290
  174MOL    O4624612   0.652   3.614   3.688  0.2602  0.2511  0.0154
  174MOL    H4724613   0.795   3.567   3.863 -0.4015 -0.5178  0.4255
  174MOL    H4824614   0.664   3.626   3.944 -0.8869 -0.2377 -0.7211
  174MOL    H4924615   0.762   3.777   3.702 -1.0911  0.6887 -1.4869
  174MOL    H5024616   0.686   3.617   3.600 -1.3026  1.3889 -0.5870
  174MOL    C5124617   0.565   3.811   3.784  0.5516 -0.0016 -0.0650
  174MOL    C5224618   0.508   3.882   3.655 -0.6358 -0.4245 -0.6238
  174MOL    O5324619   0.406   3.958   3.700 -0.1077 -0.4045  0.0793
  174MOL    H5424620   0.484   3.756   3.830 -1.1609  1.5954 -1.0770
  174MOL    H5524621   0.595   3.890   3.853  1.2318 -0.6569  0.4030
  174MOL    H5624622   0.469   3.808   3.585 -1.6014 -0.6205  0.1123
  174MOL    H5724623   0.321   3.929   3.670  0.6004 -0.9882 -1.4326
  174MOL    C5824624   0.607   3.982   3.591  0.2165  0.4571 -0.1745
  174MOL    C5924625   0.548   4.085   3.497 -0.4167  0.4250  0.5647
  174MOL    O6024626   0.655   4.177   3.458 -0.2421  0.2687  0.0266
  174MOL    H6124627   0.651   4.029   3.679  1.0099  0.3089 -0.4874
  174MOL    H6224628   0.687   3.921   3.550 -0.2297 -1.0883  1.2160
  174MOL    H6324629   0.474   4.147   3.547 -2.0077 -1.6848  0.9319
  174MOL    H6424630   0.665   4.243   3.525 -0.5149 -0.1099  0.4501
  174MOL    C6524631   0.502   4.024   3.368 -0.6431  0.2445  0.0315
  174MOL    C6624632   0.438   4.125   3.269 -0.7214  0.0911  0.3839
  174MOL    O6724633   0.548   4.178   3.199 -0.1654 -0.3724  0.6073
  174MOL    H6824634   0.580   3.962   3.324 -1.4361  0.2270 -1.3971
  174MOL    H6924635   0.422   3.955   3.393 -0.0707 -0.0944  0.9235
  174MOL    H7024636   0.386   4.209   3.315  0.9754  1.5637 -0.3355
  174MOL    H7124637   0.617   4.192   3.263  1.3581 -0.5850 -0.9716
  174MOL    C7224638   0.338   4.050   3.175  0.5593 -0.0356 -0.1589
  174MOL    C7324639   0.193   4.046   3.226 -0.2879  0.7448 -0.6164
  174MOL    O7424640   0.156   4.183   3.240  0.2421 -0.1019 -0.0756
  174MOL    H7524641   0.321   4.113   3.088 -0.2549  1.3189  0.9566
  174MOL    H7624642   0.365   3.949   3.145  1.0678 -0.4233  1.5392
  174MOL    H7724643   0.187   3.999   3.324 -0.7828  1.2553 -0.3958
  174MOL    H7824644   0.160   4.236   3.162  0.6733 -0.2379 -0.1462
  174MOL    C7924645   0.090   3.972   3.142 -0.2519  0.3429  0.0050
  174MOL    C8024646   0.106   3.814   3.141 -0.1506 -0.5049  0.0674
  174MOL    O8124647   0.076   3.765   3.265  0.2348  0.1528 -0.7213
  174MOL    H8224648   7.513   4.006   3.180  0.1173  2.1923 -0.6384
  174MOL    H8324649   0.106   4.003   3.039  0.2667 -0.4219 -0.1444
  174MOL    H8424650   0.211   3.789   3.120  0.9556  2.1414  2.2243
  174MOL    H8524651   0.116   3.679   3.266 -0.1979 -0.0365 -0.0569
  174MOL    C8624652   0.037   3.733   3.027  0.0063 -0.0168  0.3926
  174MOL    C8724653   0.104   3.737   2.886 -1.1734  0.0673 -0.1741
  174MOL    O8824654   0.234   3.674   2.893 -0.6543  0.9577 -0.0351
  174MOL    H8924655   0.046   3.627   3.048  0.1995 -0.7642 -3.2312
  174MOL    H9024656   7.450   3.756   3.028 -0.6104 -2.8094  0.6686
  174MOL    H9124657   0.129   3.840   2.857  2.8417 -1.6626 -3.5040
  174MOL    H9224658   0.284   3.711   2.821  0.2064  0.2105  0.1666
  174MOL    C9324659   0.019   3.668   2.774  0.1476 -0.0980 -0.0620
  174MOL    C9424660   7.422   3.746   2.712  0.6684 -1.1107  0.0711
  174MOL    O9524661   7.370   3.659   2.609 -0.8096  0.4331 -0.3722
  174MOL    H9624662   0.086   3.646   2.690  1.6355 -1.3597  1.4122
  174MOL    H9724663   7.501   3.572   2.808  1.5968  0.4177  3.2119
  174MOL    H9824664   7.459   3.835   2.661  0.7300 -0.6817  0.8573
  174MOL    H9924665   7.434   3.667   2.540  0.3200 -0.0007  0.6149
  174MOL   C10024666   7.303   3.779   2.805  0.6457  0.2815  0.4133
  174MOL   C10124667   7.159   3.798   2.740 -0.8437  0.3516 -0.7750
  174MOL   O10224668   7.067   3.848   2.833 -0.1845 -0.1231 -0.5894
  174MOL   H10324669   7.288   3.697   2.876 -1.3116  0.8961  0.7636
  174MOL   H10424670   7.329   3.863   2.870  2.0244  1.4737 -1.6267
  174MOL   H10524671   7.122   3.697   2.721 -0.6784  0.7547 -3.5533
  174MOL   H10624672   7.075   3.941   2.845 -0.9311 -0.2438  1.0359
  174MOL   C10724673   7.143   3.895   2.618  0.7963 -0.0401 -0.3904
  174MOL   C10824674   7.010   3.882   2.552  0.9542  0.7664 -0.1679
  174MOL   O10924675   6.998   3.987   2.457  0.6353 -0.3661  0.1887
  174MOL   H11024676   7.176   3.997   2.640  1.7259 -0.7228  1.5067
  174MOL   H11124677   7.203   3.857   2.535 -1.2609 -0.5667 -1.6685
  174MOL   H11224678   6.931   3.905   2.624  0.8709  3.4597 -1.0743
  174MOL   H11324679   6.911   4.025   2.450  1.2084  0.5321 -2.4008
  174MOL   C11424680   6.980   3.746   2.484  0.8525  0.0529  1.3380
  174MOL   C11524681   6.856   3.735   2.389 -0.7188 -0.2537 -0.7227
  174MOL   O11624682   6.885   3.651   2.281 -0.1949  0.1623 -0.3181
  174MOL   H11724683   7.068   3.720   2.425  1.0317  1.1206  1.1213
  174MOL   H11824684   6.978   3.660   2.551  0.0558  1.2363  2.8528
  174MOL   H11924685   6.826   3.829   2.343 -1.1485 -0.2514 -0.4393
  174MOL   H12024686   6.806   3.610   2.251 -0.6894  1.2779 -0.5660
  174MOL   C12124687   6.737   3.672   2.465 -0.5979 -0.6014 -0.5314
  174MOL   C12224688   6.686   3.755   2.587 -0.0906  0.4271 -0.5090
  174MOL   O12324689   6.624   3.873   2.542  0.1855 -0.6281  0.1823
  174MOL   H12424690   6.656   3.656   2.395 -0.9597 -2.0409  0.2025
  174MOL   H12524691   6.769   3.574   2.499 -1.0440 -0.7262 -0.4726
  174MOL   H12624692   6.757   3.785   2.665  0.3615  0.5558 -0.9644
  174MOL   H12724693   6.691   3.927   2.504 -0.7820 -0.3052 -1.0953
  174MOL   C12824694   6.578   3.667   2.655 -0.3073  0.0360  0.1585
  174MOL   C12924695   6.632   3.563   2.753  0.0129  1.0361  0.3356
  174MOL   O13024696   6.668   3.620   2.877  0.1538  0.1201 -0.3596
  174MOL   H13124697   6.515   3.729   2.719  1.0857  2.5462 -0.7831
  174MOL   H13224698   6.515   3.622   2.578 -0.3328 -0.7262  0.6231
  174MOL   H13324699   6.717   3.521   2.699 -0.4826  1.4049 -0.7601
  174MOL   H13424700   6.635   3.708   2.880  1.0348  0.4036  2.4747
  174MOL   C13524701   6.528   3.459   2.785  0.0720  0.0643  0.7603
  174MOL   C13624702   6.489   3.363   2.671  0.3060  0.3075  0.0399
  174MOL   O13724703   6.394   3.270   2.715 -0.2635 -0.1368 -0.3319
  174MOL   H13824704   6.570   3.393   2.862 -0.1099 -1.2194 -0.2213
  174MOL   H13924705   6.446   3.514   2.831  0.4620  1.8866 -0.6717
  174MOL   H14024706   6.579   3.308   2.644 -0.2188 -1.2168  1.3266
  174MOL   H14124707   6.329   3.313   2.768 -1.2334 -0.9043 -0.8894
  174MOL   H14224708   6.433   3.413   2.591 -0.9852 -2.1930 -0.6499
  175MOL     C124709   5.699   4.361   6.288 -0.1402  0.0142  0.2335
  175MOL     C224710   5.689   4.513   6.273  0.5482 -0.2619 -0.3681
  175MOL     O324711   5.678   4.562   6.411 -0.3615  0.7831 -0.0918
  175MOL     H424712   5.679   4.300   6.200 -1.3089  1.3207 -0.4069
  175MOL     H524713   5.623   4.341   6.363 -0.2081  2.0153  0.7127
  175MOL     H624714   5.599   4.533   6.215 -0.7903 -0.9580  1.4141
  175MOL     H724715   5.598   4.533   6.453  0.0856 -1.7903 -0.9378
  175MOL     H824716   5.795   4.337   6.334  0.7715  0.2440 -1.5060
  175MOL     C924717   5.808   4.572   6.206  0.6448 -0.8076  0.0697
  175MOL    C1024718   5.845   4.519   6.064  0.7720  0.1047  0.2803
  175MOL    O1124719   5.898   4.626   5.988  0.5258 -0.3228 -0.3033
  175MOL    H1224720   5.786   4.679   6.203  0.7277 -0.7537  1.1956
  175MOL    H1324721   5.893   4.566   6.274  0.9134 -1.5209 -0.3197
  175MOL    H1424722   5.760   4.481   6.006  0.1923  1.3366  0.3025
  175MOL    H1524723   5.964   4.583   5.935 -0.5396 -0.8639 -1.2146
  175MOL    C1624724   5.954   4.411   6.069  0.1286  0.6624  0.5075
  175MOL    C1724725   6.004   4.371   5.927 -0.0884  0.2621 -0.1198
  175MOL    O1824726   6.104   4.467   5.889  0.1667 -0.6376  0.2748
  175MOL    H1924727   6.044   4.428   6.129  1.0460  0.9617 -0.9299
  175MOL    H2024728   5.912   4.323   6.116 -0.6679  1.8587  2.0888
  175MOL    H2124729   5.919   4.365   5.859  0.5195  0.1220 -0.8734
  175MOL    H2224730   6.178   4.422   5.852 -0.1909 -1.0101  0.0091
  175MOL    C2324731   6.066   4.228   5.910  0.4927 -0.0323  0.8006
  175MOL    C2424732   5.979   4.102   5.954 -0.0696 -0.1422 -1.1509
  175MOL    O2524733   5.839   4.109   5.931 -0.6144 -0.6728  0.0546
  175MOL    H2624734   6.081   4.216   5.803  0.9763  0.7536  0.7802
  175MOL    H2724735   6.157   4.223   5.969  2.0807  1.4507 -1.4937
  175MOL    H2824736   5.982   4.099   6.063  2.0773 -0.5177 -1.1959
  175MOL    H2924737   5.838   4.151   5.846 -1.3169  0.1589  0.4622
  175MOL    C3024738   6.026   3.979   5.884 -0.7951 -0.0011 -0.4912
  175MOL    C3124739   6.177   3.943   5.884 -0.5413 -0.4442  0.0413
  175MOL    O3224740   6.226   3.938   6.024 -0.0578  0.2018  0.7991
  175MOL    H3324741   5.965   3.897   5.920 -0.4835 -0.6327 -1.3787
  175MOL    H3424742   5.989   3.989   5.782 -0.6995 -0.5384 -0.5784
  175MOL    H3524743   6.241   4.015   5.832  0.3158 -0.3917  1.1465
  175MOL    H3624744   6.318   3.959   6.027  0.0474 -0.0704 -0.2213
  175MOL    C3724745   6.219   3.801   5.828 -0.0296 -0.8631  0.0155
  175MOL    C3824746   6.181   3.778   5.676 -0.0099 -0.1269  0.4198
  175MOL    O3924747   6.277   3.843   5.591 -0.0103  0.0109 -0.6236
  175MOL    H4024748   6.326   3.788   5.836 -0.2237 -2.4053  0.1719
  175MOL    H4124749   6.165   3.728   5.888 -2.3458  0.3839 -0.4476
  175MOL    H4224750   6.077   3.807   5.657 -0.3840 -0.6954  1.5228
  175MOL    H4324751   6.361   3.818   5.627  0.0507 -0.5994 -1.1737
  175MOL    C4424752   6.195   3.628   5.662 -0.3326 -0.4174  0.0378
  175MOL    C4524753   6.135   3.566   5.531 -0.1374 -0.1788  0.3761
  175MOL    O4624754   6.197   3.441   5.530  0.8351 -0.0568  0.0870
  175MOL    H4724755   6.301   3.608   5.675 -0.4247 -0.4762  0.7601
  175MOL    H4824756   6.149   3.578   5.747  0.8762  0.3799  1.1851
  175MOL    H4924757   6.153   3.630   5.445 -1.8691  0.4725  0.4729
  175MOL    H5024758   6.182   3.405   5.443 -0.0956 -0.8535  0.5666
  175MOL    C5124759   5.978   3.559   5.538 -0.4315  0.3621 -0.6500
  175MOL    C5224760   5.918   3.581   5.402 -0.5225  0.6760  0.6659
  175MOL    O5324761   5.782   3.532   5.400 -0.5650 -0.2582  0.3027
  175MOL    H5424762   5.952   3.457   5.566  0.9677  0.2327  0.2538
  175MOL    H5524763   5.934   3.621   5.617  1.3550  0.1571  0.5464
  175MOL    H5624764   5.978   3.526   5.331 -0.1120  1.1950  0.6123
  175MOL    H5724765   5.744   3.560   5.482 -1.3887  2.0676 -0.8316
  175MOL    C5824766   5.917   3.728   5.351 -0.2419  0.1505 -0.1503
  175MOL    C5924767   5.829   3.766   5.233  0.2147  0.1566  0.1651
  175MOL    O6024768   5.798   3.901   5.231  0.4059 -0.3374 -0.1142
  175MOL    H6124769   5.890   3.784   5.441  1.1904 -0.0405  0.4242
  175MOL    H6224770   6.019   3.761   5.329 -0.3678  0.9215  0.3820
  175MOL    H6324771   5.738   3.706   5.241 -1.7889  3.0879  0.0451
  175MOL    H6424772   5.747   3.914   5.152 -0.8857 -1.0312  0.5847
  175MOL    C6524773   5.896   3.723   5.097 -0.2529 -0.1023  0.4025
  175MOL    C6624774   5.815   3.761   4.962  0.4197 -0.3737 -0.4276
  175MOL    O6724775   5.878   3.875   4.898  0.0277 -0.2415 -0.1188
  175MOL    H6824776   5.997   3.763   5.086 -0.1742 -1.2682 -4.2621
  175MOL    H6924777   5.905   3.615   5.110 -0.8403 -0.2139 -0.0545
  175MOL    H7024778   5.715   3.795   4.987  0.0916 -2.1523  0.7564
  175MOL    H7124779   5.851   3.953   4.943 -0.7110  0.3637 -1.5822
  175MOL    C7224780   5.810   3.640   4.862 -0.6728  0.6812  0.9739
  175MOL    C7324781   5.694   3.653   4.757 -0.6665 -0.6143  0.1753
  175MOL    O7424782   5.692   3.789   4.713 -0.2550  0.0289 -0.0301
  175MOL    H7524783   5.909   3.635   4.816 -0.6364  1.1607  0.9967
  175MOL    H7624784   5.797   3.542   4.907 -2.8773 -0.3269 -1.7364
  175MOL    H7724785   5.599   3.631   4.804 -0.4901  1.2642  1.4732
  175MOL    H7824786   5.779   3.820   4.732 -0.5720  2.5745 -2.4355
  175MOL    C7924787   5.716   3.567   4.630 -0.0341  0.6284 -0.1137
  175MOL    C8024788   5.733   3.410   4.656 -0.0344 -0.0732  0.7041
  175MOL    O8124789   5.632   3.362   4.742  0.1350  0.0732  0.3324
  175MOL    H8224790   5.630   3.585   4.564  0.1791  1.8028 -0.0889
  175MOL    H8324791   5.805   3.603   4.579  1.2585 -2.3195 -0.0051
  175MOL    H8424792   5.833   3.389   4.695 -0.5616 -0.2329  1.9880
  175MOL    H8524793   5.560   3.351   4.681  2.0352  1.4571 -2.2783
  175MOL    C8624794   5.719   3.336   4.521  0.8308 -0.2998  0.8055
  175MOL    C8724795   5.805   3.378   4.403  0.2091 -0.4397  0.9493
  175MOL    O8824796   5.942   3.344   4.440  0.8250  0.1665  0.6034
  175MOL    H8924797   5.719   3.231   4.550 -2.1401 -0.1068  1.6265
  175MOL    H9024798   5.625   3.365   4.474  1.6166  1.3273  0.1909
  175MOL    H9124799   5.785   3.483   4.381  0.8768 -0.4894  0.0506
  175MOL    H9224800   5.949   3.255   4.471  1.4443 -0.2815 -0.7943
  175MOL    C9324801   5.765   3.315   4.263 -0.0306 -0.2507  0.0560
  175MOL    C9424802   5.634   3.359   4.194 -0.0241  0.0063 -0.0116
  175MOL    O9524803   5.639   3.500   4.162 -0.2694 -0.4535 -0.1865
  175MOL    H9624804   5.837   3.334   4.183  0.0882 -2.6624 -0.4393
  175MOL    H9724805   5.759   3.207   4.273  2.5422 -0.2532  1.7560
  175MOL    H9824806   5.554   3.343   4.266 -0.4048  0.8883 -0.2215
  175MOL    H9924807   5.557   3.542   4.187 -0.5192 -0.7756 -0.4567
  175MOL   C10024808   5.615   3.284   4.062 -0.2727  0.2157 -0.0760
  175MOL   C10124809   5.571   3.137   4.084 -0.2895 -0.4222 -0.4682
  175MOL   O10224810   5.435   3.139   4.124 -0.1958  0.0499 -0.1145
  175MOL   H10324811   5.535   3.327   4.002  0.1628 -0.4147 -1.1360
  175MOL   H10424812   5.709   3.294   4.007 -0.8281  1.1755 -0.8558
  175MOL   H10524813   5.624   3.086   4.165 -0.5718  0.2770  0.1608
  175MOL   H10624814   5.403   3.051   4.136  0.1180  0.0729  0.9299
  175MOL   C10724815   5.574   3.059   3.948  0.9403 -0.3857  0.0212
  175MOL   C10824816   5.705   3.055   3.867 -0.4702 -0.3853 -0.0767
  175MOL   O10924817   5.815   3.055   3.962  0.3486 -0.5539  0.0054
  175MOL   H11024818   5.531   2.961   3.968 -1.5684  0.5822 -0.5271
  175MOL   H11124819   5.498   3.101   3.883 -0.8095 -0.8481  1.7291
  175MOL   H11224820   5.719   3.147   3.810 -1.2748 -0.6330 -0.6877
  175MOL   H11324821   5.894   3.065   3.912 -0.1331 -1.1808 -0.9004
  175MOL   C11424822   5.721   2.941   3.765  0.3301 -0.1028 -0.0455
  175MOL   C11524823   5.614   2.939   3.650  0.2565 -0.4040 -0.4812
  175MOL   O11624824   5.673   2.867   3.544 -0.1874 -0.1148 -0.6172
  175MOL   H11724825   5.823   2.938   3.728 -0.3868 -0.1819 -2.0609
  175MOL   H11824826   5.712   2.850   3.825 -3.8179 -0.3039 -0.8457
  175MOL   H11924827   5.579   3.036   3.615 -1.7387 -0.2599  1.7808
  175MOL   H12024828   5.622   2.883   3.466  0.9874 -1.2783 -1.6572
  175MOL   C12124829   5.483   2.857   3.690 -0.0158  0.8274 -0.1298
  175MOL   C12224830   5.350   2.927   3.651 -0.4189  0.7135 -0.2557
  175MOL   O12324831   5.323   2.915   3.511  0.7094 -0.0280 -0.3563
  175MOL   H12424832   5.492   2.756   3.650  0.6716  0.4035  1.0864
  175MOL   H12524833   5.483   2.838   3.797  1.8732 -3.1410 -0.7535
  175MOL   H12624834   5.354   3.033   3.675  1.9092  0.6772 -0.3349
  175MOL   H12724835   5.322   2.825   3.483 -0.5157  0.1874 -1.0417
  175MOL   C12824836   5.234   2.866   3.732 -0.2927  0.3021 -0.0410
  175MOL   C12924837   5.095   2.934   3.703  0.2126  0.8758 -0.2698
  175MOL   O13024838   4.997   2.850   3.750  0.5745  0.5046 -0.1759
  175MOL   H13124839   5.230   2.768   3.684 -0.9635 -0.4214  1.4280
  175MOL   H13224840   5.256   2.854   3.838 -0.9194  3.0127  0.4108
  175MOL   H13324841   5.087   2.949   3.595 -1.3482 -1.4547 -0.5105
  175MOL   H13424842   5.021   2.833   3.840  1.2972 -0.0357 -0.4653
  175MOL   C13524843   5.089   3.069   3.781 -0.9327 -0.4249  0.2207
  175MOL   C13624844   4.973   3.165   3.750 -0.1417  0.0130  0.2712
  175MOL   O13724845   4.988   3.295   3.798  0.1907  0.1220  0.2394
  175MOL   H13824846   5.093   3.043   3.886 -0.4151 -0.4261  0.2032
  175MOL   H13924847   5.181   3.122   3.759  0.0003 -1.6248  1.1859
  175MOL   H14024848   4.881   3.125   3.793 -0.8796 -0.1078 -1.3491
  175MOL   H14124849   4.915   3.349   3.772  0.2213 -1.1275 -2.5724
  175MOL   H14224850   4.961   3.170   3.641 -1.2715  1.2072  0.4375
  176MOL     C124851   6.447   6.790   3.074 -0.3737 -0.0716 -0.0528
  176MOL     C224852   6.479   6.711   2.940  0.1230  0.5845  0.3050
  176MOL     O324853   6.366   6.735   2.857 -0.0949 -0.0373  0.2596
  176MOL     H424854   6.369   6.738   3.129 -0.4932 -0.5490 -0.6657
  176MOL     H524855   6.405   6.889   3.056  2.1485  1.7411  3.6043
  176MOL     H624856   6.491   6.603   2.948 -0.7988  0.3233 -1.4854
  176MOL     H724857   6.392   6.698   2.774  0.2930  2.0232 -0.5469
  176MOL     H824858   6.533   6.799   3.140 -0.3503 -0.7987  0.0149
  176MOL     C924859   6.603   6.763   2.864 -0.3717 -0.3976  0.2927
  176MOL    C1024860   6.737   6.753   2.940  0.4877 -0.1272 -0.1339
  176MOL    O1124861   6.748   6.631   3.004  0.3288 -0.8007 -0.1894
  176MOL    H1224862   6.605   6.715   2.766 -0.9866 -0.3639  0.2621
  176MOL    H1324863   6.589   6.869   2.843 -1.9936 -0.7672 -0.5909
  176MOL    H1424864   6.746   6.831   3.016  2.0733  1.1954 -1.6637
  176MOL    H1524865   6.837   6.602   3.016  0.5882 -0.9891 -2.3325
  176MOL    C1624866   6.864   6.779   2.855  0.6896 -0.6440  0.3220
  176MOL    C1724867   6.873   6.921   2.790 -0.1238 -0.1536  0.3497
  176MOL    O1824868   6.925   7.002   2.898  0.4932 -0.1166  0.1118
  176MOL    H1924869   6.957   6.749   2.903  2.1018  0.6692 -1.5244
  176MOL    H2024870   6.860   6.709   2.771 -0.0459 -0.0557 -0.1419
  176MOL    H2124871   6.775   6.965   2.771 -1.0225 -0.8309  3.0980
  176MOL    H2224872   7.010   6.972   2.925  1.2377  0.5960 -1.3928
  176MOL    C2324873   6.968   6.934   2.671 -1.0993 -0.0655 -0.1228
  176MOL    C2424874   6.900   6.884   2.544  0.0096  0.3359  0.5235
  176MOL    O2524875   6.821   6.983   2.483 -0.3556  0.4319  0.6089
  176MOL    H2624876   7.014   7.030   2.650 -3.7372  1.0491 -1.0333
  176MOL    H2724877   7.057   6.876   2.696 -1.8011 -1.6327 -1.1539
  176MOL    H2824878   6.854   6.788   2.566 -2.1199  0.7335 -1.9562
  176MOL    H2924879   6.758   6.937   2.430 -0.6197  2.0728 -0.5452
  176MOL    C3024880   7.000   6.856   2.430 -0.2436  0.1848  0.2312
  176MOL    C3124881   7.115   6.757   2.463 -0.0492 -0.1491  0.3086
  176MOL    O3224882   7.048   6.634   2.487  0.2560  0.1773 -0.0330
  176MOL    H3324883   6.937   6.833   2.344  0.2979  1.9911 -0.6834
  176MOL    H3424884   7.038   6.952   2.396  0.3878 -0.3070 -0.4416
  176MOL    H3524885   7.174   6.782   2.551 -0.3097 -0.4433  0.5703
  176MOL    H3624886   7.034   6.609   2.577  0.9256  0.4201  0.1454
  176MOL    C3724887   7.208   6.719   2.346  0.0906  0.5579 -0.1382
  176MOL    C3824888   7.292   6.833   2.296 -0.5567 -0.0029 -0.7801
  176MOL    O3924889   7.402   6.852   2.383  0.2542 -0.2276  0.1443
  176MOL    H4024890   7.271   6.644   2.392  0.0128  0.8572  0.4616
  176MOL    H4124891   7.150   6.665   2.271  0.5627  0.6958 -0.6071
  176MOL    H4224892   7.245   6.931   2.294  0.2405  0.4042 -0.0307
  176MOL    H4324893   7.461   6.914   2.342 -0.3911  0.1951 -0.1431
  176MOL    C4424894   7.354   6.808   2.154  1.2193  0.3266 -0.3397
  176MOL    C4524895   7.418   6.928   2.084  0.0699 -0.0492 -0.4441
  176MOL    O4624896   0.030   6.965   2.124  0.1377  0.0848  0.2139
  176MOL    H4724897   7.424   6.724   2.157  0.3525 -0.3340  1.5851
  176MOL    H4824898   7.267   6.775   2.098  0.3521  1.1053  0.5419
  176MOL    H4924899   7.350   7.009   2.110  1.0724 -0.4924  3.8072
  176MOL    H5024900   0.015   7.055   2.147 -0.6100  0.2601 -0.9437
  176MOL    C5124901   7.420   6.909   1.927 -0.4780 -0.4997  0.5462
  176MOL    C5224902   7.427   7.044   1.844  0.0561  0.2124 -0.0584
  176MOL    O5324903   7.462   7.009   1.714  0.0803 -0.2589 -0.2277
  176MOL    H5424904   7.501   6.840   1.902 -1.0287 -0.3291 -1.7945
  176MOL    H5524905   7.331   6.852   1.905 -0.6108  0.1615 -0.6641
  176MOL    H5624906   7.496   7.120   1.879  0.4979 -0.2591  0.1010
  176MOL    H5724907   0.025   6.964   1.719  0.3462  0.3058  0.6743
  176MOL    C5824908   7.291   7.123   1.839 -0.3205 -0.0072 -0.4959
  176MOL    C5924909   7.307   7.269   1.788 -0.3438  0.6128  0.4086
  176MOL    O6024910   7.345   7.266   1.653 -0.3426  0.7655  0.0345
  176MOL    H6124911   7.226   7.055   1.783 -0.1998 -1.1742  0.7594
  176MOL    H6224912   7.251   7.120   1.940  1.9591 -1.7810  0.4033
  176MOL    H6324913   7.380   7.324   1.847  1.5542  0.7964 -2.0533
  176MOL    H6424914   7.398   7.189   1.640 -1.2755 -0.1298  1.3430
  176MOL    C6524915   7.180   7.350   1.798  0.0289  0.3087 -0.1337
  176MOL    C6624916   7.202   7.501   1.779 -0.3922 -0.0757 -0.2463
  176MOL    O6724917   7.079   0.044   1.734 -0.4717 -0.2828  0.7415
  176MOL    H6824918   7.111   7.314   1.722 -0.2904 -0.4395  0.5031
  176MOL    H6924919   7.131   7.323   1.892 -0.7439  1.8877 -0.0662
  176MOL    H7024920   7.273   7.514   1.698  0.8549 -0.7218  0.7189
  176MOL    H7124921   7.085   0.138   1.727 -1.5728 -0.2834 -0.3609
  176MOL    C7224922   7.243   0.048   1.906  0.1818 -1.0068  0.0715
  176MOL    C7324923   7.254   0.209   1.920 -0.6936 -0.5698 -0.1244
  176MOL    O7424924   7.127   0.275   1.897  0.3387  0.3792  0.0851
  176MOL    H7524925   7.166   0.017   1.977  0.1347 -0.9979  0.0245
  176MOL    H7624926   7.337   7.519   1.933 -0.5447 -2.6992 -0.3211
  176MOL    H7724927   7.311   0.244   1.834  0.9413 -1.0241  0.7401
  176MOL    H7824928   7.092   0.301   1.981  1.4490 -2.3015  1.4285
  176MOL    C7924929   7.318   0.254   2.058  0.1150 -0.6370  0.4625
  176MOL    C8024930   7.470   0.257   2.061  0.2333 -0.3140  0.2795
  176MOL    O8124931   0.006   0.367   2.120 -0.3333 -0.7321  0.4074
  176MOL    H8224932   7.288   0.359   2.061  0.5303 -0.5229  0.6971
  176MOL    H8324933   7.266   0.217   2.146 -1.2187  1.8564  0.7935
  176MOL    H8424934   7.510   0.253   1.960  0.4931  1.4497  0.2919
  176MOL    H8524935   7.478   0.378   2.201  0.6991  0.6179  0.8423
  176MOL    C8624936   0.011   0.134   2.137 -1.1598  0.2174 -0.0995
  176MOL    C8724937   0.166   0.111   2.135  0.6608  0.0705 -0.8428
  176MOL    O8824938   0.238   0.219   2.186  0.2112  0.4528 -0.1351
  176MOL    H8924939   7.487   0.128   2.237 -2.1330 -0.4866 -0.5512
  176MOL    H9024940   7.494   0.040   2.096 -0.4142 -1.0081  1.9389
  176MOL    H9124941   0.187   0.103   2.028 -2.9161  1.7336 -1.7395
  176MOL    H9224942   0.186   0.297   2.174  1.3397  1.4723  1.3509
  176MOL    C9324943   0.199   7.499   2.207 -0.1882 -0.0084  0.0780
  176MOL    C9424944   0.178   7.366   2.136  0.1580 -0.7080 -0.2706
  176MOL    O9524945   0.287   7.340   2.045 -0.3410 -0.1493 -0.3593
  176MOL    H9624946   0.300   7.504   2.246 -0.1698 -2.3166  0.3809
  176MOL    H9724947   0.142   7.485   2.299 -0.3684  1.3912  0.1895
  176MOL    H9824948   0.081   7.364   2.087  0.1013 -0.0052 -0.1949
  176MOL    H9924949   0.357   7.400   2.067  0.8709 -2.2585  1.6802
  176MOL   C10024950   0.171   7.240   2.234  0.7600 -0.1144 -0.1528
  176MOL   C10124951   0.050   7.222   2.326 -0.5871 -0.0635  0.3770
  176MOL   O10224952   7.454   7.181   2.254 -0.0086  0.1707  0.3482
  176MOL   H10324953   0.186   7.151   2.173 -0.1685  0.3276 -1.0448
  176MOL   H10424954   0.261   7.241   2.297  1.1206  0.2688 -0.6698
  176MOL   H10524955   0.012   7.320   2.356 -0.0972  1.0908 -2.5617
  176MOL   H10624956   7.380   7.211   2.304 -1.2516 -0.2157 -1.2533
  176MOL   C10724957   0.074   7.127   2.450  0.0045  0.7288 -0.5889
  176MOL   C10824958   0.167   7.193   2.554  0.0225  0.0590  0.3132
  176MOL   O10924959   0.090   7.234   2.666 -0.3607 -0.0573 -0.2281
  176MOL   H11024960   7.500   7.108   2.503  0.5273 -2.1966 -0.6336
  176MOL   H11124961   0.104   7.023   2.437  0.9335  1.2046 -2.3628
  176MOL   H11224962   0.218   7.279   2.511 -0.2797  0.3787  0.5892
  176MOL   H11324963   0.096   7.328   2.680 -1.6528  0.0058 -0.0957
  176MOL   C11424964   0.273   7.098   2.610  0.0737  0.8422  0.2812
  176MOL   C11524965   0.382   7.045   2.515 -0.1380 -0.3604  0.5216
  176MOL   O11624966   0.466   7.160   2.485  0.5882 -0.0079  0.1731
  176MOL   H11724967   0.319   7.133   2.702  0.6389  2.9450 -0.7555
  176MOL   H11824968   0.215   7.014   2.649  2.4610 -1.1332 -0.3095
  176MOL   H11924969   0.326   7.011   2.427 -0.6340  0.3509  0.5569
  176MOL   H12024970   0.520   7.136   2.411 -3.8934 -1.0442 -2.9766
  176MOL   C12124971   0.465   6.938   2.584 -0.2507  0.4014 -0.1964
  176MOL   C12224972   0.548   6.867   2.478  0.0467  0.5540 -0.6193
  176MOL   O12324973   0.627   6.770   2.558 -0.1608 -0.3051  0.0444
  176MOL   H12424974   0.514   6.984   2.670 -2.5669  0.7447  0.9901
  176MOL   H12524975   0.399   6.855   2.611 -0.3065 -0.1480 -1.9638
  176MOL   H12624976   0.613   6.935   2.422  0.2511  0.4042 -0.5636
  176MOL   H12724977   0.637   6.697   2.499  0.5258  0.7035 -1.1126
  176MOL   C12824978   0.459   6.784   2.380  0.0794  0.6606 -0.4625
  176MOL   C12924979   0.466   6.815   2.234 -0.8464  0.7189 -0.1292
  176MOL   O13024980   0.416   6.686   2.174 -0.2205 -0.6090 -0.4828
  176MOL   H13124981   0.483   6.681   2.406 -3.4726 -0.3325 -0.8242
  176MOL   H13224982   0.353   6.790   2.403  0.0988  1.1851 -0.4970
  176MOL   H13324983   0.571   6.821   2.205 -0.1765  0.1836  2.0499
  176MOL   H13424984   0.429   6.692   2.080  0.4975 -0.9728 -0.4091
  176MOL   C13524985   0.382   6.933   2.193  0.1510  0.6712 -0.1611
  176MOL   C13624986   0.377   6.954   2.043  0.2326 -0.3802  0.2441
  176MOL   O13724987   0.265   6.886   1.996 -0.1979  0.0008  0.0001
  176MOL   H13824988   0.280   6.931   2.231  0.3650 -0.0103  0.3918
  176MOL   H13924989   0.433   7.024   2.221 -1.2700  1.0729  1.1672
  176MOL   H14024990   0.469   6.925   1.992  0.0090 -0.1017 -0.3270
  176MOL   H14124991   0.190   6.901   2.052  0.9626 -0.2409  1.6632
  176MOL   H14224992   0.355   7.056   2.012 -0.5272 -0.2343  1.2409
  177MOL     C124993   4.877   5.753   4.581 -0.1528 -0.7362  0.3084
  177MOL     C224994   4.815   5.853   4.482  0.5816  0.6769  0.4059
  177MOL     O324995   4.677   5.861   4.513  0.2907  0.3330 -0.5465
  177MOL     H424996   4.813   5.666   4.597  1.5493 -2.0221  0.3184
  177MOL     H524997   4.890   5.798   4.679  1.3386 -1.4146  0.4295
  177MOL     H624998   4.828   5.814   4.381  0.3490 -1.2739  1.1113
  177MOL     H724999   4.671   5.854   4.607 -1.4778  2.1297 -0.4889
  177MOL     H825000   4.975   5.728   4.540  1.5366  2.5858  2.1139
  177MOL     C925001   4.884   5.991   4.477 -0.1673 -0.7473  0.5131
  177MOL    C1025002   5.034   6.005   4.459  0.0211 -0.7402 -1.1165
  177MOL    O1125003   5.096   5.963   4.579 -0.0532  0.4734  0.4772
  177MOL    H1225004   4.837   6.057   4.404 -0.3016 -0.6443  0.6930
  177MOL    H1325005   4.860   6.037   4.572  0.4261  2.4143 -0.7989
  177MOL    H1425006   5.059   6.111   4.466  1.4657 -1.0696 -1.1291
  177MOL    H1525007   5.135   6.037   4.623 -0.7146  0.9770  0.2312
  177MOL    C1625008   5.101   5.942   4.343 -1.2375  0.0595  0.1273
  177MOL    C1725009   5.042   5.991   4.214  0.0310  0.5301  0.3533
  177MOL    O1825010   5.058   6.134   4.192 -0.0135  0.2308  0.0993
  177MOL    H1925011   5.210   5.949   4.340 -1.2801  0.4211 -0.7777
  177MOL    H2025012   5.089   5.834   4.340 -1.7111  0.1471 -1.5561
  177MOL    H2125013   4.934   5.978   4.219  0.2245 -1.3384  0.0853
  177MOL    H2225014   5.009   6.161   4.116  0.6402  0.3350 -0.2842
  177MOL    C2325015   5.088   5.909   4.091  0.0976  0.6676 -0.1487
  177MOL    C2425016   4.992   5.796   4.055  0.5621 -0.0711  0.3735
  177MOL    O2525017   4.884   5.856   3.989  0.1243 -0.1562 -0.2700
  177MOL    H2625018   5.112   5.979   4.011 -0.7084  1.9412  0.7124
  177MOL    H2725019   5.180   5.858   4.122 -0.5191 -0.1874  0.3162
  177MOL    H2825020   4.945   5.747   4.140  0.6568 -0.1019  0.4073
  177MOL    H2925021   4.805   5.863   4.040 -0.2952 -0.7759 -0.8215
  177MOL    C3025022   5.052   5.684   3.961  0.4168 -0.4808  0.2024
  177MOL    C3125023   5.125   5.572   4.043 -0.6057  0.4008  0.1246
  177MOL    O3225024   5.052   5.453   4.024  0.5562 -0.3157 -0.0020
  177MOL    H3325025   4.958   5.646   3.921  0.7547 -0.5057 -0.5802
  177MOL    H3425026   5.109   5.721   3.875 -1.5109 -0.0997 -0.9363
  177MOL    H3525027   5.119   5.596   4.150  0.9159 -0.1918  0.3650
  177MOL    H3625028   5.080   5.416   3.942  2.0067  2.5273 -0.8459
  177MOL    C3725029   5.272   5.548   4.009 -0.0386 -0.0811  0.4579
  177MOL    C3825030   5.378   5.651   4.045  0.5484  0.0716  0.1921
  177MOL    O3925031   5.355   5.673   4.180  0.6828  0.2358  0.3785
  177MOL    H4025032   5.295   5.451   4.053 -1.3006  0.4704  2.3775
  177MOL    H4125033   5.280   5.541   3.900 -1.6653 -0.0190  0.3114
  177MOL    H4225034   5.357   5.745   3.994 -2.6551 -0.2290  0.8564
  177MOL    H4325035   5.409   5.745   4.208  1.7421  0.2969 -1.7014
  177MOL    C4425036   5.525   5.593   4.037  0.5368 -0.3291 -0.2826
  177MOL    C4525037   5.584   5.567   3.900 -0.2969 -0.1758  0.6588
  177MOL    O4625038   5.587   5.694   3.834 -0.6276 -0.1910 -0.4679
  177MOL    H4725039   5.593   5.655   4.096  1.0929 -0.9040 -0.3057
  177MOL    H4825040   5.529   5.497   4.090 -2.6601 -0.6337 -0.5156
  177MOL    H4925041   5.535   5.487   3.844 -0.3752 -0.2998  0.9065
  177MOL    H5025042   5.521   5.702   3.767 -1.8008 -0.5728  0.6106
  177MOL    C5125043   5.729   5.509   3.914 -0.5169  0.2525  0.5852
  177MOL    C5225044   5.804   5.480   3.777 -0.1618  0.4477  0.5429
  177MOL    O5325045   5.935   5.435   3.812 -0.3901 -0.0364 -0.8748
  177MOL    H5425046   5.779   5.592   3.963  0.1428 -0.5148  1.2298
  177MOL    H5525047   5.743   5.428   3.986  1.4027  0.8507  0.9204
  177MOL    H5625048   5.812   5.580   3.734 -3.5658  0.6178  0.1057
  177MOL    H5725049   5.984   5.446   3.732 -0.0473  0.6824 -0.5656
  177MOL    C5825050   5.730   5.379   3.683  0.6954  0.5509  0.0115
  177MOL    C5925051   5.656   5.251   3.745 -0.1106 -0.1854  0.0605
  177MOL    O6025052   5.556   5.200   3.657  0.7432  0.1131  0.5684
  177MOL    H6125053   5.661   5.437   3.622 -0.4240 -2.6541 -1.8674
  177MOL    H6225054   5.788   5.340   3.600 -1.4330 -0.3969 -1.0746
  177MOL    H6325055   5.600   5.272   3.836 -1.2198  2.9785 -1.2995
  177MOL    H6425056   5.467   5.231   3.665  1.0997  1.5667 -0.9005
  177MOL    C6525057   5.767   5.146   3.780 -0.0419  0.5045  0.6410
  177MOL    C6625058   5.731   5.003   3.805  0.8514  0.6623 -0.1634
  177MOL    O6725059   5.664   4.953   3.687  0.5386 -0.0190  0.3593
  177MOL    H6825060   5.851   5.152   3.711  1.0361  0.5538  1.9358
  177MOL    H6925061   5.811   5.190   3.869 -2.1406  3.4996  0.2715
  177MOL    H7025062   5.648   5.011   3.877  0.2033 -0.4041 -0.7790
  177MOL    H7125063   5.605   5.018   3.653 -0.6786 -0.0380  2.3929
  177MOL    C7225064   5.844   4.912   3.864 -0.0528 -0.1812 -0.2453
  177MOL    C7325065   5.784   4.805   3.951  0.8074  1.3285 -0.3225
  177MOL    O7425066   5.871   4.688   3.934  0.2027  0.4573  1.0841
  177MOL    H7525067   5.883   4.866   3.774  0.9929 -1.7916  1.0139
  177MOL    H7625068   5.908   4.982   3.918 -0.2248 -0.4781  0.3447
  177MOL    H7725069   5.687   4.767   3.920  0.3104 -1.1022  3.7848
  177MOL    H7825070   5.845   4.615   3.988  1.7528 -0.7351  0.2457
  177MOL    C7925071   5.788   4.844   4.102  0.5404 -0.3251 -0.3849
  177MOL    C8025072   5.680   4.949   4.140 -0.4764 -0.2516 -0.0442
  177MOL    O8125073   5.632   4.908   4.266  0.0675  0.8180  0.1529
  177MOL    H8225074   5.756   4.758   4.161  1.5971  1.5963  3.0758
  177MOL    H8325075   5.886   4.881   4.133  0.8087 -0.8758 -0.5768
  177MOL    H8425076   5.592   4.950   4.076  0.3356 -0.4723 -1.1909
  177MOL    H8525077   5.566   4.846   4.239 -0.9750  2.6393 -1.6511
  177MOL    C8625078   5.751   5.083   4.167  0.2922 -0.0062  0.4625
  177MOL    C8725079   5.660   5.206   4.198 -0.6135  0.1581 -0.3094
  177MOL    O8825080   5.584   5.242   4.089 -0.3129 -0.0559  0.1304
  177MOL    H8925081   5.822   5.072   4.249  1.0696 -0.4664 -0.2660
  177MOL    H9025082   5.819   5.120   4.091  0.3622  1.0586  1.0329
  177MOL    H9125083   5.725   5.293   4.212  1.1299 -1.0574 -0.8487
  177MOL    H9225084   5.493   5.243   4.114 -0.8085 -3.0476 -1.2867
  177MOL    C9325085   5.570   5.200   4.324 -0.2554  0.0515  0.0605
  177MOL    C9425086   5.651   5.204   4.452 -0.3727  0.4977 -0.7805
  177MOL    O9525087   5.710   5.336   4.482  0.4523 -0.2676  0.3496
  177MOL    H9625088   5.497   5.282   4.318 -0.5849 -0.4364 -3.0851
  177MOL    H9725089   5.512   5.108   4.315  0.1664 -0.5179  2.7701
  177MOL    H9825090   5.728   5.129   4.436  0.4908  1.3613 -0.7332
  177MOL    H9925091   5.721   5.380   4.399 -2.0060  1.2404  0.7941
  177MOL   C10025092   5.586   5.145   4.576  0.1875 -0.5616 -0.1625
  177MOL   C10125093   5.559   4.994   4.583 -0.1152 -0.5523  0.3917
  177MOL   O10225094   5.677   4.924   4.562 -0.1317  0.6561 -0.0409
  177MOL   H10325095   5.650   5.164   4.663 -0.8743 -0.0650  0.5137
  177MOL   H10425096   5.491   5.196   4.592  0.4272 -0.2482  0.2767
  177MOL   H10525097   5.484   4.975   4.506 -0.4571 -1.8721  1.0389
  177MOL   H10625098   5.695   4.917   4.469  0.4910  2.6270 -0.1028
  177MOL   C10725099   5.501   4.959   4.717 -0.0579  0.9209 -0.2002
  177MOL   C10825100   5.372   5.026   4.747  0.1489 -0.3361  0.5669
  177MOL   O10925101   5.272   5.004   4.647 -0.3102  0.2950  0.1581
  177MOL   H11025102   5.485   4.851   4.724  0.8020  0.8141  0.1799
  177MOL   H11125103   5.570   4.987   4.797  1.1527  2.4911 -1.7710
  177MOL   H11225104   5.389   5.132   4.763  0.0751 -0.5309  1.9566
  177MOL   H11325105   5.244   4.914   4.638  2.3949 -0.2834 -3.1339
  177MOL   C11425106   5.313   4.986   4.884  0.1077 -0.0015  0.3550
  177MOL   C11525107   5.404   4.997   5.012 -0.0249 -0.0644 -0.0782
  177MOL   O11625108   5.430   5.131   5.044  0.3254 -0.3429 -0.5344
  177MOL   H11725109   5.220   5.042   4.895 -0.0679 -0.1897 -0.1458
  177MOL   H11825110   5.274   4.885   4.875 -0.1381  0.1008  0.2506
  177MOL   H11925111   5.502   4.959   4.984 -0.1330 -0.1967 -0.2793
  177MOL   H12025112   5.360   5.166   5.097  1.4019 -1.1173  1.4399
  177MOL   C12125113   5.355   4.928   5.142 -0.4851 -0.3390 -0.5247
  177MOL   C12225114   5.340   4.776   5.136 -0.9932  0.2016  0.9658
  177MOL   O12325115   5.466   4.730   5.176  0.0767 -0.3564  0.1540
  177MOL   H12425116   5.426   4.955   5.220  0.0446 -1.5350 -0.5719
  177MOL   H12525117   5.258   4.975   5.158 -1.4806 -2.0391 -1.3953
  177MOL   H12625118   5.317   4.743   5.034  1.5540  0.2963  0.3483
  177MOL   H12725119   5.518   4.712   5.099 -1.1796 -0.0805 -0.7888
  177MOL   C12825120   5.227   4.705   5.223  0.8298 -0.0975  0.1361
  177MOL   C12925121   5.085   4.740   5.178  0.5532  0.5377 -0.2554
  177MOL   O13025122   5.075   4.740   5.040 -0.8070  0.7689 -0.4456
  177MOL   H13125123   5.243   4.597   5.212  1.1899 -0.2655  2.1690
  177MOL   H13225124   5.231   4.735   5.328 -0.1009  2.3079 -0.4911
  177MOL   H13325125   5.069   4.840   5.220  1.1674  1.1983 -1.5297
  177MOL   H13425126   5.098   4.654   5.010 -1.0166  0.8848 -0.9449
  177MOL   C13525127   4.992   4.642   5.256 -0.2451 -0.1955 -0.3433
  177MOL   C13625128   4.849   4.684   5.241 -0.0637  0.4609  0.0883
  177MOL   O13725129   4.762   4.579   5.269  0.3229 -0.1320 -0.0349
  177MOL   H13825130   5.000   4.543   5.210 -1.7496  0.0766 -1.2138
  177MOL   H13925131   5.018   4.628   5.361 -0.8689 -0.8557 -0.2728
  177MOL   H14025132   4.824   4.705   5.137 -1.2815 -1.5074 -0.0436
  177MOL   H14125133   4.746   4.576   5.362 -0.8214 -1.0083 -0.2466
  177MOL   H14225134   4.830   4.774   5.299  3.0328 -0.3274  2.4981
  178MOL     C125135   1.689   6.272   4.752 -0.3147 -0.3706 -0.3659
  178MOL     C225136   1.711   6.131   4.771 -0.2801  1.1916 -0.3585
  178MOL     O325137   1.833   6.129   4.840  0.2414  0.2437  0.3960
  178MOL     H425138   1.760   6.317   4.683  1.6746  0.3581  2.0813
  178MOL     H525139   1.713   6.326   4.843 -0.6866  0.4131 -0.7337
  178MOL     H625140   1.727   6.094   4.670 -2.4390  0.1418 -0.3334
  178MOL     H725141   1.899   6.175   4.790 -0.1683  0.4592  0.0533
  178MOL     H825142   1.590   6.301   4.717 -0.4371 -0.1129  0.1976
  178MOL     C925143   1.595   6.054   4.844  0.3298  0.4262 -0.5290
  178MOL    C1025144   1.619   5.901   4.868  0.1241 -0.0523  0.1219
  178MOL    O1125145   1.729   5.893   4.954 -0.2103  0.4931 -0.5242
  178MOL    H1225146   1.574   6.105   4.938  3.1081 -0.2462  0.5047
  178MOL    H1325147   1.500   6.063   4.792  0.5965 -3.1518 -1.7596
  178MOL    H1425148   1.646   5.846   4.778  1.2164  0.6065  0.0269
  178MOL    H1525149   1.796   5.951   4.919  2.6945 -2.3176  0.1626
  178MOL    C1625150   1.510   5.831   4.948 -0.1312  1.1667  0.3588
  178MOL    C1725151   1.475   5.691   4.906 -0.0947 -0.1627  0.0238
  178MOL    O1825152   1.385   5.644   5.008 -0.7050  0.9352  0.0655
  178MOL    H1925153   1.536   5.828   5.053 -1.7787 -0.7359  0.7374
  178MOL    H2025154   1.416   5.885   4.930 -1.2335 -0.7753  0.1188
  178MOL    H2125155   1.567   5.636   4.922  0.9710  1.7676  0.7491
  178MOL    H2225156   1.439   5.597   5.069  1.3374  0.8741 -1.7382
  178MOL    C2325157   1.404   5.676   4.770  0.4702  0.2833  0.1357
  178MOL    C2425158   1.363   5.539   4.724  0.8055 -0.2104  0.3035
  178MOL    O2525159   1.285   5.561   4.608 -0.2792  0.3366  0.2437
  178MOL    H2625160   1.320   5.747   4.774  0.3030 -0.0369  3.1843
  178MOL    H2725161   1.468   5.716   4.691  0.4226  0.7969  0.3508
  178MOL    H2825162   1.299   5.492   4.798  1.1687  0.5082  1.0784
  178MOL    H2925163   1.338   5.609   4.546  0.7407 -0.9075  0.1227
  178MOL    C3025164   1.478   5.447   4.680 -0.0573  0.0526 -0.4618
  178MOL    C3125165   1.439   5.302   4.654 -0.1207 -0.5481 -0.0892
  178MOL    O3225166   1.365   5.298   4.533  0.0556 -0.0928  0.0857
  178MOL    H3325167   1.550   5.477   4.604  0.9642 -1.7518 -0.2336
  178MOL    H3425168   1.540   5.439   4.769  2.1232 -2.2100 -2.0936
  178MOL    H3525169   1.365   5.277   4.730 -2.3357  0.7128 -1.7473
  178MOL    H3625170   1.298   5.363   4.544  0.4060  0.0069  1.6634
  178MOL    C3725171   1.545   5.191   4.664  0.8578  0.1357 -0.1259
  178MOL    C3825172   1.641   5.201   4.784 -0.1414 -0.2213  0.1688
  178MOL    O3925173   1.569   5.186   4.903 -0.1593 -0.1969 -0.4314
  178MOL    H4025174   1.496   5.094   4.666 -2.6894  1.8167 -0.0230
  178MOL    H4125175   1.606   5.209   4.576 -1.0784  2.4925 -1.0463
  178MOL    H4225176   1.694   5.296   4.786  0.0467 -0.3400  3.2125
  178MOL    H4325177   1.634   5.184   4.972  1.5966  0.1216 -2.0360
  178MOL    C4425178   1.753   5.090   4.774  0.4986  0.2426 -0.2399
  178MOL    C4525179   1.875   5.126   4.686  0.3064  0.1609 -0.3941
  178MOL    O4625180   1.933   5.243   4.740 -0.5161  0.2359 -0.6708
  178MOL    H4725181   1.782   5.077   4.878  0.2421  0.0277 -0.1939
  178MOL    H4825182   1.698   5.003   4.738  1.0449 -0.0254 -0.4191
  178MOL    H4925183   1.842   5.160   4.588  1.1289  0.3109 -0.6227
  178MOL    H5025184   1.974   5.297   4.674 -0.6744  0.2088 -0.7907
  178MOL    C5125185   1.977   5.011   4.685 -0.3560  0.3019 -0.3662
  178MOL    C5225186   1.938   4.881   4.602 -0.7271  0.3574  0.1220
  178MOL    O5325187   2.039   4.863   4.511 -0.2289 -0.0661  0.3775
  178MOL    H5425188   2.069   5.053   4.644  0.7214 -1.7400 -0.1275
  178MOL    H5525189   2.008   4.977   4.784 -0.2646  2.5536  0.3994
  178MOL    H5625190   1.849   4.913   4.548 -1.0848 -0.1359  0.4130
  178MOL    H5725191   2.047   4.773   4.482 -4.8580  0.5450 -3.4899
  178MOL    C5825192   1.910   4.754   4.683  0.7737  0.2325  0.4941
  178MOL    C5925193   1.805   4.656   4.619 -0.0957  0.9650 -0.1135
  178MOL    O6025194   1.860   4.574   4.514 -0.3971 -0.2073  0.5177
  178MOL    H6125195   2.000   4.702   4.714  0.7829 -0.9795 -1.4541
  178MOL    H6225196   1.862   4.794   4.772  0.6300  1.2544 -0.0315
  178MOL    H6325197   1.724   4.715   4.578 -0.3037 -0.2504 -1.5220
  178MOL    H6425198   1.799   4.573   4.443  1.3437 -0.2511 -1.0195
  178MOL    C6525199   1.740   4.555   4.721  0.0173 -0.3754  0.1883
  178MOL    C6625200   1.650   4.624   4.832 -0.6760 -0.0697  0.0094
  178MOL    O6725201   1.548   4.535   4.854 -0.1167 -0.0873 -0.1143
  178MOL    H6825202   1.670   4.488   4.671 -0.5280 -0.0195  0.4622
  178MOL    H6925203   1.819   4.490   4.756  0.4470  0.3054  0.4848
  178MOL    H7025204   1.615   4.722   4.800 -0.3215  0.1926  0.4198
  178MOL    H7125205   1.528   4.540   4.946 -0.1542  2.2274 -0.2048
  178MOL    C7225206   1.734   4.632   4.963 -0.4714  0.5551 -0.0549
  178MOL    C7325207   1.698   4.746   5.062  0.1903  0.1816  0.1957
  178MOL    O7425208   1.576   4.726   5.137  0.0856 -0.3893  0.2860
  178MOL    H7525209   1.726   4.536   5.013  0.7082  1.0772  1.1876
  178MOL    H7625210   1.840   4.637   4.936 -0.5409  1.3794 -0.2166
  178MOL    H7725211   1.689   4.836   5.001 -1.3138 -1.1394 -1.5597
  178MOL    H7825212   1.524   4.804   5.147 -0.6839 -0.7253 -0.9914
  178MOL    C7925213   1.808   4.764   5.166  0.5063  0.3252  0.2045
  178MOL    C8025214   1.950   4.805   5.124 -0.5607 -0.4449  0.1179
  178MOL    O8125215   1.943   4.924   5.037 -0.0141  0.2195 -0.2761
  178MOL    H8225216   1.766   4.834   5.238  0.6175  1.8325 -1.1730
  178MOL    H8325217   1.822   4.665   5.211  0.2183  0.7920  1.3608
  178MOL    H8425218   1.998   4.728   5.063 -1.6295  0.1385 -1.5119
  178MOL    H8525219   2.000   4.990   5.073  2.3143 -0.1498 -3.0849
  178MOL    C8625220   2.034   4.840   5.242  0.4103  0.0583  0.2689
  178MOL    C8725221   2.179   4.868   5.205 -0.5662 -0.0126 -0.3107
  178MOL    O8825222   2.243   4.895   5.327 -0.3301  0.0859  0.0603
  178MOL    H8925223   1.994   4.928   5.293  0.1775  0.6698 -0.9459
  178MOL    H9025224   2.033   4.761   5.318  0.3766  0.9682  1.2321
  178MOL    H9125225   2.186   4.947   5.130 -3.1192  1.1267  0.5916
  178MOL    H9225226   2.224   4.987   5.342  2.4909  0.7531 -0.2711
  178MOL    C9325227   2.261   4.749   5.149  0.3403  0.0184 -0.0280
  178MOL    C9425228   2.398   4.773   5.093 -0.0477 -0.6493  0.3345
  178MOL    O9525229   2.448   4.642   5.068 -0.1845  0.1801  0.0951
  178MOL    H9625230   2.269   4.657   5.207 -0.8130  0.1501  0.3504
  178MOL    H9725231   2.201   4.726   5.061 -0.7697  3.3422 -0.2310
  178MOL    H9825232   2.452   4.818   5.177 -0.4667 -1.4636  1.0491
  178MOL    H9925233   2.489   4.611   5.147  0.8156  0.8620 -0.1431
  178MOL   C10025234   2.401   4.855   4.967  0.5224 -0.2547  0.0840
  178MOL   C10125235   2.521   4.842   4.880 -0.0730 -0.6956 -0.5856
  178MOL   O10225236   2.473   4.891   4.756  0.0980  0.3349 -0.5974
  178MOL   H10325237   2.328   4.809   4.901 -0.0786  0.3438  0.3328
  178MOL   H10425238   2.368   4.957   4.983 -3.1196 -1.0965 -1.5023
  178MOL   H10525239   2.554   4.741   4.858  2.1656  0.0094 -0.5952
  178MOL   H10625240   2.424   4.971   4.766 -0.4281 -0.0731  0.1535
  178MOL   C10725241   2.640   4.918   4.949 -0.3895  0.5882 -0.1971
  178MOL   C10825242   2.774   4.845   4.916  0.3030  0.3549  0.0433
  178MOL   O10925243   2.793   4.837   4.780  0.3622  0.1243  0.4030
  178MOL   H11025244   2.627   5.020   4.915 -0.1295  1.2581  1.6765
  178MOL   H11125245   2.630   4.931   5.056 -0.9954 -1.3542  0.0133
  178MOL   H11225246   2.761   4.746   4.959 -0.6322  0.9592  1.1929
  178MOL   H11325247   2.746   4.904   4.732 -1.0422 -1.0458  0.1168
  178MOL   C11425248   2.894   4.920   4.982  0.3297 -0.2616 -0.3659
  178MOL   C11525249   2.936   4.842   5.104  0.8534  0.0835 -0.8145
  178MOL   O11625250   3.043   4.909   5.163  0.0303  0.6322 -0.1667
  178MOL   H11725251   2.975   4.926   4.909  0.6723 -0.6672 -0.0236
  178MOL   H11825252   2.870   5.023   5.006 -0.5192 -0.3790 -0.7090
  178MOL   H11925253   2.972   4.742   5.079 -0.4292 -0.5092 -0.3421
  178MOL   H12025254   3.126   4.868   5.142  0.4046  1.6058 -0.6449
  178MOL   C12125255   2.828   4.834   5.218 -0.7001  0.2927 -0.3660
  178MOL   C12225256   2.872   4.776   5.349  0.1415  0.7039 -0.0978
  178MOL   O12325257   2.762   4.780   5.441  0.0041  0.7911  0.1380
  178MOL   H12425258   2.791   4.932   5.247 -3.1756 -0.7958  0.2869
  178MOL   H12525259   2.743   4.777   5.183 -0.7619 -0.6099  1.1868
  178MOL   H12625260   2.938   4.857   5.381  1.0918  0.4204 -1.3124
  178MOL   H12725261   2.764   4.861   5.489 -0.2186  1.9052 -1.6945
  178MOL   C12825262   2.951   4.637   5.345  0.8896 -0.6735  0.4228
  178MOL   C12925263   3.019   4.584   5.465 -0.2496 -0.5032  0.0331
  178MOL   O13025264   3.094   4.474   5.428  0.0944 -0.5458  0.0816
  178MOL   H13125265   2.880   4.567   5.302  1.0770  1.0745 -2.9082
  178MOL   H13225266   3.027   4.646   5.267  0.0144  0.1004 -0.3503
  178MOL   H13325267   2.953   4.557   5.547 -0.4228 -1.4266 -0.3980
  178MOL   H13425268   3.141   4.452   5.507  2.3169  0.3098 -0.9569
  178MOL   C13525269   3.108   4.693   5.534 -0.1110  0.7000  0.8899
  178MOL   C13625270   3.197   4.769   5.439 -0.2157  0.0591 -0.4001
  178MOL   O13725271   3.292   4.853   5.501  0.3862  0.1589 -0.7242
  178MOL   H13825272   3.042   4.757   5.595  0.2485  2.3963 -0.4635
  178MOL   H13925273   3.181   4.660   5.609  0.6855 -0.3792 -0.3525
  178MOL   H14025274   3.143   4.839   5.375  0.8430  0.7790 -0.5278
  178MOL   H14125275   3.237   4.919   5.541  0.6417  0.0217 -0.1428
  178MOL   H14225276   3.256   4.709   5.370 -1.4957  0.4760 -1.8699
  179MOL     C125277   0.083   1.982   6.868  0.6645  0.0095  0.0071
  179MOL     C225278   7.505   2.058   6.965 -0.1987 -0.1544  0.0986
  179MOL     O325279   7.385   2.047   6.893 -0.9503  0.5482 -0.4174
  179MOL     H425280   0.183   1.991   6.910  1.2414 -0.8605 -1.1420
  179MOL     H525281   0.087   2.016   6.764 -0.8817  0.0989 -0.0450
  179MOL     H625282   0.003   2.166   6.974 -1.2742  0.0904 -0.7377
  179MOL     H725283   7.385   2.122   6.836  1.2558  0.1976 -0.8970
  179MOL     H825284   0.051   1.878   6.858 -1.8663  0.5655  1.8758
  179MOL     C925285   7.497   1.995   7.107  0.3307 -0.3071  0.0253
  179MOL    C1025286   0.102   1.994   7.197  0.4713  0.6923 -0.1044
  179MOL    O1125287   0.114   2.127   7.233  0.1647 -0.1687  0.7986
  179MOL    H1225288   7.409   2.032   7.158 -0.4554 -1.6668 -0.3293
  179MOL    H1325289   7.478   1.890   7.087  1.5783 -0.2841 -1.3985
  179MOL    H1425290   0.187   1.965   7.135  0.3706  0.6367 -0.2176
  179MOL    H1525291   0.043   2.184   7.207 -0.4308  0.0200  2.7762
  179MOL    C1625292   0.091   1.905   7.324  0.3252  0.4681 -0.1196
  179MOL    C1725293   0.227   1.891   7.398 -0.1761 -0.3825 -1.3584
  179MOL    O1825294   0.200   1.833   0.006  0.4046  0.7162  0.1211
  179MOL    H1925295   0.024   1.956   7.393  0.8998  0.4567  0.4503
  179MOL    H2025296   0.043   1.813   7.290 -2.6711  1.3668  1.5295
  179MOL    H2125297   0.262   1.992   7.422  0.9621 -0.9982 -0.3315
  179MOL    H2225298   0.156   1.751   7.507  0.2113  1.5306 -3.5345
  179MOL    C2325299   0.331   1.812   7.325 -0.3534  0.8744  0.0039
  179MOL    C2425300   0.475   1.880   7.328 -0.3648  0.0988  0.2248
  179MOL    O2525301   0.572   1.774   7.305  0.6230 -0.1825  0.7611
  179MOL    H2625302   0.335   1.710   7.365 -2.6008  1.3494  1.4701
  179MOL    H2725303   0.313   1.799   7.219 -0.7322 -0.7235  0.2453
  179MOL    H2825304   0.500   1.921   7.426  1.3003 -1.4379  0.4647
  179MOL    H2925305   0.548   1.693   7.347  4.2432 -1.3336  0.7852
  179MOL    C3025306   0.516   1.973   7.218  0.5122 -0.7508  0.0486
  179MOL    C3125307   0.459   2.117   7.236  0.8094 -0.6685  0.0761
  179MOL    O3225308   0.503   2.186   7.349 -0.0998 -0.0261  0.0338
  179MOL    H3325309   0.624   1.975   7.203  0.4893 -1.2535 -0.1736
  179MOL    H3425310   0.471   1.938   7.125 -0.0312  1.2770 -0.4685
  179MOL    H3525311   0.354   2.116   7.263  0.2245  0.1790 -2.0282
  179MOL    H3625312   0.441   2.256   7.365  0.4255 -0.2091  3.4166
  179MOL    C3725313   0.467   2.214   7.114 -0.2566  0.4973  0.0517
  179MOL    C3825314   0.600   2.229   7.038 -1.0623  0.2020 -0.0312
  179MOL    O3925315   0.568   2.321   6.942  0.0144 -0.3204  0.6298
  179MOL    H4025316   0.400   2.173   7.038 -0.9690 -2.0133  1.9441
  179MOL    H4125317   0.418   2.309   7.136  0.9880  1.0826  0.3402
  179MOL    H4225318   0.635   2.141   6.983  0.7694  1.0187 -0.2024
  179MOL    H4325319   0.546   2.277   6.861 -2.5796 -0.7031  1.4958
  179MOL    C4425320   0.721   2.291   7.115 -0.0564 -0.0371 -1.0643
  179MOL    C4525321   0.799   2.193   7.207 -0.0019  0.2060 -0.2759
  179MOL    O4625322   0.841   2.081   7.137 -0.6385 -0.4506 -0.1135
  179MOL    H4725323   0.796   2.318   7.040  2.2672 -0.6058  1.0021
  179MOL    H4825324   0.684   2.368   7.182  0.2978 -1.7572  1.1515
  179MOL    H4925325   0.742   2.161   7.295  0.1045 -0.5655 -0.4777
  179MOL    H5025326   0.848   2.011   7.201  1.2859 -0.1550  0.0589
  179MOL    C5125327   0.926   2.262   7.256  0.0197  0.1979  0.7941
  179MOL    C5225328   0.909   2.367   7.373 -0.3803  0.4120 -1.0374
  179MOL    O5325329   1.036   2.368   7.436 -0.1123 -0.2277 -0.1949
  179MOL    H5425330   0.991   2.184   7.295  0.7376  0.9367  1.0857
  179MOL    H5525331   0.984   2.295   7.170 -2.6990 -1.4930 -1.7916
  179MOL    H5625332   0.824   2.331   7.429  0.6959 -0.5649 -0.0174
  179MOL    H5725333   1.020   2.306   7.506  2.5070  0.3384  0.9512
  179MOL    C5825334   0.885   2.514   7.334 -0.6425  0.0759  0.1733
  179MOL    C5925335   0.825   2.585   7.459  0.1089  0.2066 -0.2800
  179MOL    O6025336   0.836   2.716   7.420 -0.3934 -0.2725 -0.4188
  179MOL    H6125337   0.971   2.557   7.282  0.4381  0.8245  2.5144
  179MOL    H6225338   0.814   2.528   7.253 -0.9092 -0.8588  0.2430
  179MOL    H6325339   0.886   2.560   0.027  1.4264 -2.3886 -1.8930
  179MOL    H6425340   0.885   2.760   7.489  0.5895  0.4094 -1.5357
  179MOL    C6525341   0.677   2.550   7.477 -0.4802  0.3180 -0.0641
  179MOL    C6625342   0.602   2.627   0.070 -0.8420  0.2900 -0.0121
  179MOL    O6725343   0.462   2.614   0.047  0.2978  0.1131  0.0237
  179MOL    H6825344   0.614   2.573   7.391 -0.1702  0.5286 -0.2374
  179MOL    H6925345   0.662   2.445   7.503  1.9718 -0.2031 -0.6685
  179MOL    H7025346   0.625   2.733   0.063 -2.8603  0.6783 -1.5051
  179MOL    H7125347   0.432   2.686   0.100 -2.1961 -1.1029  0.3374
  179MOL    C7225348   0.635   2.587   0.217  0.4935  0.3959  0.1794
  179MOL    C7325349   0.620   2.690   0.329 -0.1852  0.4635 -0.0794
  179MOL    O7425350   0.482   2.715   0.350  0.2142  0.2941 -0.2611
  179MOL    H7525351   0.578   2.502   0.256  0.7681  0.1531  0.0551
  179MOL    H7625352   0.742   2.570   0.209  0.6059  0.7546  0.8416
  179MOL    H7725353   0.672   2.782   0.305 -0.1158  0.3627 -0.3196
  179MOL    H7825354   0.472   2.758   0.434 -0.2681  1.5036 -0.9234
  179MOL    C7925355   0.678   2.639   0.464  0.1265 -0.7480 -0.7565
  179MOL    C8025356   0.664   2.748   0.578 -0.4150  0.0876 -0.8261
  179MOL    O8125357   0.533   2.772   0.625 -0.2716  0.0362  0.0518
  179MOL    H8225358   0.637   2.546   0.501  0.5974 -0.1525  1.3316
  179MOL    H8325359   0.784   2.622   0.445  0.0476 -0.1254 -1.8263
  179MOL    H8425360   0.711   2.842   0.548  0.8084 -0.1787  0.2088
  179MOL    H8525361   0.533   2.818   0.708 -0.9042 -0.6514  0.4401
  179MOL    C8625362   0.739   2.685   0.702 -1.0291  0.0271 -0.3371
  179MOL    C8725363   0.780   2.779   0.821  0.1614 -0.2810 -0.4322
  179MOL    O8825364   0.664   2.843   0.865 -0.2171 -0.5083 -0.2229
  179MOL    H8925365   0.670   2.608   0.737  0.0294 -0.5814  0.4593
  179MOL    H9025366   0.827   2.628   0.670 -0.8329  0.5465 -0.7234
  179MOL    H9125367   0.832   2.865   0.780 -0.0125 -0.0475 -0.1647
  179MOL    H9225368   0.620   2.775   0.913  2.0935 -1.4438  0.6289
  179MOL    C9325369   0.856   2.711   0.934  0.3136 -0.3728  0.1220
  179MOL    C9425370   1.006   2.697   0.913  0.1706  0.5700 -0.0798
  179MOL    O9525371   1.067   2.824   0.936  0.2814 -0.1559 -0.1919
  179MOL    H9625372   0.843   2.756   1.033  0.5394 -1.3783  0.6148
  179MOL    H9725373   0.811   2.614   0.955 -0.5184 -0.3389 -1.4004
  179MOL    H9825374   1.024   2.654   0.815  2.9650  1.1779  0.1309
  179MOL    H9925375   1.159   2.812   0.915  0.4636 -0.1317  0.5716
  179MOL   C10025376   1.054   2.608   1.021 -0.4243  0.2543  0.5448
  179MOL   C10125377   1.012   2.456   1.028 -0.5769 -0.9009  0.2287
  179MOL   O10225378   1.051   2.377   0.916 -0.1437 -0.3067  0.3334
  179MOL   H10325379   1.162   2.610   1.040 -0.2535  1.5829 -0.4741
  179MOL   H10425380   1.018   2.655   1.113  0.0819 -2.1538  2.0282
  179MOL   H10525381   0.904   2.448   1.037 -0.6501 -0.6950 -0.4609
  179MOL   H10625382   1.003   2.417   0.845 -0.1319 -1.6700 -0.4596
  179MOL   C10725383   1.079   2.387   1.150  0.0728  0.2150  0.4142
  179MOL   C10825384   0.991   2.273   1.208  0.2656 -0.6616  0.4251
  179MOL   O10925385   0.965   2.174   1.107 -0.2722  0.1158  0.0322
  179MOL   H11025386   1.184   2.365   1.132 -0.0440 -0.6302  0.7442
  179MOL   H11125387   1.085   2.458   1.233 -2.1972 -0.8599  1.5542
  179MOL   H11225388   0.900   2.319   1.248  1.4877  1.1001  1.2106
  179MOL   H11325389   1.015   2.203   1.032 -2.4651  1.2241 -1.0614
  179MOL   C11425390   1.051   2.191   1.324  0.0956 -0.3299  0.0880
  179MOL   C11525391   1.035   2.260   1.468 -0.4162  0.6710 -0.0521
  179MOL   O11625392   0.896   2.274   1.494  0.6624  0.1597 -0.4715
  179MOL   H11725393   1.007   2.092   1.332  1.1547 -0.6649  2.1508
  179MOL   H11825394   1.154   2.167   1.295  0.0651  1.4727 -1.6284
  179MOL   H11925395   1.089   2.354   1.462  0.6501 -0.0524 -2.4809
  179MOL   H12025396   0.848   2.203   1.456  1.0820 -0.4128  0.0639
  179MOL   C12125397   1.095   2.185   1.587  0.2687  0.2582  0.2222
  179MOL   C12225398   1.086   2.268   1.726  0.1743  0.0462 -0.3037
  179MOL   O12325399   0.960   2.322   1.761 -0.3695 -0.0541  0.3445
  179MOL   H12425400   1.038   2.094   1.600  1.3189 -0.4512 -0.0550
  179MOL   H12525401   1.203   2.172   1.573  0.4214  1.7522 -0.0814
  179MOL   H12625402   1.150   2.356   1.722 -0.4785  0.5489  0.1113
  179MOL   H12725403   0.906   2.300   1.686  0.0678 -0.1103  0.0452
  179MOL   C12825404   1.140   2.187   1.845 -0.1648  0.2152  0.4938
  179MOL   C12925405   1.286   2.126   1.836  0.0298  0.0194 -0.7530
  179MOL   O13025406   1.370   2.239   1.840 -0.6708  0.8418 -0.1100
  179MOL   H13125407   1.130   2.238   1.940 -0.8711 -3.7368  2.6440
  179MOL   H13225408   1.073   2.102   1.849  0.9640 -0.6585  0.9787
  179MOL   H13325409   1.293   2.070   1.742  0.0840  0.0375 -0.7599
  179MOL   H13425410   1.371   2.289   1.760  0.8861  0.2969 -0.4494
  179MOL   C13525411   1.322   2.034   1.960 -0.3253 -0.0967 -0.4377
  179MOL   C13625412   1.462   1.983   1.946  0.3714 -0.0637  0.0112
  179MOL   O13725413   1.497   1.893   2.054 -0.0712  0.6760  0.9513
  179MOL   H13825414   1.318   2.088   2.055 -0.0772  0.0693 -0.5210
  179MOL   H13925415   1.250   1.954   1.979  1.7938 -1.9503 -0.0490
  179MOL   H14025416   1.536   2.063   1.948  1.1171 -0.7580  0.5877
  179MOL   H14125417   1.493   1.953   2.127 -2.0961  0.9534  0.6487
  179MOL   H14225418   1.476   1.943   1.845  0.2793 -2.1355  0.7881
  180MOL     C125419   2.618   2.931   0.432 -0.2837  0.3204 -0.1416
  180MOL     C225420   2.546   2.990   0.314  0.1236  0.2595 -0.2466
  180MOL     O325421   2.487   3.108   0.355 -0.3832  0.6315  0.0649
  180MOL     H425422   2.703   2.991   0.463 -0.9581  0.2117  2.0263
  180MOL     H525423   2.660   2.837   0.396 -0.4538  0.8114 -1.6611
  180MOL     H625424   2.474   2.915   0.280 -0.1839 -0.8473  2.7684
  180MOL     H725425   2.405   3.088   0.399 -0.9494 -0.0195 -1.2449
  180MOL     H825426   2.552   2.913   0.518 -1.3357 -1.1848 -1.2342
  180MOL     C925427   2.638   3.030   0.193 -0.0287  0.1128  0.0997
  180MOL    C1025428   2.703   2.921   0.109  0.2350 -0.9803 -0.9068
  180MOL    O1125429   2.606   2.893   0.005 -0.2275  0.3565  0.4384
  180MOL    H1225430   2.590   3.090   0.115 -0.5666 -0.5614 -0.0930
  180MOL    H1325431   2.713   3.099   0.232 -0.4125  1.5116 -1.5798
  180MOL    H1425432   2.712   2.834   0.173  1.1965  1.4045  2.3526
  180MOL    H1525433   2.649   2.835   7.464 -0.5051  0.2450  0.3462
  180MOL    C1625434   2.842   2.953   0.044 -0.5061  0.0940 -0.0996
  180MOL    C1725435   2.957   2.970   0.143  0.0135  0.3173  0.2271
  180MOL    O1825436   2.977   2.845   0.211 -0.8708 -0.5320 -0.3216
  180MOL    H1925437   2.870   2.875   7.492  0.0948 -0.0299  0.2716
  180MOL    H2025438   2.834   3.046   7.508 -1.7754  0.8493  1.3168
  180MOL    H2125439   2.929   3.045   0.216  1.6125 -0.2679  1.4883
  180MOL    H2225440   2.949   2.864   0.300  0.1577  0.2504 -0.1486
  180MOL    C2325441   3.087   3.012   0.069 -0.5702  0.2702 -0.9091
  180MOL    C2425442   3.149   3.143   0.118 -0.0524  0.1740 -0.0451
  180MOL    O2525443   3.265   3.116   0.195  0.6532  0.0577 -0.2274
  180MOL    H2625444   3.159   2.934   0.095 -2.3197 -0.5053  1.7744
  180MOL    H2725445   3.082   3.001   7.480 -0.4291 -0.0585 -0.8825
  180MOL    H2825446   3.076   3.206   0.168  0.8430  0.5263  0.8199
  180MOL    H2925447   3.302   3.195   0.232  0.2867 -0.2856  0.8749
  180MOL    C3025448   3.193   3.246   0.012 -0.5094  0.2652 -0.1803
  180MOL    C3125449   3.088   3.318   7.442 -1.0439  1.1595 -0.0293
  180MOL    O3225450   3.003   3.403   0.000  0.1745 -0.1572  0.1609
  180MOL    H3325451   3.261   3.322   0.050 -2.4363  2.6167 -1.3665
  180MOL    H3425452   3.261   3.190   7.467  1.0412  0.2882  1.3987
  180MOL    H3525453   3.027   3.242   7.394 -1.0417  0.5000  0.9800
  180MOL    H3625454   2.954   3.453   7.455 -0.3451  0.4064  0.9745
  180MOL    C3725455   3.140   3.410   7.331  0.2002 -0.4589  0.0769
  180MOL    C3825456   3.048   3.456   7.220 -0.4291  0.8256  0.4254
  180MOL    O3925457   2.959   3.559   7.258 -0.0779 -0.4071  0.0729
  180MOL    H4025458   3.194   3.492   7.377  0.3709 -0.7799  0.4476
  180MOL    H4125459   3.224   3.364   7.279  1.0646  1.5038 -0.2942
  180MOL    H4225460   2.985   3.372   7.189 -0.9317  0.9993  0.9697
  180MOL    H4325461   2.905   3.578   7.182  1.9062 -0.0070 -1.2762
  180MOL    C4425462   3.136   3.500   7.100  0.4475  0.3944 -0.3340
  180MOL    C4525463   3.191   3.380   7.017  0.9488  0.3364 -0.8553
  180MOL    O4625464   3.097   3.295   6.952 -0.6986  0.2143 -0.1884
  180MOL    H4725465   3.078   3.568   7.038  1.4218 -0.3468 -2.0737
  180MOL    H4825466   3.215   3.559   7.146 -0.1172 -0.9916  2.5560
  180MOL    H4925467   3.235   3.308   7.085  2.4777  0.6131 -1.5106
  180MOL    H5025468   3.047   3.345   6.889  1.0296  1.5569 -0.5393
  180MOL    C5125469   3.288   3.434   6.922 -0.3706 -0.3320 -0.2390
  180MOL    C5225470   3.356   3.334   6.821  0.5626 -0.2890 -0.0346
  180MOL    O5325471   3.372   3.405   6.702 -0.5982  0.1163 -0.0776
  180MOL    H5425472   3.223   3.498   6.862  0.4215  1.9487  1.2572
  180MOL    H5525473   3.364   3.502   6.963 -1.2493  0.8154 -0.4784
  180MOL    H5625474   3.296   3.246   6.798  0.2271 -0.6729  2.2233
  180MOL    H5725475   3.325   3.361   6.633  1.3820 -2.7883  0.3343
  180MOL    C5825476   3.492   3.293   6.863 -0.0184 -0.2067  0.4076
  180MOL    C5925477   3.480   3.178   6.968  0.3238 -0.4226  0.1217
  180MOL    O6025478   3.488   3.053   6.901  0.5766 -0.3211  0.0616
  180MOL    H6125479   3.553   3.266   6.777 -1.6685  1.2630 -1.2729
  180MOL    H6225480   3.543   3.378   6.908  3.0220 -1.3899 -0.7142
  180MOL    H6325481   3.393   3.174   7.034  0.6267 -1.8656  0.4592
  180MOL    H6425482   3.461   2.980   6.954  0.8375 -0.2880  0.2462
  180MOL    C6525483   3.597   3.184   7.066  0.4585  0.6056 -0.4057
  180MOL    C6625484   3.580   3.293   7.180 -0.3911  0.7654  0.0543
  180MOL    O6725485   3.486   3.248   7.275  0.3519  0.2369 -0.2862
  180MOL    H6825486   3.619   3.092   7.121 -1.1647  0.7679  0.5472
  180MOL    H6925487   3.683   3.196   7.001 -0.3063 -3.6170 -2.3029
  180MOL    H7025488   3.528   3.373   7.126 -1.6593 -0.7720 -1.0536
  180MOL    H7125489   3.537   3.184   7.323 -0.1149 -1.2194 -1.6588
  180MOL    C7225490   3.713   3.354   7.240  0.2428  0.5569 -0.3651
  180MOL    C7325491   3.792   3.459   7.144 -0.8428  0.0142 -0.2978
  180MOL    O7425492   3.839   3.569   7.223 -0.2609  0.2670  0.3794
  180MOL    H7525493   3.704   3.398   7.339 -1.8880 -1.1683  0.2658
  180MOL    H7625494   3.778   3.268   7.255 -0.8224  0.0149  1.2599
  180MOL    H7725495   3.722   3.502   7.071 -1.1100  1.2401  0.6776
  180MOL    H7825496   3.864   3.532   7.306 -1.1391  0.1908  0.6113
  180MOL    C7925497   3.909   3.411   7.055 -0.9920  0.2869  0.5918
  180MOL    C8025498   3.958   3.507   6.946  0.6500 -0.2833  0.0682
  180MOL    O8125499   4.031   3.617   7.013  0.2615 -0.1850  0.1352
  180MOL    H8225500   3.986   3.382   7.127  0.4529  1.8723 -0.2673
  180MOL    H8325501   3.887   3.312   7.016 -2.5446  0.9390 -0.2205
  180MOL    H8425502   3.872   3.543   6.891  2.7978  3.1075 -1.1632
  180MOL    H8525503   3.963   3.644   7.073 -0.3351  1.6447 -1.3423
  180MOL    C8625504   4.057   3.442   6.848 -0.0849 -0.1362 -1.0797
  180MOL    C8725505   4.095   3.524   6.721  0.5390  0.0937  0.3760
  180MOL    O8825506   4.127   3.660   6.755  0.3342 -0.8606  0.5763
  180MOL    H8925507   4.149   3.420   6.903 -0.7179 -0.2704 -0.0698
  180MOL    H9025508   4.018   3.344   6.821 -0.7551 -1.1391  3.1609
  180MOL    H9125509   4.007   3.521   6.657  1.4745 -0.7058 -0.9247
  180MOL    H9225510   4.064   3.704   6.810  0.8659 -0.3844  0.8141
  180MOL    C9325511   4.217   3.462   6.651 -0.5970  1.1122 -0.4184
  180MOL    C9425512   4.238   3.519   6.508  0.6167  0.5289  0.1122
  180MOL    O9525513   4.375   3.488   6.484  0.5713  0.3743 -0.2719
  180MOL    H9625514   4.309   3.474   6.708 -0.0344 -2.2258 -0.5115
  180MOL    H9725515   4.187   3.357   6.647 -0.9057  1.0655  2.2741
  180MOL    H9825516   4.212   3.625   6.503  0.3658  0.4710  0.1749
  180MOL    H9925517   4.418   3.529   6.557  1.1342  1.4131 -1.1723
  180MOL   C10025518   4.138   3.446   6.413 -0.0957 -0.5803 -0.0616
  180MOL   C10125519   4.148   3.491   6.263  0.2583 -0.3880  0.3091
  180MOL   O10225520   4.275   3.456   6.218 -0.1851  0.2480 -0.7722
  180MOL   H10325521   4.150   3.337   6.405 -0.8498 -0.6810  0.1532
  180MOL   H10425522   4.040   3.464   6.457 -0.2893 -0.2106 -0.6359
  180MOL   H10525523   4.150   3.599   6.269  2.5042 -0.2254 -2.3361
  180MOL   H10625524   4.332   3.484   6.288  0.1110  1.6709 -1.5587
  180MOL   C10725525   4.029   3.449   6.169  0.2720  0.4547 -0.4477
  180MOL   C10825526   4.047   3.529   6.039  0.2044 -0.5741 -0.3662
  180MOL   O10925527   3.965   3.469   5.933  0.4890  0.1439 -0.3609
  180MOL   H11025528   4.027   3.341   6.159  1.2024  0.1066  2.6422
  180MOL   H11125529   3.930   3.464   6.212  0.6897  0.6103  0.4841
  180MOL   H11225530   4.150   3.524   6.003 -0.0431  1.9382 -1.5350
  180MOL   H11325531   3.981   3.377   5.917  0.7166  0.5179 -2.3906
  180MOL   C11425532   4.004   3.677   6.038 -0.1113  0.0485 -0.1054
  180MOL   C11525533   3.870   3.727   6.099 -0.5609  0.0189  0.2391
  180MOL   O11625534   3.848   3.698   6.233 -0.0746  0.4913  0.2922
  180MOL   H11725535   4.089   3.732   6.078  1.6000 -1.2997 -1.7824
  180MOL   H11825536   4.011   3.695   5.931 -1.6538 -1.8905 -0.5748
  180MOL   H11925537   3.793   3.673   6.043 -1.2981 -0.2980  1.5361
  180MOL   H12025538   3.806   3.774   6.270  1.0429  0.9744  0.5851
  180MOL   C12125539   3.857   3.878   6.091 -0.3100 -0.2879  0.2610
  180MOL   C12225540   3.713   3.951   6.114 -0.3178  0.8493 -0.4450
  180MOL   O12325541   3.690   3.951   6.252 -0.1302  0.6756  0.1952
  180MOL   H12425542   3.931   3.917   6.161  0.1138 -0.5220 -0.0547
  180MOL   H12525543   3.899   3.893   5.992  0.0677 -2.5980  0.0506
  180MOL   H12625544   3.641   3.888   6.061 -1.3729  0.7450  1.1019
  180MOL   H12725545   3.603   3.986   6.267  0.9235  3.1804  0.6918
  180MOL   C12825546   3.718   4.102   6.069  0.1858 -0.2780 -0.1014
  180MOL   C12925547   3.707   4.111   5.915 -0.5043 -0.4838 -0.2507
  180MOL   O13025548   3.584   4.054   5.872  0.5659  0.0543  0.5557
  180MOL   H13125549   3.634   4.153   6.115 -1.2710  1.1326 -4.1270
  180MOL   H13225550   3.809   4.151   6.105 -0.1714 -0.1329  0.6079
  180MOL   H13325551   3.780   4.042   5.873  2.1417  1.7177  0.5807
  180MOL   H13425552   3.593   4.086   5.783 -1.1815  3.0057  1.3623
  180MOL   C13525553   3.724   4.240   5.842  0.2040  0.0356  0.7239
  180MOL   C13625554   3.872   4.281   5.836 -0.3553 -0.0181  0.6031
  180MOL   O13725555   3.890   4.407   5.782  0.3012  0.1201 -0.1827
  180MOL   H13825556   3.685   4.226   5.741  0.4700  2.1214  0.3139
  180MOL   H13925557   3.672   4.323   5.891 -1.9083 -0.5465 -0.4317
  180MOL   H14025558   3.933   4.211   5.778 -0.3510 -2.7956  3.8288
  180MOL   H14125559   3.983   4.422   5.791  0.2857 -1.6754  3.5403
  180MOL   H14225560   3.924   4.277   5.932 -0.6844 -0.6046  0.7529
  181MOL     C125561   4.935   3.188   5.028 -0.3910  0.6208 -0.2024
  181MOL     C225562   5.085   3.217   4.997  0.1165  0.2667 -0.5543
  181MOL     O325563   5.155   3.195   5.116  0.0572 -0.1408  0.2891
  181MOL     H425564   4.894   3.109   4.965 -2.5072  1.9168 -0.4855
  181MOL     H525565   4.887   3.281   4.998 -1.7660  0.1014  0.3461
  181MOL     H625566   5.098   3.311   4.943 -0.7375  1.3161  1.0450
  181MOL     H725567   5.155   3.275   5.167  2.2893  2.2953 -3.3389
  181MOL     H825568   4.918   3.174   5.135 -0.8638  0.9583 -0.2340
  181MOL     C925569   5.145   3.105   4.904  0.5500 -0.3011  0.2620
  181MOL    C1025570   5.296   3.118   4.859  0.1150  0.0701  0.4143
  181MOL    O1125571   5.380   3.098   4.972 -0.3435 -0.0580 -0.1649
  181MOL    H1225572   5.130   3.002   4.937 -0.2069  0.0727  1.1287
  181MOL    H1325573   5.087   3.117   4.813  0.8586 -1.8769 -0.1494
  181MOL    H1425574   5.304   3.217   4.814 -0.7254  0.6537  1.5167
  181MOL    H1525575   5.338   3.148   5.039  0.2540  0.6606 -0.3252
  181MOL    C1625576   5.343   3.008   4.765 -0.1088  0.1046  0.6459
  181MOL    C1725577   5.493   3.018   4.717 -0.2018  0.4231  0.0328
  181MOL    O1825578   5.584   2.984   4.822 -0.4093 -0.2934 -0.1181
  181MOL    H1925579   5.333   2.905   4.798  0.6059 -0.6021 -1.2973
  181MOL    H2025580   5.267   3.010   4.686  0.9945 -3.4584 -0.5873
  181MOL    H2125581   5.516   3.122   4.696  1.3515  0.2833  0.9714
  181MOL    H2225582   5.543   3.017   4.900 -0.9875 -0.9320 -0.1471
  181MOL    C2325583   5.530   2.920   4.594 -0.1744 -0.7659 -0.7320
  181MOL    C2425584   5.434   2.920   4.475  0.8810  0.7558  0.5001
  181MOL    O2525585   5.406   3.049   4.418  0.2400  0.2286 -0.3376
  181MOL    H2625586   5.626   2.944   4.549 -1.4549  0.9472 -2.6386
  181MOL    H2725587   5.533   2.818   4.632  2.1743 -0.9601 -1.3520
  181MOL    H2825588   5.341   2.871   4.505  1.2614  0.1040  0.6278
  181MOL    H2925589   5.474   3.073   4.357 -2.3309  2.4734 -2.3937
  181MOL    C3025590   5.494   2.836   4.361  0.2677 -0.2279 -0.2354
  181MOL    C3125591   5.405   2.786   4.236 -0.4274 -0.6941 -0.4800
  181MOL    O3225592   5.332   2.895   4.173 -0.1565 -0.3474  0.0184
  181MOL    H3325593   5.586   2.888   4.334 -0.5147  1.9121  1.1248
  181MOL    H3425594   5.531   2.748   4.415  0.8893 -0.2326 -0.6690
  181MOL    H3525595   5.337   2.713   4.281  0.2203 -1.2576 -0.3881
  181MOL    H3625596   5.257   2.917   4.227  0.4975 -0.5669  1.0245
  181MOL    C3725597   5.486   2.696   4.141 -1.2244 -0.3280 -0.3276
  181MOL    C3825598   5.392   2.604   4.063 -0.2739 -0.1679  0.7718
  181MOL    O3925599   5.456   2.562   3.936  0.2906  0.7299 -0.0151
  181MOL    H4025600   5.541   2.760   4.073 -1.0256  0.7992  0.8860
  181MOL    H4125601   5.565   2.646   4.197 -1.9604 -2.3029 -1.0065
  181MOL    H4225602   5.303   2.657   4.028 -0.5730 -0.8408  0.5075
  181MOL    H4325603   5.543   2.530   3.956 -1.0201 -2.0241  1.4867
  181MOL    C4425604   5.331   2.481   4.132 -0.3672 -0.1437  0.3470
  181MOL    C4525605   5.410   2.409   4.240 -0.1441  0.6653  1.0306
  181MOL    O4625606   5.316   2.313   4.302 -0.8756 -0.2221  0.9472
  181MOL    H4725607   5.232   2.511   4.167 -0.8358  0.6813 -1.6147
  181MOL    H4825608   5.307   2.413   4.050 -2.4569  1.0122 -0.0295
  181MOL    H4925609   5.440   2.490   4.306 -0.7490  1.9058 -0.1658
  181MOL    H5025610   5.331   2.316   4.395  1.1963  0.7261  0.6138
  181MOL    C5125611   5.536   2.340   4.183 -1.2634  0.5785  0.2878
  181MOL    C5225612   5.639   2.277   4.286  0.4028 -0.5343  0.7062
  181MOL    O5325613   5.740   2.232   4.213 -0.2165  0.0619  0.4810
  181MOL    H5425614   5.504   2.267   4.109  1.6070  2.1119 -2.5922
  181MOL    H5525615   5.593   2.416   4.130  1.4527  0.1215  2.3922
  181MOL    H5625616   5.592   2.188   4.327  0.1191 -2.2986 -3.2643
  181MOL    H5725617   5.750   2.138   4.226 -0.6684  0.0938  1.0852
  181MOL    C5825618   5.683   2.386   4.398 -0.7293  0.0778 -0.1842
  181MOL    C5925619   5.772   2.330   4.513  0.5063  0.1252  0.2213
  181MOL    O6025620   5.802   2.450   4.579 -0.3926  0.0106  0.1653
  181MOL    H6125621   5.739   2.466   4.350  0.5636  0.9213  2.6245
  181MOL    H6225622   5.596   2.431   4.445 -0.5883  0.8785 -0.6974
  181MOL    H6325623   5.865   2.291   4.470  0.8284  1.8623 -0.6914
  181MOL    H6425624   5.895   2.457   4.596 -0.0941 -3.4736  0.2692
  181MOL    C6525625   5.701   2.217   4.598 -0.3549  0.3539  0.8778
  181MOL    C6625626   5.730   2.073   4.552  0.0260 -0.0724  0.5913
  181MOL    O6725627   5.867   2.051   4.575  0.8912  0.0353 -0.1998
  181MOL    H6825628   5.723   2.224   4.704  0.3663 -3.2042  1.0383
  181MOL    H6925629   5.595   2.242   4.588 -1.4224 -3.7949  0.7974
  181MOL    H7025630   5.715   2.060   4.445  1.2220  0.4824  0.3465
  181MOL    H7125631   5.894   1.971   4.532  2.1837  0.1699  0.3398
  181MOL    C7225632   5.640   1.969   4.616  0.8849  0.3839  0.2250
  181MOL    C7325633   5.609   1.836   4.537 -0.7170  0.1199 -0.3560
  181MOL    O7425634   5.536   1.752   4.618 -0.6095 -0.4094 -0.5408
  181MOL    H7525635   5.659   1.943   4.720 -0.4443 -2.6121 -0.2315
  181MOL    H7625636   5.545   2.021   4.627  1.6360  1.7742  0.3294
  181MOL    H7725637   5.704   1.784   4.526 -1.5292 -1.1261 -1.8484
  181MOL    H7825638   5.519   1.681   4.558 -1.8797 -0.4682 -0.1289
  181MOL    C7925639   5.533   1.845   4.400 -0.0026  0.2854 -0.2965
  181MOL    C8025640   5.559   1.734   4.291  0.7292 -0.5596  0.6561
  181MOL    O8125641   5.511   1.619   4.355  0.1833 -0.3335 -0.5611
  181MOL    H8225642   5.426   1.848   4.417 -0.1905  0.4745 -1.4842
  181MOL    H8325643   5.564   1.930   4.340  0.8555 -1.3900 -2.2892
  181MOL    H8425644   5.666   1.723   4.271  0.7119  1.3732 -0.6357
  181MOL    H8525645   5.421   1.608   4.327  0.0789  0.2400 -0.4511
  181MOL    C8625646   5.488   1.754   4.155 -0.1402 -0.0101  0.0273
  181MOL    C8725647   5.525   1.876   4.072 -0.2495  0.4843 -0.1554
  181MOL    O8825648   5.666   1.875   4.059  0.1790  0.1598 -0.9104
  181MOL    H8925649   5.479   1.669   4.087 -0.3790 -1.0740  1.3655
  181MOL    H9025650   5.384   1.772   4.180  0.2401 -0.2285  1.7943
  181MOL    H9125651   5.503   1.970   4.123  2.7691  1.9645 -1.4040
  181MOL    H9225652   5.695   1.936   3.993  0.8854  1.7745  0.8708
  181MOL    C9325653   5.461   1.874   3.930 -0.0651  0.0270 -0.1623
  181MOL    C9425654   5.392   2.000   3.892  0.0059 -0.8706  0.1998
  181MOL    O9525655   5.337   1.974   3.761  0.2126  0.4828  0.1130
  181MOL    H9625656   5.536   1.837   3.860  2.1740 -0.1450  2.2680
  181MOL    H9725657   5.384   1.798   3.938 -1.0007  1.1267  1.5505
  181MOL    H9825658   5.465   2.081   3.890  1.0690 -1.6747  3.3842
  181MOL    H9925659   5.308   2.057   3.728 -0.6272  0.3802  0.5654
  181MOL   C10025660   5.283   2.055   3.988 -0.4909  0.4083  0.3923
  181MOL   C10125661   5.149   1.976   3.999  0.5267  0.3380  0.2755
  181MOL   O10225662   5.156   1.844   4.044  0.4398 -0.3094 -0.4649
  181MOL   H10325663   5.325   2.059   4.089  1.8398 -0.5087 -0.4989
  181MOL   H10425664   5.253   2.157   3.966 -1.0111 -0.1556 -1.6416
  181MOL   H10525665   5.105   1.981   3.899 -1.4519  0.9581  1.1555
  181MOL   H10625666   5.128   1.797   3.967 -1.1500  1.8847 -1.2869
  181MOL   C10725667   5.045   2.040   4.087 -0.4378 -0.3017 -1.1634
  181MOL   C10825668   5.001   2.184   4.052  0.4964  0.4315 -0.3776
  181MOL   O10925669   4.939   2.189   3.918  0.3970  0.0257 -0.4926
  181MOL   H11025670   4.951   1.984   4.084  0.5851 -2.3129  1.8496
  181MOL   H11125671   5.066   2.038   4.194 -3.8356  2.4365 -0.3408
  181MOL   H11225672   5.081   2.258   4.053 -0.8428  1.8815  1.3783
  181MOL   H11325673   4.918   2.279   3.899 -0.3820  0.2282  1.2275
  181MOL   C11425674   4.891   2.233   4.153  0.6955 -0.1824 -0.4071
  181MOL   C11525675   4.937   2.266   4.296 -0.2162  0.1243  0.2950
  181MOL   O11625676   5.037   2.366   4.296 -0.1103  0.3667  0.0165
  181MOL   H11725677   4.850   2.320   4.102  3.5739  1.6019  0.2179
  181MOL   H11825678   4.810   2.160   4.153  1.8103 -1.4546  0.5459
  181MOL   H11925679   4.988   2.185   4.347 -0.3779 -0.2033 -0.0633
  181MOL   H12025680   5.123   2.326   4.294  0.0881  0.6520  1.6053
  181MOL   C12125681   4.831   2.320   4.388  0.7229  0.1022 -0.6950
  181MOL   C12225682   4.701   2.246   4.392  0.4559 -0.3894  0.1654
  181MOL   O12325683   4.723   2.106   4.410 -0.1366 -0.4869  0.0854
  181MOL   H12425684   4.869   2.339   4.488 -0.8433  0.5535 -0.1753
  181MOL   H12525685   4.803   2.419   4.354 -1.0472 -0.4734 -0.9977
  181MOL   H12625686   4.643   2.252   4.300 -1.3715 -0.4518  1.2982
  181MOL   H12725687   4.764   2.090   4.493  1.0563 -0.0022 -0.4004
  181MOL   C12825688   4.601   2.275   4.506 -0.3822 -0.2667  0.2148
  181MOL   C12925689   4.517   2.407   4.488 -0.2700  0.1016 -1.0394
  181MOL   O13025690   4.418   2.406   4.597  0.0353 -0.1755  0.2195
  181MOL   H13125691   4.532   2.192   4.519  1.7429 -1.6483  3.3644
  181MOL   H13225692   4.660   2.288   4.597 -2.6794 -0.7746  1.8233
  181MOL   H13325693   4.480   2.404   4.386  0.1411 -1.2650 -1.1673
  181MOL   H13425694   4.342   2.352   4.581  1.6117 -2.5582  0.6003
  181MOL   C13525695   4.595   2.539   4.516 -0.4653  0.4985  0.3064
  181MOL   C13625696   4.602   2.627   4.391  0.4079  0.3746  0.3281
  181MOL   O13725697   4.662   2.746   4.423  0.1751 -0.5464 -0.1088
  181MOL   H13825698   4.550   2.591   4.600 -1.0507  0.7927 -0.1772
  181MOL   H13925699   4.699   2.518   4.541 -0.6705 -2.5034 -1.1202
  181MOL   H14025700   4.501   2.662   4.368  0.0777 -0.6311  0.2089
  181MOL   H14125701   4.626   2.806   4.359 -1.6634 -0.8447  0.6020
  181MOL   H14225702   4.645   2.571   4.308  4.0143 -0.5510  2.6836
  182MOL     C125703   1.664   1.112   6.780 -0.4146 -0.2375 -0.5103
  182MOL     C225704   1.594   1.230   6.845 -0.4163  0.0872  0.1381
  182MOL     O325705   1.454   1.202   6.820 -0.0425 -0.3778 -0.7981
  182MOL     H425706   1.624   1.089   6.681 -1.9679 -2.5812  0.6355
  182MOL     H525707   1.646   1.021   6.837 -0.6299  1.1087  1.6191
  182MOL     H625708   1.632   1.322   6.801  0.9073 -0.1153  0.8397
  182MOL     H725709   1.426   1.268   6.758  2.6506  0.8887 -0.7265
  182MOL     H825710   1.773   1.112   6.774 -0.4581  1.0992 -1.5246
  182MOL     C925711   1.608   1.242   6.992 -0.4074 -0.2604  0.8118
  182MOL    C1025712   1.748   1.258   7.050 -0.5511  0.5034 -0.0256
  182MOL    O1125713   1.811   1.367   6.989 -0.5580  0.0594 -0.3059
  182MOL    H1225714   1.543   1.325   7.021 -1.2839 -0.3892 -0.7392
  182MOL    H1325715   1.569   1.153   7.043 -3.4656  0.3882 -0.2544
  182MOL    H1425716   1.808   1.173   7.019 -0.4974  0.3279  0.5621
  182MOL    H1525717   1.762   1.446   7.007  1.2323  1.2339 -0.3712
  182MOL    C1625718   1.760   1.278   7.200  0.2751  0.3853 -0.7747
  182MOL    C1725719   1.903   1.265   7.272 -0.3979  0.6788  0.6995
  182MOL    O1825720   1.894   1.321   7.399 -0.0497 -0.2404  0.3351
  182MOL    H1925721   1.724   1.378   7.228  0.0578 -0.5341  2.5165
  182MOL    H2025722   1.685   1.213   7.246  0.1240  1.3951  0.4553
  182MOL    H2125723   1.969   1.324   7.208 -1.4663  0.0999 -0.9823
  182MOL    H2225724   1.839   1.261   7.448 -1.6089  0.5749 -0.4000
  182MOL    C2325725   1.976   1.132   7.283 -0.2703  0.1036  0.0958
  182MOL    C2425726   2.107   1.121   7.359  0.0421  0.2105 -0.0282
  182MOL    O2525727   2.149   0.985   7.369 -0.3576  0.3440 -0.0724
  182MOL    H2625728   1.902   1.061   7.321 -0.3091 -0.0192 -0.2068
  182MOL    H2725729   2.002   1.100   7.182  1.0783 -1.2593  0.8491
  182MOL    H2825730   2.088   1.166   7.456  2.1379  0.4765  0.2745
  182MOL    H2925731   2.074   0.927   7.376 -1.8338  2.3387  1.0116
  182MOL    C3025732   2.213   1.204   7.291 -0.5716  0.3629  0.6085
  182MOL    C3125733   2.346   1.221   7.369 -0.2087  0.4809 -0.2134
  182MOL    O3225734   2.430   1.318   7.306 -0.0937  0.0884  0.2545
  182MOL    H3325735   2.229   1.175   7.187 -3.8636 -1.9493  0.6746
  182MOL    H3425736   2.170   1.304   7.279  0.5409  0.6684 -1.0941
  182MOL    H3525737   2.406   1.132   7.349 -2.2111 -1.4012  1.8364
  182MOL    H3625738   2.389   1.403   7.306 -1.8801 -0.7536  1.0014
  182MOL    C3725739   2.341   1.256   7.519 -0.1536  0.9526  0.4022
  182MOL    C3825740   2.474   1.286   0.069  0.1812  0.5265  0.3007
  182MOL    O3925741   2.451   1.350   0.199  0.2349  0.3717 -0.0152
  182MOL    H4025742   2.275   1.343   0.003 -0.8293  0.4039  3.5983
  182MOL    H4125743   2.297   1.170   0.050  3.2154 -1.0239  0.0584
  182MOL    H4225744   2.522   1.361   0.006  0.8144 -0.8722 -0.9058
  182MOL    H4325745   2.409   1.435   0.189 -2.8253 -0.9997  0.4980
  182MOL    C4425746   2.560   1.156   0.099 -0.3441  0.2755  0.0341
  182MOL    C4525747   2.699   1.174   0.162 -0.0741 -0.4207  0.3744
  182MOL    O4625748   2.768   1.048   0.181  0.6800  0.0514  0.8668
  182MOL    H4725749   2.496   1.083   0.149  0.4694 -2.6374 -3.0046
  182MOL    H4825750   2.578   1.111   0.002  0.5864  2.7647 -0.9910
  182MOL    H4925751   2.680   1.230   0.253 -0.0040  3.1357 -1.7334
  182MOL    H5025752   2.719   0.984   0.231 -1.1956  0.8378  0.0946
  182MOL    C5125753   2.790   1.277   0.082  0.0676  0.5254  0.3931
  182MOL    C5225754   2.910   1.328   0.159 -0.6764  0.1410  0.1584
  182MOL    O5325755   2.961   1.440   0.088 -0.4649  0.1578 -0.1213
  182MOL    H5425756   2.807   1.235   7.503 -1.5707  1.7417 -0.4355
  182MOL    H5525757   2.725   1.364   0.072  0.1258  0.9425  3.1441
  182MOL    H5625758   2.985   1.249   0.159 -0.0133  0.7614 -1.2424
  182MOL    H5725759   2.997   1.410   0.006 -0.1786  0.2660 -0.0373
  182MOL    C5825760   2.886   1.379   0.304  0.0349  0.1243  0.7593
  182MOL    C5925761   2.887   1.281   0.433  0.4336 -0.3955 -0.5741
  182MOL    O6025762   3.024   1.237   0.455 -0.0777 -0.1966  0.4770
  182MOL    H6125763   2.969   1.443   0.336 -0.0202  0.8282 -0.4687
  182MOL    H6225764   2.792   1.432   0.292  0.2898  0.5174  0.4842
  182MOL    H6325765   2.827   1.192   0.412  2.2332 -1.8275  0.2736
  182MOL    H6425766   3.041   1.195   0.538  0.6712  1.4816  1.2024
  182MOL    C6525767   2.833   1.359   0.556  0.1329 -0.6359 -0.3226
  182MOL    C6625768   2.685   1.402   0.549  0.1372 -1.1140  0.2144
  182MOL    O6725769   2.620   1.338   0.665  0.0612  0.1090  0.1151
  182MOL    H6825770   2.842   1.309   0.652 -1.0202  0.8660  0.5772
  182MOL    H6925771   2.907   1.435   0.580 -2.3912  1.9471 -0.4195
  182MOL    H7025772   2.635   1.373   0.456  0.7018 -2.1024  0.2213
  182MOL    H7125773   2.531   1.367   0.683  0.0006  0.6071 -0.9810
  182MOL    C7225774   2.680   1.548   0.569 -0.4366 -0.0202 -0.4791
  182MOL    C7325775   2.728   1.638   0.454  0.4948  0.5063 -0.4515
  182MOL    O7425776   2.635   1.616   0.355  0.0365 -0.7981 -0.0911
  182MOL    H7525777   2.579   1.572   0.604 -0.2005  0.2468  0.0246
  182MOL    H7625778   2.746   1.572   0.652  1.6967  0.2875 -2.2365
  182MOL    H7725779   2.823   1.607   0.412  2.3786  1.5312  2.8267
  182MOL    H7825780   2.688   1.595   0.281 -1.0911  0.9888 -1.4644
  182MOL    C7925781   2.748   1.797   0.492 -0.3414  0.9949 -0.0674
  182MOL    C8025782   2.902   1.837   0.475  0.5546 -0.8775 -0.8106
  182MOL    O8125783   2.910   1.973   0.507  0.1116  0.8985  0.2270
  182MOL    H8225784   2.689   1.860   0.426 -0.9952  0.8703  0.3961
  182MOL    H8325785   2.720   1.818   0.595  0.6229 -3.4836  1.2432
  182MOL    H8425786   2.933   1.820   0.372 -2.2152  0.7540 -1.9550
  182MOL    H8525787   2.998   1.981   0.542  0.9109 -1.7782 -1.0142
  182MOL    C8625788   2.999   1.763   0.577  0.5867  0.1862 -0.3898
  182MOL    C8725789   3.147   1.797   0.574  0.3902 -0.3866  0.0281
  182MOL    O8825790   3.162   1.937   0.593 -0.4672 -0.2497 -0.5287
  182MOL    H8925791   2.953   1.775   0.676  0.9093  0.4828 -0.2764
  182MOL    H9025792   2.985   1.658   0.551 -1.7948  0.4973 -0.5254
  182MOL    H9125793   3.187   1.774   0.475  0.3741  0.6723 -0.2345
  182MOL    H9225794   3.142   1.959   0.683  2.5058  0.8778 -0.0699
  182MOL    C9325795   3.239   1.707   0.656 -0.3887 -0.2854  0.2728
  182MOL    C9425796   3.263   1.561   0.597 -0.5108 -0.0212 -0.3649
  182MOL    O9525797   3.338   1.579   0.473  0.1388  0.0154 -0.0059
  182MOL    H9625798   3.337   1.755   0.663 -2.1650  3.1999  2.7854
  182MOL    H9725799   3.205   1.710   0.759  1.1590 -1.0127  0.8177
  182MOL    H9825800   3.168   1.521   0.561 -0.8230  1.2556 -1.0171
  182MOL    H9925801   3.343   1.501   0.419 -1.5091  1.2888 -2.0827
  182MOL   C10025802   3.338   1.469   0.696 -0.0898 -0.2680 -0.0171
  182MOL   C10125803   3.253   1.409   0.806 -0.8635  0.3935  0.0068
  182MOL   O10225804   3.137   1.354   0.743 -0.1747 -0.4162 -0.1851
  182MOL   H10325805   3.375   1.382   0.642 -0.6797 -0.9067  0.6138
  182MOL   H10425806   3.432   1.506   0.737  1.0905 -0.3514 -2.4905
  182MOL   H10525807   3.212   1.490   0.867 -1.2760 -0.2926  0.6420
  182MOL   H10625808   3.167   1.280   0.692  1.2697  1.0050 -1.4290
  182MOL   C10725809   3.314   1.293   0.886  0.7198  0.5968  0.1418
  182MOL   C10825810   3.384   1.323   1.021 -0.5313  0.2572  0.7926
  182MOL   O10925811   3.511   1.387   0.996  0.0737  0.5406 -0.2593
  182MOL   H11025812   3.218   1.247   0.910 -0.1859  1.8505 -0.9681
  182MOL   H11125813   3.372   1.235   0.814 -0.6239 -2.0317  1.1219
  182MOL   H11225814   3.419   1.226   1.057 -2.3264 -0.3337  1.0114
  182MOL   H11325815   3.580   1.323   1.000 -0.4839 -0.2802 -2.6531
  182MOL   C11425816   3.298   1.405   1.115  0.7863 -0.3008 -0.8192
  182MOL   C11525817   3.295   1.348   1.255 -0.0355  0.6073 -0.5832
  182MOL   O11625818   3.277   1.457   1.345 -0.0520  0.5320  0.6659
  182MOL   H11725819   3.333   1.508   1.117  0.1284 -0.0788  0.2614
  182MOL   H11825820   3.193   1.419   1.088 -0.2193 -1.9670  1.8783
  182MOL   H11925821   3.388   1.293   1.268  0.4231  1.1359 -1.5364
  182MOL   H12025822   3.354   1.511   1.338 -0.3867  0.8737 -0.5727
  182MOL   C12125823   3.168   1.265   1.286  0.0805 -0.5796  0.1682
  182MOL   C12225824   3.149   1.125   1.230 -0.5594  0.4455  0.7658
  182MOL   O12325825   3.123   1.115   1.089  0.2169 -0.1375 -0.2092
  182MOL   H12425826   3.159   1.248   1.394 -1.1051 -0.2439  0.1300
  182MOL   H12525827   3.084   1.328   1.258  1.1265  0.5276 -0.5042
  182MOL   H12625828   3.065   1.090   1.290 -1.1789  2.2573  0.9763
  182MOL   H12725829   3.050   1.175   1.077  0.8489  0.8241  0.6977
  182MOL   C12825830   3.269   1.034   1.256  0.9302  0.0313  0.0029
  182MOL   C12925831   3.253   0.881   1.253  0.2489 -0.1113  0.1523
  182MOL   O13025832   3.383   0.825   1.226 -0.0539 -0.3385  0.3871
  182MOL   H13125833   3.350   1.057   1.187  1.6937 -0.3264  0.7740
  182MOL   H13225834   3.314   1.050   1.354  0.7648  3.6850 -0.4518
  182MOL   H13325835   3.198   0.855   1.163 -1.1824 -1.1130  1.2669
  182MOL   H13425836   3.361   0.737   1.202 -2.7036  0.7975 -1.5798
  182MOL   C13525837   3.197   0.824   1.386  0.2809  0.2224  0.0912
  182MOL   C13625838   3.085   0.722   1.379  0.2096  0.2158 -0.2015
  182MOL   O13725839   3.065   0.641   1.496 -0.7105  0.1377 -0.3363
  182MOL   H13825840   3.272   0.793   1.459 -1.2705  1.3918  2.2535
  182MOL   H13925841   3.142   0.905   1.435  1.3853  1.2124 -0.2569
  182MOL   H14025842   3.096   0.645   1.303  0.3546  1.3745 -1.3769
  182MOL   H14125843   3.008   0.567   1.487  0.1413 -0.6480  0.5800
  182MOL   H14225844   2.991   0.774   1.361  0.2524  0.7209  0.9932
  183MOL     C125845   2.564   1.326   1.803  0.2887  0.2316 -0.1745
  183MOL     C225846   2.574   1.365   1.650 -0.4207  0.1922 -0.5304
  183MOL     O325847   2.576   1.508   1.658 -0.4732  0.3414  0.3060
  183MOL     H425848   2.658   1.350   1.854  0.6983 -1.2644 -0.1838
  183MOL     H525849   2.551   1.218   1.802 -1.8647  0.4676  1.4718
  183MOL     H625850   2.488   1.335   1.590 -0.6719 -0.2529  0.0448
  183MOL     H725851   2.563   1.557   1.578  1.0458  1.1596  0.5540
  183MOL     H825852   2.488   1.382   1.856  0.3234  0.3393 -0.2380
  183MOL     C925853   2.704   1.317   1.577 -0.0457  0.2007  0.3568
  183MOL    C1025854   2.691   1.310   1.427  1.1051  0.2686  0.4646
  183MOL    O1125855   2.819   1.335   1.364  0.4048  0.0852  0.4641
  183MOL    H1225856   2.777   1.386   1.619 -0.9084  1.4679 -0.1813
  183MOL    H1325857   2.731   1.223   1.626  1.4033  0.3635 -0.1175
  183MOL    H1425858   2.620   1.384   1.391  0.2658 -0.5620  0.3838
  183MOL    H1525859   2.870   1.386   1.425  0.0611  1.9465 -0.7384
  183MOL    C1625860   2.647   1.170   1.375 -0.8354 -0.5851  0.2967
  183MOL    C1725861   2.514   1.122   1.407  0.3957 -0.0077  0.1870
  183MOL    O1825862   2.419   1.222   1.367  0.5009 -0.4350 -0.3820
  183MOL    H1925863   2.645   1.170   1.266  0.5233 -1.1128  0.2633
  183MOL    H2025864   2.712   1.088   1.403 -2.0285 -1.2994  0.9994
  183MOL    H2125865   2.503   1.108   1.514 -3.3766  0.4135 -0.0567
  183MOL    H2225866   2.407   1.214   1.274  3.0468  1.8029 -0.9687
  183MOL    C2325867   2.491   0.978   1.350  0.2681 -0.1673 -0.6012
  183MOL    C2425868   2.372   0.906   1.409 -0.0246 -0.5430 -0.3576
  183MOL    O2525869   2.251   0.957   1.355 -0.6065  0.2595 -0.0266
  183MOL    H2625870   2.480   0.973   1.242  0.0026 -1.0396 -0.5311
  183MOL    H2725871   2.579   0.925   1.387  0.6610  2.8607  3.2418
  183MOL    H2825872   2.380   0.917   1.518  1.9905 -1.4205 -0.3852
  183MOL    H2925873   2.257   1.051   1.350 -0.5833  0.1959 -1.2014
  183MOL    C3025874   2.384   0.755   1.382  0.1552 -0.2311  0.0655
  183MOL    C3125875   2.461   0.681   1.489 -0.5151 -0.5186 -0.4193
  183MOL    O3225876   2.389   0.665   1.607  0.3871  0.6103 -0.0257
  183MOL    H3325877   2.286   0.710   1.365  0.2729 -0.5047  0.1199
  183MOL    H3425878   2.439   0.737   1.289 -0.7169 -1.9209 -0.1474
  183MOL    H3525879   2.548   0.740   1.517  0.0718 -1.1426 -0.9232
  183MOL    H3625880   2.452   0.641   1.673 -0.9336  0.6699  1.2894
  183MOL    C3725881   2.533   0.546   1.445  1.2414 -1.3140  0.2008
  183MOL    C3825882   2.457   0.413   1.448  0.2360 -1.2083 -0.2688
  183MOL    O3925883   2.370   0.409   1.333  0.1155  0.0987  0.6468
  183MOL    H4025884   2.577   0.544   1.346 -0.3147  0.5225 -0.5365
  183MOL    H4125885   2.610   0.530   1.521  0.4215 -4.1188  0.5215
  183MOL    H4225886   2.385   0.399   1.528 -0.0611  1.5642  0.0139
  183MOL    H4325887   2.288   0.423   1.378 -0.8919  1.5812 -1.5857
  183MOL    C4425888   2.547   0.294   1.433  0.2838 -0.9816  0.8520
  183MOL    C4525889   2.479   0.157   1.454  0.5795 -0.0336  0.4816
  183MOL    O4625890   2.567   0.058   1.415 -0.2001 -0.0356  0.5185
  183MOL    H4725891   2.593   0.290   1.334 -0.7965  0.4150  0.2723
  183MOL    H4825892   2.624   0.293   1.510  2.3429 -1.0220 -1.1409
  183MOL    H4925893   2.393   0.149   1.387  0.5001 -0.1178  0.5928
  183MOL    H5025894   2.528   0.018   1.338  0.1975  2.3470 -0.9793
  183MOL    C5125895   2.446   0.128   1.600 -0.1331  0.2993  0.2160
  183MOL    C5225896   2.351   0.009   1.620 -0.4223  0.6322 -0.6667
  183MOL    O5325897   2.374   7.474   1.752 -0.1135 -0.7546 -0.3212
  183MOL    H5425898   2.527   0.113   1.671  0.5570 -0.1595 -0.6565
  183MOL    H5525899   2.404   0.216   1.649 -0.0660  0.2868  0.2957
  183MOL    H5625900   2.381   7.448   1.552 -2.2878  0.4754 -1.3320
  183MOL    H5725901   2.367   7.379   1.753 -0.6235 -0.7151 -0.2925
  183MOL    C5825902   2.201   0.043   1.607 -0.1159  0.6783 -0.2348
  183MOL    C5925903   2.111   7.441   1.586  0.2199  0.2397  0.2890
  183MOL    O6025904   1.993   7.468   1.654  0.2867 -0.1639 -0.6301
  183MOL    H6125905   2.170   0.091   1.701 -0.3214 -0.0583  0.0720
  183MOL    H6225906   2.194   0.111   1.522  0.0134 -0.9838 -1.5819
  183MOL    H6325907   2.159   7.354   1.629  0.4646  0.6665  0.8745
  183MOL    H6425908   2.012   7.475   1.746 -1.5039  0.0690 -0.2733
  183MOL    C6525909   2.088   7.406   1.437  0.3944 -0.5948 -0.1784
  183MOL    C6625910   2.213   7.344   1.372  0.3641  0.8915 -0.0937
  183MOL    O6725911   2.242   7.224   1.446 -0.3518 -0.0350  0.0734
  183MOL    H6825912   1.992   7.354   1.431  0.1288 -0.1039 -0.3279
  183MOL    H6925913   2.047   7.488   1.377  3.0075 -1.3562 -3.1396
  183MOL    H7025914   2.295   7.417   1.371 -0.5482  1.9822  1.4844
  183MOL    H7125915   2.165   7.171   1.459  1.5788 -2.4354  2.2086
  183MOL    C7225916   2.198   7.313   1.221 -0.2531 -0.3120 -0.2734
  183MOL    C7325917   2.284   7.203   1.162  0.6830 -0.4782  1.7930
  183MOL    O7425918   2.266   7.186   1.023 -0.0421  0.5581 -0.2893
  183MOL    H7525919   2.095   7.278   1.211 -1.1794  2.4131 -0.5028
  183MOL    H7625920   2.201   7.402   1.158 -2.1512 -0.4025 -0.5446
  183MOL    H7725921   2.262   7.107   1.209 -0.2603 -1.6104 -0.8372
  183MOL    H7825922   2.322   7.244   0.974 -0.0946  0.1553 -0.8419
  183MOL    C7925923   2.433   7.233   1.177  0.0269  0.6119  0.6627
  183MOL    C8025924   2.493   7.356   1.111  0.2766 -0.4878  1.0347
  183MOL    O8125925   2.442   7.484   1.158 -0.1914  0.1042  0.1598
  183MOL    H8225926   2.457   7.226   1.283 -0.5165  1.0230  0.8170
  183MOL    H8325927   2.485   7.149   1.131 -0.0458  1.2962 -0.7003
  183MOL    H8425928   2.482   7.338   1.004 -1.7337  0.6857  1.0253
  183MOL    H8525929   2.417   0.020   1.086  3.1993  2.3191  0.5876
  183MOL    C8625930   2.649   7.371   1.127  0.1279  0.1382 -0.0386
  183MOL    C8725931   2.721   7.275   1.032  0.5884  0.2352  0.8897
  183MOL    O8825932   2.735   7.328   0.901 -0.0218  0.1753 -0.7835
  183MOL    H8925933   2.687   7.472   1.115  3.1673 -0.8704  0.5503
  183MOL    H9025934   2.677   7.346   1.229  1.9015 -2.9161 -1.2106
  183MOL    H9125935   2.670   7.184   1.000 -0.0936  0.4039  1.4959
  183MOL    H9225936   2.652   7.316   0.858 -1.2532  0.8946  1.3294
  183MOL    C9325937   2.853   7.224   1.078  0.0863 -0.1687 -0.0959
  183MOL    C9425938   2.956   7.333   1.131  0.4069  0.0893  0.2710
  183MOL    O9525939   3.067   7.261   1.192  0.2643 -0.1526  0.1551
  183MOL    H9625940   2.825   7.164   1.164 -1.5554  2.3425  1.2058
  183MOL    H9725941   2.893   7.156   1.003 -2.3847 -1.8142  0.0027
  183MOL    H9825942   2.912   7.397   1.207 -1.9690  0.2349 -1.1919
  183MOL    H9925943   3.047   7.247   1.283 -0.1884 -1.6482 -0.1628
  183MOL   C10025944   3.025   7.414   1.023 -0.2103 -0.1011 -0.6489
  183MOL   C10125945   3.079   7.335   0.898  0.0108 -0.1891 -0.2826
  183MOL   O10225946   2.985   7.359   0.794 -0.3296  0.7451  0.0699
  183MOL   H10325947   2.951   7.486   0.988 -0.2534  0.0388 -0.2753
  183MOL   H10425948   3.104   7.472   1.069 -0.8221 -0.7422  1.2570
  183MOL   H10525949   3.093   7.227   0.911  2.7015  0.0931 -0.4115
  183MOL   H10625950   2.897   7.334   0.820  0.6892  0.1797  3.1293
  183MOL   C10725951   3.219   7.386   0.851 -0.6153  0.1910  0.5212
  183MOL   C10825952   3.322   7.343   0.949 -0.0241 -0.7098  0.2554
  183MOL   O10925953   3.363   7.214   0.905  0.5136 -0.1119 -0.2813
  183MOL   H11025954   3.246   7.356   0.750 -0.3286  0.7049  0.4460
  183MOL   H11125955   3.205   7.493   0.836 -1.0910  0.0171 -0.3123
  183MOL   H11225956   3.282   7.338   1.050 -0.7563  1.3276  0.0882
  183MOL   H11325957   3.335   7.151   0.969  0.2979 -2.5784 -2.6899
  183MOL   C11425958   3.448   7.443   0.947 -0.9900  0.0234 -0.8081
  183MOL   C11525959   3.438   0.052   1.044  0.5428  0.2422  0.3918
  183MOL   O11625960   3.563   0.095   1.065 -0.8107  0.1218  0.7154
  183MOL   H11725961   3.525   7.375   0.984 -0.9049 -1.3349 -3.3804
  183MOL   H11825962   3.483   7.483   0.852 -1.4466  0.4947 -0.7823
  183MOL   H11925963   3.408   0.023   1.145 -1.0244 -0.1840 -0.1829
  183MOL   H12025964   3.594   0.130   0.983 -2.4348  0.2128  0.1124
  183MOL   C12125965   3.347   0.163   0.981  0.1125 -0.3765 -0.2099
  183MOL   C12225966   3.366   0.306   1.047  0.7639  0.2290 -0.1613
  183MOL   O12325967   3.277   0.390   0.982  0.4206 -0.4437  0.0762
  183MOL   H12425968   3.377   0.173   0.877 -0.1547  2.2964 -0.0780
  183MOL   H12525969   3.242   0.143   1.002  0.7551  0.9846  5.3878
  183MOL   H12625970   3.469   0.328   1.021  1.1845 -1.8336 -0.2884
  183MOL   H12725971   3.188   0.359   0.986  0.7547 -1.5958 -1.1463
  183MOL   C12825972   3.342   0.330   1.198  0.6368 -0.0461  0.2513
  183MOL   C12925973   3.391   0.466   1.245  0.1374 -0.4599 -0.1057
  183MOL   O13025974   3.316   0.566   1.178  0.2205  0.2279  0.3973
  183MOL   H13125975   3.237   0.315   1.219  0.1870  3.2392  0.4842
  183MOL   H13225976   3.396   0.250   1.251  0.9188  0.3361  0.5417
  183MOL   H13325977   3.494   0.479   1.214 -0.0883  1.8526  0.0408
  183MOL   H13425978   3.323   0.526   1.092 -0.0986 -0.4957  0.7071
  183MOL   C13525979   3.397   0.495   1.396  1.2142  0.3983 -0.2116
  183MOL   C13625980   3.514   0.420   1.458  0.3928 -0.3632  0.4718
  183MOL   O13725981   3.523   0.453   1.602  0.3077  0.0744 -0.2863
  183MOL   H13825982   3.426   0.599   1.411  1.3873  0.2248  0.7284
  183MOL   H13925983   3.302   0.477   1.446  0.2288 -2.5163 -2.9267
  183MOL   H14025984   3.603   0.445   1.401 -1.1132 -0.2405 -1.9158
  183MOL   H14125985   3.583   0.523   1.620 -0.3500  0.0243  2.2455
  183MOL   H14225986   3.491   0.314   1.445 -2.0447  0.2804 -0.6577
  184MOL     C125987   0.667   2.719   2.015 -0.2788  0.1336  0.0734
  184MOL     C225988   0.781   2.820   1.984  0.4616 -0.0429  0.1393
  184MOL     O325989   0.762   2.941   2.052 -0.1675 -0.5274  0.0042
  184MOL     H425990   0.671   2.633   1.948  2.1058  0.4904 -0.2853
  184MOL     H525991   0.574   2.769   1.987 -0.7216 -1.2586 -0.9885
  184MOL     H625992   0.777   2.849   1.879  1.4940  1.4121  0.4827
  184MOL     H725993   0.784   3.013   1.995 -1.6159  1.4011  1.7853
  184MOL     H825994   0.657   2.695   2.121 -1.9125  1.7929  0.3252
  184MOL     C925995   0.930   2.779   2.020 -0.7681 -0.3489 -0.0818
  184MOL    C1025996   0.979   2.653   1.945 -0.2938  0.4923 -0.3667
  184MOL    O1125997   1.051   2.697   1.837 -0.8645  0.3504 -0.1043
  184MOL    H1225998   0.995   2.863   1.997 -2.4830  0.8309 -0.6433
  184MOL    H1325999   0.945   2.761   2.126 -0.2857  1.6826  0.2104
  184MOL    H1426000   0.891   2.596   1.917  0.4460 -0.1610 -1.4138
  184MOL    H1526001   1.135   2.653   1.841 -1.7673 -1.4742 -0.7039
  184MOL    C1626002   1.062   2.551   2.024 -0.8529 -0.1710  0.2178
  184MOL    C1726003   0.976   2.461   2.119 -0.2380 -0.7098  0.0068
  184MOL    O1826004   0.889   2.360   2.056  0.3771  0.3541  0.5118
  184MOL    H1926005   1.113   2.482   1.956  2.6308 -0.7140  3.2203
  184MOL    H2026006   1.140   2.599   2.083 -1.7446 -0.6291  1.7875
  184MOL    H2126007   0.903   2.521   2.174 -0.9268 -1.3098 -0.2437
  184MOL    H2226008   0.917   2.342   1.968  1.5233 -2.0873  1.3354
  184MOL    C2326009   1.069   2.395   2.228 -0.5703  0.8248  0.2561
  184MOL    C2426010   1.155   2.494   2.303  0.1382 -0.1645  0.5127
  184MOL    O2526011   1.154   2.445   2.441  0.1312  0.0797  0.0024
  184MOL    H2626012   0.987   2.374   2.296 -1.0588  1.3932 -0.1559
  184MOL    H2726013   1.113   2.299   2.199 -0.9312  0.5601  0.5744
  184MOL    H2826014   1.100   2.588   2.297  0.0264 -0.3237 -1.4144
  184MOL    H2926015   1.132   2.511   2.506 -0.2293  0.0337 -0.0701
  184MOL    C3026016   1.303   2.511   2.265 -0.3829 -0.4548  0.5702
  184MOL    C3126017   1.376   2.393   2.198 -0.5276 -0.0422  0.1470
  184MOL    O3226018   1.370   2.403   2.058 -0.2959  0.0044  0.0204
  184MOL    H3326019   1.312   2.597   2.199  1.4548 -1.5000 -0.5981
  184MOL    H3426020   1.363   2.547   2.350  0.2905  1.7761 -0.7969
  184MOL    H3526021   1.333   2.298   2.228  2.2649 -1.0600  1.1033
  184MOL    H3626022   1.363   2.320   2.014 -1.3980 -0.3398  0.8387
  184MOL    C3726023   1.525   2.385   2.242  0.3782  0.7478  0.6862
  184MOL    C3826024   1.573   2.258   2.311  0.3276  0.2976  0.1654
  184MOL    O3926025   1.606   2.173   2.203 -0.1943  0.4620  0.6845
  184MOL    H4026026   1.587   2.407   2.155 -0.1719  0.1190  0.1304
  184MOL    H4126027   1.543   2.469   2.309 -1.6405  1.1913  0.6881
  184MOL    H4226028   1.490   2.220   2.370  2.6225 -3.2505  1.3068
  184MOL    H4326029   1.690   2.207   2.175 -0.4082 -0.4898 -1.2470
  184MOL    C4426030   1.686   2.282   2.414 -0.1553 -0.1501 -0.8096
  184MOL    C4526031   1.740   2.159   2.488 -0.0252 -0.3186  0.9253
  184MOL    O4626032   1.859   2.202   2.557 -0.1712 -0.4429 -0.2135
  184MOL    H4726033   1.769   2.336   2.369  0.6877  0.4534  1.4234
  184MOL    H4826034   1.643   2.345   2.491 -0.3503  1.2284 -2.0233
  184MOL    H4926035   1.767   2.085   2.412 -4.1626 -0.5189 -0.5153
  184MOL    H5026036   1.930   2.145   2.532  0.0809 -0.7584  1.1759
  184MOL    C5126037   1.640   2.102   2.596 -0.7277  0.1282 -0.6001
  184MOL    C5226038   1.664   1.965   2.663  0.0822 -0.2128  0.1269
  184MOL    O5326039   1.786   1.962   2.730 -0.4213  0.2142 -0.1708
  184MOL    H5426040   1.613   2.178   2.670  2.5562  1.2664 -0.5075
  184MOL    H5526041   1.541   2.098   2.550 -1.5155  0.2129  1.0403
  184MOL    H5626042   1.676   1.893   2.583 -0.4190 -0.9357  0.7023
  184MOL    H5726043   1.822   1.877   2.713 -1.2127 -0.0057 -0.7811
  184MOL    C5826044   1.557   1.932   2.769  0.1551  0.4439  0.1422
  184MOL    C5926045   1.555   1.794   2.843 -0.1050  0.3132 -0.2797
  184MOL    O6026046   1.462   1.799   2.948 -0.3177  0.1236  0.3994
  184MOL    H6126047   1.566   2.012   2.843  1.7324 -1.0163  1.5589
  184MOL    H6226048   1.463   1.954   2.718  1.7094  1.2376 -2.4732
  184MOL    H6326049   1.654   1.786   2.889  0.1154 -0.7512 -0.9246
  184MOL    H6426050   1.506   1.819   3.029  1.3833  0.2688 -0.5398
  184MOL    C6526051   1.538   1.669   2.740 -0.2216  0.4205 -0.6097
  184MOL    C6626052   1.554   1.524   2.809  0.6447 -0.4786 -0.0968
  184MOL    O6726053   1.477   1.421   2.742 -0.3679  0.0074 -0.2809
  184MOL    H6826054   1.439   1.672   2.694 -0.8730  0.4497  0.7429
  184MOL    H6926055   1.606   1.685   2.657  1.0599  0.2568  0.4050
  184MOL    H7026056   1.528   1.522   2.914  1.9533  2.1886  0.3357
  184MOL    H7126057   1.386   1.443   2.753 -0.3380 -0.7971  1.8731
  184MOL    C7226058   1.698   1.480   2.804  0.4244  0.1317 -0.5246
  184MOL    C7326059   1.741   1.374   2.911  0.4915 -0.6985 -0.3291
  184MOL    O7426060   1.886   1.374   2.895  0.3624 -0.1883 -0.1411
  184MOL    H7526061   1.721   1.449   2.702  2.5688 -0.5296  0.1552
  184MOL    H7626062   1.760   1.567   2.823 -1.8127  1.4123  1.2827
  184MOL    H7726063   1.700   1.274   2.896 -0.2241 -0.0503 -2.9598
  184MOL    H7826064   1.907   1.309   2.830 -1.8765  0.2994 -1.4246
  184MOL    C7926065   1.711   1.420   3.062 -0.3521  0.8203  0.1369
  184MOL    C8026066   1.743   1.315   3.170  0.4293  0.4559  0.1608
  184MOL    O8126067   1.780   1.384   3.284 -0.2531 -0.4407 -0.1453
  184MOL    H8226068   1.753   1.519   3.081  3.2263 -0.7228  0.6636
  184MOL    H8326069   1.611   1.454   3.085 -1.0899 -1.2495  0.0737
  184MOL    H8426070   1.835   1.264   3.140  0.5160  0.8192 -0.1998
  184MOL    H8526071   1.872   1.372   3.300  0.3375  1.4570 -1.7986
  184MOL    C8626072   1.639   1.203   3.181  0.0393 -0.5100  0.0178
  184MOL    C8726073   1.487   1.242   3.193 -1.0060 -0.0033  1.0689
  184MOL    O8826074   1.409   1.125   3.188 -0.2782 -0.3139  0.0372
  184MOL    H8926075   1.643   1.144   3.089  0.3535  0.3759 -0.5442
  184MOL    H9026076   1.664   1.132   3.260  0.1238  0.0930  0.5381
  184MOL    H9126077   1.444   1.300   3.111  0.7018  2.0926  1.5880
  184MOL    H9226078   1.401   1.094   3.099 -2.2569  1.9985 -0.6751
  184MOL    C9326079   1.457   1.333   3.312 -0.1235  0.1196  0.9576
  184MOL    C9426080   1.523   1.290   3.443 -0.1782  0.1244  0.2565
  184MOL    O9526081   1.513   1.408   3.527 -0.0133  0.3573  0.1879
  184MOL    H9626082   1.484   1.435   3.284  1.5534 -0.5569  0.0188
  184MOL    H9726083   1.349   1.329   3.326 -0.3822  3.6040  0.4919
  184MOL    H9826084   1.630   1.270   3.440  0.0095  1.1798 -0.2155
  184MOL    H9926085   1.586   1.466   3.510  0.9529 -0.4276  1.5593
  184MOL   C10026086   1.453   1.164   3.511  0.4685  0.1135  0.4315
  184MOL   C10126087   1.479   1.141   3.664  0.3129 -0.3006  0.1029
  184MOL   O10226088   1.396   1.026   3.700  0.7180  0.6572 -0.0457
  184MOL   H10326089   1.347   1.166   3.486  0.2082  2.8107  1.5338
  184MOL   H10426090   1.484   1.070   3.466  0.9412  0.6223 -0.3012
  184MOL   H10526091   1.447   1.221   3.730 -1.2641 -0.2621 -0.6980
  184MOL   H10626092   1.395   1.015   3.794 -0.3042  0.9742 -0.0048
  184MOL   C10726093   1.620   1.095   3.708  0.2358 -0.2587  0.1190
  184MOL   C10826094   1.737   1.197   3.714  0.2096  0.0650 -0.2613
  184MOL   O10926095   1.718   1.304   3.798  0.6838  0.8108  0.0109
  184MOL   H11026096   1.616   1.046   3.806 -2.8435  1.1597  0.7620
  184MOL   H11126097   1.639   1.012   3.641  1.6729 -0.0374  0.2477
  184MOL   H11226098   1.751   1.241   3.615 -1.8589  3.6209  0.8927
  184MOL   H11326099   1.803   1.336   3.824  1.9130 -1.5782 -0.9177
  184MOL   C11426100   1.876   1.140   3.759  1.1605  0.1101 -0.2593
  184MOL   C11526101   2.001   1.244   3.733 -0.0932  0.0513 -0.0919
  184MOL   O11626102   1.983   1.342   3.837  0.2850 -0.1684  0.4804
  184MOL   H11726103   1.868   1.109   3.863 -0.3172 -2.9780 -1.2537
  184MOL   H11826104   1.882   1.054   3.692 -0.1524 -0.5558  0.4683
  184MOL   H11926105   1.984   1.293   3.637  1.6753  0.4735 -0.2040
  184MOL   H12026106   1.999   1.429   3.805 -0.6173 -0.0397  0.3591
  184MOL   C12126107   2.140   1.175   3.734  0.2888  0.1588 -0.4657
  184MOL   C12226108   2.266   1.256   3.793  0.4524  0.4491 -0.1551
  184MOL   O12326109   2.372   1.164   3.780 -0.9014 -0.6002  0.4232
  184MOL   H12426110   2.137   1.090   3.802  1.6696  0.5635  0.1329
  184MOL   H12526111   2.161   1.138   3.634  0.3796 -0.1977 -0.3145
  184MOL   H12626112   2.245   1.262   3.900  0.1482 -1.9203 -0.0619
  184MOL   H12726113   2.422   1.160   3.860 -0.2301  1.7701  0.1542
  184MOL   C12826114   2.300   1.390   3.715 -0.2373  0.5289  0.4815
  184MOL   C12926115   2.389   1.483   3.803 -0.3703 -0.4647 -0.2283
  184MOL   O13026116   2.467   1.567   3.726 -0.3248 -0.1170 -0.6128
  184MOL   H13126117   2.345   1.372   3.618 -0.3996  1.4504  0.2311
  184MOL   H13226118   2.207   1.441   3.688  0.6280  1.1773 -1.2909
  184MOL   H13326119   2.462   1.421   3.854  0.9142  1.1870  0.0074
  184MOL   H13426120   2.405   1.619   3.678 -1.1861  1.9039  2.5374
  184MOL   C13526121   2.317   1.559   3.917 -0.0489  0.5777 -0.0120
  184MOL   C13626122   2.398   1.651   3.997 -0.3758 -0.3056 -0.5432
  184MOL   O13726123   2.318   1.721   4.091 -0.3464 -0.6970  0.4363
  184MOL   H13826124   2.239   1.623   3.877  0.7614  1.8077  0.3574
  184MOL   H13926125   2.260   1.489   3.978 -0.7504  1.2229  0.0688
  184MOL   H14026126   2.448   1.725   3.935 -0.6368  0.5955  0.3096
  184MOL   H14126127   2.264   1.783   4.044  2.0276  1.1777  0.1061
  184MOL   H14226128   2.477   1.604   4.055 -1.2254 -0.5712  0.4132
  185MOL     C126129   3.810   3.387   1.139 -0.3012 -0.0067 -0.4647
  185MOL     C226130   3.870   3.499   1.051 -0.0124 -0.2616 -0.2507
  185MOL     O326131   3.872   3.445   0.923  1.1734 -0.0015 -0.4950
  185MOL     H426132   3.833   3.419   1.240 -1.7632 -1.9962  0.5444
  185MOL     H526133   3.855   3.291   1.112  0.2984  0.5194 -1.3486
  185MOL     H626134   3.972   3.517   1.084 -0.3429 -0.9569  1.2214
  185MOL     H726135   3.894   3.516   0.864  0.1196  0.2122 -0.6449
  185MOL     H826136   3.701   3.382   1.127 -0.6897  1.6513  2.0098
  185MOL     C926137   3.776   3.626   1.039  0.1454 -0.3779  0.0292
  185MOL    C1026138   3.766   3.719   1.155 -0.1989  0.3771  0.5058
  185MOL    O1126139   3.733   3.855   1.096 -0.0953 -0.4420 -0.1397
  185MOL    H1226140   3.827   3.684   0.961 -0.7073 -0.9269 -0.9493
  185MOL    H1326141   3.680   3.594   1.000 -0.4927  0.2289  1.0884
  185MOL    H1426142   3.863   3.710   1.204  0.0669  1.8745  0.2928
  185MOL    H1526143   3.794   3.920   1.127 -2.0783  0.3503  2.2004
  185MOL    C1626144   3.671   3.679   1.267  0.5467 -0.1263 -0.4824
  185MOL    C1726145   3.687   3.761   1.401 -0.4990  1.1218 -0.2002
  185MOL    O1826146   3.560   3.820   1.432 -0.4594 -0.1404 -0.5062
  185MOL    H1926147   3.568   3.688   1.232  0.3506  4.2698  0.9883
  185MOL    H2026148   3.671   3.575   1.300  0.6426  0.0636  0.1097
  185MOL    H2126149   3.750   3.850   1.398  2.9512 -1.1228  2.3815
  185MOL    H2226150   3.509   3.748   1.466 -0.1097 -0.3302 -0.3836
  185MOL    C2326151   3.740   3.681   1.521 -0.6688  0.2665  0.8121
  185MOL    C2426152   3.800   3.768   1.637  0.3804  0.1521 -0.5259
  185MOL    O2526153   3.793   3.694   1.759 -0.2632  0.1826 -0.4416
  185MOL    H2626154   3.658   3.617   1.556 -1.7652 -0.3019 -2.5960
  185MOL    H2726155   3.820   3.616   1.486 -0.9263 -0.2360  1.1433
  185MOL    H2826156   3.742   3.856   1.664  0.2254  0.1474 -0.8390
  185MOL    H2926157   3.759   3.754   1.823 -1.2408 -0.9019  0.0784
  185MOL    C3026158   3.947   3.814   1.617 -0.1425 -0.3418 -0.4321
  185MOL    C3126159   3.982   3.951   1.688 -0.1524  0.0570 -0.3500
  185MOL    O3226160   4.118   3.957   1.730 -0.1048 -0.1977 -0.2478
  185MOL    H3326161   4.016   3.732   1.638 -0.0562 -0.9485 -2.8940
  185MOL    H3426162   3.975   3.819   1.512  1.1979 -3.1328 -0.2676
  185MOL    H3526163   3.915   3.962   1.774  0.7079  2.1454  0.0787
  185MOL    H3626164   4.136   3.889   1.793  0.1615  0.4152  0.3358
  185MOL    C3726165   3.934   4.068   1.606 -0.7939  0.2363  0.2424
  185MOL    C3826166   3.948   4.203   1.681 -0.3490 -0.2671 -0.0569
  185MOL    O3926167   4.087   4.228   1.697  0.4994 -0.1051 -0.2744
  185MOL    H4026168   3.998   4.076   1.518 -0.7935 -0.0087  0.2195
  185MOL    H4126169   3.833   4.052   1.567 -0.4130  0.0340 -0.6753
  185MOL    H4226170   3.896   4.180   1.774 -0.2439 -0.4501 -0.0418
  185MOL    H4326171   4.129   4.144   1.702 -0.3840 -0.4849  1.3075
  185MOL    C4426172   3.874   4.309   1.609 -0.4651 -0.1199  0.0793
  185MOL    C4526173   3.813   4.428   1.684  0.0410 -0.1822 -0.3086
  185MOL    O4626174   3.775   4.530   1.589 -0.3144 -0.1540  0.4959
  185MOL    H4726175   3.941   4.352   1.533 -2.1685  1.7700 -0.4143
  185MOL    H4826176   3.794   4.272   1.545 -1.2407  1.4581  0.1178
  185MOL    H4926177   3.887   4.475   1.749 -1.1453  1.2954 -0.0159
  185MOL    H5026178   3.737   4.596   1.645  0.9627 -0.7596  2.1002
  185MOL    C5126179   3.689   4.390   1.764 -0.5017 -0.1287 -0.3757
  185MOL    C5226180   3.648   4.506   1.857  0.4370  0.0683  0.2883
  185MOL    O5326181   3.615   4.620   1.781  0.2540 -0.9757  0.3461
  185MOL    H5426182   3.599   4.365   1.707 -0.4778 -0.3874 -0.2989
  185MOL    H5526183   3.712   4.307   1.830  0.6591  0.3625 -0.1477
  185MOL    H5626184   3.730   4.541   1.920 -0.9607  1.7459  1.2378
  185MOL    H5726185   3.604   4.695   1.837 -0.9573  0.0169 -1.1924
  185MOL    C5826186   3.519   4.471   1.949  0.1947 -0.4404 -0.5122
  185MOL    C5926187   3.534   4.526   2.088 -0.1727 -0.2891 -0.3838
  185MOL    O6026188   3.417   4.510   2.162  0.6000  0.3120  0.0656
  185MOL    H6126189   3.421   4.503   1.913 -0.8863 -2.6965  0.3431
  185MOL    H6226190   3.491   4.365   1.952 -0.9111 -0.1759 -1.0911
  185MOL    H6326191   3.535   4.634   2.079  0.4968 -0.0000  2.5516
  185MOL    H6426192   3.419   4.573   2.233  1.2830 -0.5200  0.8014
  185MOL    C6526193   3.663   4.483   2.179  0.2683 -0.0918 -0.6024
  185MOL    C6626194   3.698   4.334   2.179 -0.8213  0.2643 -0.1623
  185MOL    O6726195   3.817   4.323   2.261  0.0292  0.0863  0.0800
  185MOL    H6826196   3.753   4.540   2.158  0.3315  0.3004  0.6566
  185MOL    H6926197   3.643   4.509   2.283  0.6350  0.2036 -0.6023
  185MOL    H7026198   3.719   4.307   2.075 -2.2086 -1.3945 -0.0332
  185MOL    H7126199   3.797   4.361   2.345  1.7496  0.6081  0.2764
  185MOL    C7226200   3.586   4.240   2.219 -0.1765 -0.5292 -0.6210
  185MOL    C7326201   3.630   4.091   2.225 -0.3919 -0.1102  0.2242
  185MOL    O7426202   3.533   4.017   2.289  0.4759 -0.0342 -0.2646
  185MOL    H7526203   3.555   4.276   2.317 -0.8014  0.4989 -1.1793
  185MOL    H7626204   3.506   4.243   2.145  1.1534 -1.6648 -2.1364
  185MOL    H7726205   3.721   4.080   2.283 -0.7437  0.7769  0.9669
  185MOL    H7826206   3.529   4.051   2.377 -1.0879  3.2021 -1.4762
  185MOL    C7926207   3.653   4.034   2.086  0.0525  0.3740 -0.0631
  185MOL    C8026208   3.676   3.879   2.074  0.7683 -0.1600  0.5121
  185MOL    O8126209   3.643   3.829   1.942  0.3145 -0.3126 -0.5671
  185MOL    H8226210   3.566   4.053   2.023  0.0550  1.3857  0.2345
  185MOL    H8326211   3.733   4.095   2.043 -1.0398  0.8075 -1.5222
  185MOL    H8426212   3.604   3.828   2.139  1.4769 -1.6226  0.1760
  185MOL    H8526213   3.550   3.810   1.940 -0.0579  0.9286  2.7164
  185MOL    C8626214   3.817   3.823   2.097 -0.9082 -0.0346  0.4832
  185MOL    C8726215   3.861   3.833   2.246  0.2436 -0.5361  0.2633
  185MOL    O8826216   3.857   3.701   2.303  0.3693 -0.5480  0.1680
  185MOL    H8926217   3.824   3.717   2.070  1.2495  0.3826 -0.6653
  185MOL    H9026218   3.892   3.862   2.028  0.3954 -2.7995  0.2672
  185MOL    H9126219   3.793   3.886   2.312 -1.1597 -2.0252  0.0459
  185MOL    H9226220   3.900   3.687   2.386 -3.2643 -0.2416  2.2050
  185MOL    C9326221   4.006   3.886   2.262 -0.2173  0.5181  0.3413
  185MOL    C9426222   4.028   4.035   2.246 -0.3657  0.4688 -0.9733
  185MOL    O9526223   3.961   4.105   2.347 -0.2761  0.2974  0.3192
  185MOL    H9626224   4.044   3.857   2.360 -0.7236 -1.1353  0.0629
  185MOL    H9726225   4.054   3.826   2.184 -0.1311 -1.5307  1.9286
  185MOL    H9826226   3.982   4.066   2.152 -0.1731  0.6658 -1.0022
  185MOL    H9926227   3.913   4.179   2.312  0.4696  0.6223 -0.0250
  185MOL   C10026228   4.175   4.067   2.253 -0.7825 -0.3327  0.4748
  185MOL   C10126229   4.219   4.204   2.207  0.5273  0.3715 -0.1210
  185MOL   O10226230   4.356   4.228   2.253  0.2817  0.1819 -0.1506
  185MOL   H10326231   4.213   4.061   2.355  0.9785  0.4885 -0.1212
  185MOL   H10426232   4.234   3.999   2.191 -0.6987  1.1059 -1.0576
  185MOL   H10526233   4.153   4.276   2.255 -2.0053 -1.4781 -0.7221
  185MOL   H10626234   4.395   4.301   2.209  0.9280 -1.0954 -1.7540
  185MOL   C10726235   4.213   4.223   2.052 -0.5475 -0.0906 -0.0260
  185MOL   C10826236   4.233   4.368   2.003 -0.6440  0.3107  0.1793
  185MOL   O10926237   4.273   4.348   1.868 -0.1048  0.0376 -0.2879
  185MOL   H11026238   4.298   4.162   2.018 -0.3544 -0.3449  0.8772
  185MOL   H11126239   4.122   4.173   2.019  0.4392 -0.5233 -2.2167
  185MOL   H11226240   4.317   4.424   2.046 -0.8339  0.4816  0.3282
  185MOL   H11326241   4.222   4.285   1.820 -1.3672 -1.1002  2.4378
  185MOL   C11426242   4.098   4.447   2.007  0.3414 -1.0222 -0.4887
  185MOL   C11526243   4.091   4.588   1.961  0.2784 -0.4547 -0.1479
  185MOL   O11626244   3.964   4.646   2.013  0.5378  0.2048  0.3441
  185MOL   H11726245   4.017   4.391   1.961  0.8524 -2.4066  0.2550
  185MOL   H11826246   4.075   4.458   2.113 -1.7530 -0.0812 -1.0263
  185MOL   H11926247   4.093   4.573   1.853 -0.9884  1.5137 -0.4768
  185MOL   H12026248   3.971   4.740   2.001 -1.1743  0.4133  0.8281
  185MOL   C12126249   4.208   4.672   2.016 -0.7176  0.8078 -0.5426
  185MOL   C12226250   4.219   4.820   1.986  0.0327 -0.9168  0.6560
  185MOL   O12326251   4.107   4.886   2.043 -0.0067 -0.1249  0.5315
  185MOL   H12426252   4.227   4.661   2.122 -0.2256  2.6702 -0.4100
  185MOL   H12526253   4.299   4.628   1.975 -0.7455 -1.7112  2.0050
  185MOL   H12626254   4.220   4.835   1.878 -3.2331 -0.5849  0.6158
  185MOL   H12726255   4.127   4.973   2.076  1.0447 -0.1077 -0.1362
  185MOL   C12826256   4.349   4.878   2.042  0.5242 -0.3198 -0.1961
  185MOL   C12926257   4.477   4.855   1.969 -0.1711 -0.4109  0.6950
  185MOL   O13026258   4.464   4.911   1.844  0.1692 -0.5925  0.3620
  185MOL   H13126259   4.342   4.986   2.050 -0.8381 -0.4596  0.7217
  185MOL   H13226260   4.368   4.844   2.144 -1.8508  0.9626  0.7151
  185MOL   H13326261   4.489   4.747   1.956 -1.6208 -0.8204  2.4633
  185MOL   H13426262   4.538   4.885   1.791  0.0991 -1.6669  0.7734
  185MOL   C13526263   4.596   4.917   2.039  0.1178  0.3971  0.6329
  185MOL   C13626264   4.625   5.067   1.998  0.6198  0.6016 -0.1558
  185MOL   O13726265   4.754   5.102   2.052  0.2726  0.4850  0.0054
  185MOL   H13826266   4.591   4.904   2.147 -0.3140  3.7398  1.0609
  185MOL   H13926267   4.691   4.865   2.026 -0.0411  0.6245 -1.6039
  185MOL   H14026268   4.547   5.123   2.051  1.0920  1.3696 -0.2765
  185MOL   H14126269   4.812   5.118   1.980 -1.0823  0.4392 -1.1220
  185MOL   H14226270   4.625   5.095   1.893 -0.5547 -1.1450 -0.6415
  186MOL     C126271   3.625   3.746   3.306  0.0466  0.2268  0.2003
  186MOL     C226272   3.755   3.741   3.385 -0.1779 -0.0429  0.3006
  186MOL     O326273   3.731   3.662   3.503  0.7161 -0.2940 -0.2794
  186MOL     H426274   3.592   3.645   3.283  2.3309 -1.1321  2.6048
  186MOL     H526275   3.632   3.806   3.215 -2.3373  2.1576  1.2390
  186MOL     H626276   3.773   3.840   3.429 -1.7563 -0.1828  1.2942
  186MOL     H726277   3.686   3.719   3.562  1.1995  0.8800 -1.0111
  186MOL     H826278   3.540   3.788   3.359  0.0812  2.1769 -1.2327
  186MOL     C926279   3.886   3.685   3.313 -0.4678  0.5483  0.3312
  186MOL    C1026280   3.940   3.767   3.199 -0.3217  0.2077  0.6612
  186MOL    O1126281   4.041   3.854   3.243  0.1722 -0.8345 -0.1605
  186MOL    H1226282   3.965   3.670   3.387 -0.4311 -0.3463  0.1194
  186MOL    H1326283   3.868   3.584   3.276  1.1909 -0.1374  1.3025
  186MOL    H1426284   3.860   3.829   3.158  1.8773  2.2413 -0.7058
  186MOL    H1526285   4.017   3.894   3.325 -0.0366  0.0360 -0.6350
  186MOL    C1626286   4.004   3.675   3.096 -0.2292 -0.2884  0.4163
  186MOL    C1726287   4.063   3.749   2.973 -0.0003  0.0698 -0.1341
  186MOL    O1826288   4.159   3.650   2.930  0.3254 -0.6355 -0.5585
  186MOL    H1926289   4.078   3.614   3.147  0.8731  0.0317 -0.7564
  186MOL    H2026290   3.933   3.605   3.053  0.2958 -0.9154  0.5608
  186MOL    H2126291   4.117   3.838   3.006  0.6276 -0.4693  0.3116
  186MOL    H2226292   4.243   3.652   2.973 -0.5496  0.9003  1.1569
  186MOL    C2326293   3.960   3.784   2.865  0.6052 -0.0681 -1.0346
  186MOL    C2426294   4.034   3.863   2.756  0.6629 -0.4126 -0.3792
  186MOL    O2526295   4.127   3.783   2.688 -0.2848  0.0782  0.3731
  186MOL    H2626296   3.908   3.697   2.825  1.9169 -0.6868 -1.4556
  186MOL    H2726297   3.887   3.855   2.903 -0.2513 -0.5946 -1.6756
  186MOL    H2826298   4.073   3.959   2.792  3.0624 -1.0986 -1.0837
  186MOL    H2926299   4.165   3.726   2.754  0.2175 -2.1620 -1.7647
  186MOL    C3026300   3.936   3.905   2.648 -0.2523 -0.2465 -0.1245
  186MOL    C3126301   3.826   4.003   2.694  0.5819  0.7769  0.4968
  186MOL    O3226302   3.865   4.136   2.705 -0.3093 -0.1971 -0.0171
  186MOL    H3326303   3.988   3.954   2.566  1.5343 -1.4486  0.2579
  186MOL    H3426304   3.889   3.819   2.600  1.1844  0.2471 -2.4993
  186MOL    H3526305   3.782   3.978   2.791  0.0897  0.3839  0.1781
  186MOL    H3626306   3.891   4.167   2.619  1.7171 -1.9740 -0.0998
  186MOL    C3726307   3.709   4.006   2.586  0.0066 -0.4799  0.8448
  186MOL    C3826308   3.588   4.093   2.638  0.6013 -0.3494 -0.4640
  186MOL    O3926309   3.504   4.125   2.531  0.5667  0.1839  0.1001
  186MOL    H4026310   3.750   4.054   2.497 -1.5566  0.0461  0.3779
  186MOL    H4126311   3.683   3.909   2.543  2.2676 -0.0876 -1.5140
  186MOL    H4226312   3.604   4.189   2.688 -2.4821  1.1114 -2.1764
  186MOL    H4326313   3.476   4.214   2.547  0.9389  0.2137  0.6241
  186MOL    C4426314   3.501   4.014   2.734 -0.6854 -0.3477  0.1086
  186MOL    C4526315   3.404   4.099   2.825 -0.7258  0.9325 -0.4500
  186MOL    O4626316   3.303   4.165   2.746  0.0899  0.0044 -0.2752
  186MOL    H4726317   3.450   3.937   2.677  2.4324 -1.1572 -1.6978
  186MOL    H4826318   3.562   3.953   2.801  0.8793  0.1936 -0.8091
  186MOL    H4926319   3.462   4.185   2.858 -0.1718  0.2007  0.4902
  186MOL    H5026320   3.277   4.114   2.670  0.4302  0.3180 -0.6003
  186MOL    C5126321   3.341   4.004   2.933  0.0745  0.7128 -0.3257
  186MOL    C5226322   3.270   4.075   3.042  0.0011 -0.7151  0.0241
  186MOL    O5326323   3.155   4.002   3.066 -0.1847  0.5656 -0.3978
  186MOL    H5426324   3.276   3.932   2.882 -0.9102 -0.4498  2.4619
  186MOL    H5526325   3.425   3.947   2.971 -0.8849 -2.1381 -2.3126
  186MOL    H5626326   3.235   4.170   3.001 -0.3482 -0.4871  0.8324
  186MOL    H5726327   3.113   4.033   3.145  0.7913 -0.4744  0.5553
  186MOL    C5826328   3.339   4.099   3.181 -0.6157 -1.0562 -0.2235
  186MOL    C5926329   3.292   4.220   3.268  0.3422 -0.1361 -0.0656
  186MOL    O6026330   3.144   4.227   3.261 -0.6475 -0.3071 -0.3118
  186MOL    H6126331   3.331   4.011   3.245 -1.9132  0.0662  1.1934
  186MOL    H6226332   3.444   4.108   3.151 -0.4499 -1.3363  0.2650
  186MOL    H6326333   3.340   4.306   3.222 -2.2218  0.1036 -2.4395
  186MOL    H6426334   3.108   4.296   3.207 -0.3698  0.9343  1.0608
  186MOL    C6526335   3.347   4.206   3.414  0.7378  0.0083  0.5178
  186MOL    C6626336   3.490   4.249   3.432 -0.1652 -0.7605 -0.2147
  186MOL    O6726337   3.512   4.380   3.379  0.5542 -0.6824 -0.5371
  186MOL    H6826338   3.276   4.259   3.477 -0.0087 -0.9265  0.4807
  186MOL    H6926339   3.324   4.103   3.442 -1.7227 -0.1049 -1.7276
  186MOL    H7026340   3.556   4.194   3.366 -0.4939 -2.6818  1.0306
  186MOL    H7126341   3.598   4.406   3.409  0.6240 -0.1355 -1.1913
  186MOL    C7226342   3.520   4.247   3.587  0.4707  0.0818  0.8872
  186MOL    C7326343   3.524   4.105   3.648 -0.3008  0.0172  0.2149
  186MOL    O7426344   3.625   4.015   3.592  0.1129 -0.9531 -0.0519
  186MOL    H7526345   3.612   4.295   3.623 -1.0226  2.6988  1.3395
  186MOL    H7626346   3.445   4.301   3.644 -0.4504  0.6395 -0.7957
  186MOL    H7726347   3.429   4.058   3.625  0.2903 -1.6852  1.1818
  186MOL    H7826348   3.608   3.927   3.622  1.2617 -1.2353 -0.2003
  186MOL    C7926349   3.554   4.102   3.805 -0.1253  0.2291  0.0585
  186MOL    C8026350   3.445   4.160   3.898  0.0199 -0.0075 -0.1281
  186MOL    O8126351   3.335   4.064   3.906  0.4983  0.0975  0.3775
  186MOL    H8226352   3.579   4.002   3.841  0.8278  0.6104  0.4628
  186MOL    H8326353   3.645   4.160   3.820  0.5652 -0.8024 -0.0812
  186MOL    H8426354   3.395   4.249   3.859 -2.9144 -1.4951  0.0694
  186MOL    H8526355   3.284   4.067   3.826  0.1141  1.5115  0.6528
  186MOL    C8626356   3.506   4.198   4.036 -0.0569 -0.0397  0.5067
  186MOL    C8726357   3.562   4.084   4.127  0.5026 -0.4029  0.8771
  186MOL    O8826358   3.678   4.143   4.183  0.5029  0.0567  0.3184
  186MOL    H8926359   3.587   4.268   4.016 -0.7643  0.8278  0.6897
  186MOL    H9026360   3.440   4.256   4.101  3.6631  2.5218  2.1702
  186MOL    H9126361   3.596   3.995   4.072 -0.0912  0.7425 -1.3964
  186MOL    H9226362   3.644   4.224   4.219 -3.6823 -1.1448 -0.6633
  186MOL    C9326363   3.457   4.044   4.240  0.2868  0.3283  0.0894
  186MOL    C9426364   3.513   3.935   4.334  0.2569  0.5429  0.3469
  186MOL    O9526365   3.425   3.921   4.444  0.2837  0.1992 -0.2478
  186MOL    H9626366   3.408   4.129   4.288 -0.9673 -0.3934  0.1131
  186MOL    H9726367   3.364   4.006   4.199  0.0467  0.7455  0.2482
  186MOL    H9826368   3.608   3.968   4.377 -0.1992  0.8896  1.1033
  186MOL    H9926369   3.477   3.913   4.523  0.2037 -0.0110 -0.2160
  186MOL   C10026370   3.526   3.800   4.261  0.1748 -0.0450 -0.6453
  186MOL   C10126371   3.594   3.688   4.344  0.3113 -0.1243  1.3112
  186MOL   O10226372   3.582   3.562   4.276 -0.4875  0.1478  0.1493
  186MOL   H10326373   3.433   3.771   4.211 -0.5500 -0.8920  1.1650
  186MOL   H10426374   3.587   3.823   4.173  2.1970 -0.5285  0.5908
  186MOL   H10526375   3.544   3.680   4.441  0.9665  0.1072  1.6790
  186MOL   H10626376   3.579   3.589   4.186  0.2793 -2.9780 -0.8460
  186MOL   C10726377   3.752   3.707   4.364  0.9096 -0.5796  0.3092
  186MOL   C10826378   3.828   3.592   4.433 -0.7264 -0.2099  0.3168
  186MOL   O10926379   3.963   3.620   4.415  0.0030  0.8005 -0.1882
  186MOL   H11026380   3.803   3.725   4.270  0.5022  1.8554  0.5212
  186MOL   H11126381   3.767   3.794   4.428  0.4436  1.9693 -2.9745
  186MOL   H11226382   3.800   3.499   4.383 -0.3348 -1.1779  1.8350
  186MOL   H11326383   4.008   3.550   4.460 -2.2824 -0.8235 -0.3015
  186MOL   C11426384   3.793   3.588   4.578 -0.8530  0.3211 -0.1583
  186MOL   C11526385   3.780   3.450   4.646  0.5461  0.1858  0.0052
  186MOL   O11626386   3.910   3.396   4.645  0.5159 -1.1024 -0.2174
  186MOL   H11726387   3.862   3.644   4.641  0.2545 -1.1927  0.0009
  186MOL   H11826388   3.696   3.637   4.592 -1.2636 -0.9039  1.4435
  186MOL   H11926389   3.718   3.375   4.598  1.2960 -1.6681  1.8670
  186MOL   H12026390   3.955   3.442   4.715 -1.4129  0.7707 -0.1400
  186MOL   C12126391   3.733   3.463   4.786  0.0699 -0.0102  0.2399
  186MOL   C12226392   3.714   3.331   4.862 -0.1342  0.0080 -0.3435
  186MOL   O12326393   3.719   3.356   5.003  0.2072 -0.3251  0.3422
  186MOL   H12426394   3.802   3.526   4.843 -0.8118  1.2208 -0.0242
  186MOL   H12526395   3.635   3.510   4.798 -0.8084 -1.6389 -0.4141
  186MOL   H12626396   3.803   3.269   4.849  0.3695  0.9510 -1.5059
  186MOL   H12726397   3.699   3.284   5.060 -0.6362  1.1840  2.0160
  186MOL   C12826398   3.582   3.255   4.828 -0.8845  0.5291 -0.0184
  186MOL   C12926399   3.591   3.104   4.858 -0.2898 -0.0522 -0.0656
  186MOL   O13026400   3.564   3.077   5.000 -0.1195 -0.5016 -0.0434
  186MOL   H13126401   3.495   3.308   4.867 -2.4460 -1.7163 -0.3453
  186MOL   H13226402   3.577   3.266   4.719 -1.9769  0.7845  0.0489
  186MOL   H13326403   3.692   3.063   4.847 -0.9607 -2.0195  0.9149
  186MOL   H13426404   3.588   2.987   5.016 -1.0869 -0.7724 -0.0943
  186MOL   C13526405   3.495   3.030   4.769 -0.1624  0.2385  0.1983
  186MOL   C13626406   3.495   2.879   4.772  0.2375 -0.6934 -0.2640
  186MOL   O13726407   3.407   2.832   4.663 -0.6408 -0.1945 -0.1007
  186MOL   H13826408   3.391   3.059   4.780 -0.6661 -1.4198  0.0380
  186MOL   H13926409   3.514   3.057   4.666 -1.7600  2.6158  0.5005
  186MOL   H14026410   3.452   2.843   4.865 -0.6408  1.8946  0.3844
  186MOL   H14126411   3.430   2.743   4.643 -1.1772 -0.7087  1.5730
  186MOL   H14226412   3.596   2.838   4.775  0.7873  0.6795  0.4992
  187MOL     C126413   0.668   4.548   6.553 -0.4451  0.4859  0.6445
  187MOL     C226414   0.659   4.396   6.591 -0.0123 -0.2034  0.8253
  187MOL     O326415   0.660   4.315   6.470 -0.3898 -0.1734  0.0997
  187MOL     H426416   0.581   4.591   6.504 -0.8897 -2.0281 -0.8705
  187MOL     H526417   0.753   4.567   6.488  0.1433  0.0406  1.2701
  187MOL     H626418   0.564   4.385   6.643 -0.3590  3.6925  1.1939
  187MOL     H726419   0.728   4.340   6.410 -2.3964  0.0576 -2.1500
  187MOL     H826420   0.673   4.602   6.647  1.0584 -2.4809  2.3618
  187MOL     C926421   0.782   4.355   6.685 -0.3085 -0.1377  0.1093
  187MOL    C1026422   0.769   4.402   6.830 -0.5018 -0.0040  0.8151
  187MOL    O1126423   0.664   4.336   6.892  0.0016  0.5656 -0.2032
  187MOL    H1226424   0.800   4.247   6.690 -0.7976 -0.1294  2.3838
  187MOL    H1326425   0.872   4.389   6.633 -0.4539 -1.7124 -1.2446
  187MOL    H1426426   0.743   4.508   6.828 -1.5351 -0.2717 -0.2421
  187MOL    H1526427   0.585   4.348   6.840 -0.3380  1.1395  0.4370
  187MOL    C1626428   0.893   4.391   6.909  0.3465 -0.1714 -0.4424
  187MOL    C1726429   0.990   4.513   6.902 -0.1044 -0.2149  0.6606
  187MOL    O1826430   0.947   4.627   6.980 -0.3777 -0.2904 -0.5689
  187MOL    H1926431   0.881   4.382   7.017  0.9430  0.0722 -0.3566
  187MOL    H2026432   0.949   4.301   6.886 -0.3053 -1.3359  2.3017
  187MOL    H2126433   1.001   4.553   6.801 -3.7327 -0.3596  0.1538
  187MOL    H2226434   0.938   4.600   7.070 -0.3154 -1.1687 -0.8226
  187MOL    C2326435   1.136   4.489   6.950  0.5639  0.3374 -0.4301
  187MOL    C2426436   1.222   4.391   6.871  0.4908 -0.1743  1.0084
  187MOL    O2526437   1.188   4.254   6.910  0.0300  0.4855 -0.6829
  187MOL    H2626438   1.193   4.582   6.949  0.0717  0.6691  0.5266
  187MOL    H2726439   1.139   4.451   7.052  1.0534 -0.6364 -0.8059
  187MOL    H2826440   1.329   4.406   6.890  1.3238 -1.2232 -2.4956
  187MOL    H2926441   1.257   4.199   6.875 -1.0268 -2.8809  2.1486
  187MOL    C3026442   1.207   4.401   6.715  1.1338  0.0081  0.2975
  187MOL    C3126443   1.244   4.550   6.660 -0.5846 -0.0523  0.0851
  187MOL    O3226444   1.381   4.555   6.661  0.0187 -0.1268  0.0168
  187MOL    H3326445   1.268   4.329   6.661  4.1816  1.6051  1.5069
  187MOL    H3426446   1.104   4.379   6.686  0.1368  1.8348  2.2800
  187MOL    H3526447   1.213   4.633   6.724  1.9687  1.2681 -0.3315
  187MOL    H3626448   1.405   4.547   6.753  0.9201 -2.7366 -0.4127
  187MOL    C3726449   1.215   4.576   6.508  0.6974  0.2583 -0.3659
  187MOL    C3826450   1.075   4.567   6.465  0.5917 -0.5012 -0.5810
  187MOL    O3926451   1.004   4.663   6.541 -0.0266  0.0205 -0.8421
  187MOL    H4026452   1.254   4.670   6.469 -0.4807  0.5434 -0.8738
  187MOL    H4126453   1.274   4.505   6.451  1.0876  0.3278 -0.0556
  187MOL    H4226454   1.035   4.465   6.475  1.4905 -0.9316 -1.3041
  187MOL    H4326455   1.054   4.743   6.539  1.7400 -1.0932 -1.9452
  187MOL    C4426456   1.052   4.602   6.323 -0.3623  0.3920 -0.3633
  187MOL    C4526457   1.125   4.520   6.220 -0.5291 -0.5784  0.5046
  187MOL    O4626458   1.094   4.378   6.220 -0.0043 -0.5982  0.2556
  187MOL    H4726459   0.945   4.606   6.303 -0.3912 -2.3022 -0.8252
  187MOL    H4826460   1.085   4.706   6.310 -0.0024  0.1142 -1.7046
  187MOL    H4926461   1.233   4.528   6.232 -0.1157 -2.0285 -1.8371
  187MOL    H5026462   1.118   4.359   6.131  0.6590  4.6480 -0.8590
  187MOL    C5126463   1.102   4.586   6.083  0.0215  0.0921 -0.2086
  187MOL    C5226464   1.210   4.556   5.968  0.7199 -0.2553 -0.3022
  187MOL    O5326465   1.213   4.411   5.953 -0.7830 -0.4223  0.0681
  187MOL    H5426466   1.002   4.566   6.042 -0.1296  1.1539 -0.3656
  187MOL    H5526467   1.105   4.695   6.090  3.7845  0.0237  0.1762
  187MOL    H5626468   1.307   4.592   6.004  0.8013 -0.2746 -0.5000
  187MOL    H5726469   1.269   4.394   5.879  0.5333  0.5555  0.8055
  187MOL    C5826470   1.197   4.639   5.840 -0.2649  0.1145  0.2411
  187MOL    C5926471   1.318   4.620   5.743 -0.3448 -0.4282 -0.6305
  187MOL    O6026472   1.331   4.487   5.698  0.2347  0.3996 -0.3816
  187MOL    H6126473   1.102   4.609   5.794  0.1111 -1.6851  0.5740
  187MOL    H6226474   1.192   4.745   5.861  3.2115  0.4123 -0.2090
  187MOL    H6326475   1.407   4.641   5.802 -0.8789  2.0748 -0.6606
  187MOL    H6426476   1.415   4.456   5.728  0.9025  1.2064 -1.3712
  187MOL    C6526477   1.311   4.717   5.624  0.0321 -0.0411 -0.0027
  187MOL    C6626478   1.409   4.846   5.626 -0.0726  0.3732 -0.1313
  187MOL    O6726479   1.494   4.838   5.512  0.3406 -0.2699  0.1167
  187MOL    H6826480   1.320   4.665   5.529  1.7083  3.4938 -1.8716
  187MOL    H6926481   1.211   4.759   5.621  0.2123  0.2402 -2.4443
  187MOL    H7026482   1.474   4.833   5.712 -0.1580 -0.3004 -0.1641
  187MOL    H7126483   1.561   4.773   5.526  0.9401  0.6138  1.3574
  187MOL    C7226484   1.330   4.984   5.619 -0.1286 -0.0720 -0.6859
  187MOL    C7326485   1.267   5.040   5.746  0.1421  0.5940  0.1338
  187MOL    O7426486   1.351   5.095   5.845 -0.4008  0.0938  0.3728
  187MOL    H7526487   1.413   5.053   5.608  1.5810 -1.7089  1.5367
  187MOL    H7626488   1.271   4.983   5.527 -0.2964  3.2969 -0.6583
  187MOL    H7726489   1.218   4.961   5.804  3.2091 -0.5768  1.1891
  187MOL    H7826490   1.342   5.048   5.926  2.0645 -0.2488  0.4795
  187MOL    C7926491   1.162   5.150   5.721 -0.1531  0.1240 -0.1463
  187MOL    C8026492   1.054   5.122   5.616 -0.2068  0.9284  0.7072
  187MOL    O8126493   0.975   5.014   5.662 -0.0028 -0.4308 -0.1211
  187MOL    H8226494   1.122   5.180   5.817 -0.0493 -1.2621  0.3453
  187MOL    H8326495   1.201   5.240   5.674 -0.0367 -0.7682 -1.8221
  187MOL    H8426496   1.104   5.093   5.523 -0.7200 -2.7922  1.5279
  187MOL    H8526497   0.955   4.956   5.590 -1.7330 -2.3994  1.8938
  187MOL    C8626498   0.960   5.239   5.578 -0.2099  0.4248  0.3906
  187MOL    C8726499   0.873   5.310   5.683 -0.3100  0.3925  0.2121
  187MOL    O8826500   0.798   5.410   5.620  0.5845  0.0418  0.3313
  187MOL    H8926501   1.022   5.326   5.556 -0.1101  0.3984  0.5617
  187MOL    H9026502   0.912   5.215   5.483  2.3151  1.5758 -1.2186
  187MOL    H9126503   0.942   5.359   5.752  1.2964  2.7094 -2.9385
  187MOL    H9226504   0.751   5.366   5.551  3.5324 -0.1760 -1.6159
  187MOL    C9326505   0.774   5.218   5.762 -0.1128 -0.2113  0.6901
  187MOL    C9426506   0.717   5.288   5.885 -0.1193  0.7796  0.0446
  187MOL    O9526507   0.630   5.189   5.947 -0.7346  0.0258  0.3166
  187MOL    H9626508   0.693   5.183   5.698  2.9953 -0.3813 -3.3622
  187MOL    H9726509   0.827   5.131   5.800 -0.4083 -0.2996  0.9023
  187MOL    H9826510   0.642   5.361   5.855 -1.6197 -0.4806  0.7196
  187MOL    H9926511   0.626   5.209   6.039 -0.8280  0.8664  0.1373
  187MOL   C10026512   0.822   5.341   5.985  0.2694 -0.2237 -0.1102
  187MOL   C10126513   0.758   5.405   6.106 -0.6742  0.4883 -0.1255
  187MOL   O10226514   0.715   5.293   6.186  0.0565 -0.2472 -0.0213
  187MOL   H10326515   0.897   5.265   6.008  0.5851 -0.1112 -0.7338
  187MOL   H10426516   0.867   5.428   5.938  1.2645 -0.4360  0.4327
  187MOL   H10526517   0.664   5.454   6.082 -1.7221 -1.0930  0.6726
  187MOL   H10626518   0.672   5.325   6.264 -0.4942 -0.8619 -0.0735
  187MOL   C10726519   0.840   5.490   6.196  0.0156 -0.5244 -0.6082
  187MOL   C10826520   0.872   5.631   6.134 -0.2105  0.8543  0.6728
  187MOL   O10926521   0.759   5.715   6.144 -0.4282 -0.0888 -0.1331
  187MOL   H11026522   0.787   5.500   6.291 -0.4104 -0.4889 -0.8469
  187MOL   H11126523   0.932   5.435   6.217  0.7958  0.9652 -0.0841
  187MOL   H11226524   0.913   5.627   6.033  0.5362  1.3010  0.9495
  187MOL   H11326525   0.722   5.716   6.057 -1.7268 -0.7369  0.3864
  187MOL   C11426526   0.984   5.720   6.191  0.0905 -0.6091 -0.3933
  187MOL   C11526527   1.007   5.710   6.343  0.2383 -0.0702  0.0587
  187MOL   O11626528   1.114   5.795   6.366 -0.2005  0.3161  0.9702
  187MOL   H11726529   1.077   5.697   6.140  1.0078 -0.5599  1.2302
  187MOL   H11826530   0.968   5.822   6.158  2.6123  0.3785  1.3214
  187MOL   H11926531   1.044   5.608   6.358  0.3650 -0.0339 -0.0029
  187MOL   H12026532   1.194   5.756   6.335  0.0447  0.2685  1.6537
  187MOL   C12126533   0.880   5.743   6.428 -0.3544  0.4045 -0.1765
  187MOL   C12226534   0.810   5.883   6.398  0.2661 -0.1912 -0.3158
  187MOL   O12326535   0.673   5.856   6.433  0.4992  0.0202 -0.2846
  187MOL   H12426536   0.810   5.661   6.414  0.2706 -0.2533  0.5246
  187MOL   H12526537   0.901   5.746   6.535 -0.2287 -1.9603 -0.1105
  187MOL   H12626538   0.822   5.907   6.292 -0.4457  2.7242  0.2144
  187MOL   H12726539   0.638   5.784   6.383 -0.9475 -1.1682  2.3673
  187MOL   C12826540   0.875   6.000   6.485 -0.5923 -0.4840  0.4351
  187MOL   C12926541   0.793   6.132   6.479 -0.5838  0.0247  0.2413
  187MOL   O13026542   0.830   6.197   6.596 -0.2036  0.1551 -0.1140
  187MOL   H13126543   0.880   5.960   6.586 -0.5628 -0.3063  0.5042
  187MOL   H13226544   0.976   6.017   6.447 -0.5874 -0.6872  0.3543
  187MOL   H13326545   0.686   6.114   6.482 -1.1716  3.1703 -0.3699
  187MOL   H13426546   0.899   6.145   6.633  0.4042 -0.3661 -1.9155
  187MOL   C13526547   0.808   6.230   6.361  0.3503  0.3188 -0.3344
  187MOL   C13626548   0.743   6.197   6.235  1.0076  0.5503 -0.4263
  187MOL   O13726549   0.792   6.275   6.125  0.3519  0.3130 -0.2846
  187MOL   H13826550   0.778   6.333   6.379  0.6649  0.2464  0.6215
  187MOL   H13926551   0.915   6.238   6.343  0.4618  0.5907  0.4016
  187MOL   H14026552   0.635   6.214   6.234  0.6035 -1.5400  1.8062
  187MOL   H14126553   0.770   6.241   6.039 -1.4104  1.1204 -0.1717
  187MOL   H14226554   0.740   6.093   6.202 -3.5614 -0.4394  2.6956
  188MOL     C126555   6.532   1.307   7.439 -0.8907  0.1555  0.9272
  188MOL     C226556   6.403   1.385   7.418 -0.1711 -0.9405 -0.7626
  188MOL     O326557   6.328   1.383   0.019  0.7834 -0.2239  0.5015
  188MOL     H426558   6.583   1.305   7.343 -0.8313  0.3670  0.9538
  188MOL     H526559   6.501   1.207   7.470 -0.6061  0.0070  0.7328
  188MOL     H626560   6.348   1.330   7.342  1.5730 -3.2331 -0.4326
  188MOL     H726561   6.239   1.404   7.517  1.0251 -0.0401 -0.3219
  188MOL     H826562   6.600   1.348   7.514  1.4944  1.6306 -1.9554
  188MOL     C926563   6.424   1.528   7.363  0.7537 -0.0642 -0.3193
  188MOL    C1026564   6.302   1.622   7.358  0.5645 -0.3010 -0.1601
  188MOL    O1126565   6.367   1.750   7.342  0.3612 -0.4859 -0.0916
  188MOL    H1226566   6.498   1.578   7.426  0.1436  0.3711  0.0642
  188MOL    H1326567   6.469   1.518   7.264  2.5002  0.0620  0.4396
  188MOL    H1426568   6.244   1.624   7.451 -1.7591 -2.3032 -1.5040
  188MOL    H1526569   6.298   1.806   7.309  2.1115  1.8880  0.1866
  188MOL    C1626570   6.211   1.588   7.245  0.3834  0.0266 -0.0388
  188MOL    C1726571   6.076   1.663   7.245  0.6270 -0.7588 -0.1487
  188MOL    O1826572   6.092   1.795   7.199 -0.0173  0.5551  1.1333
  188MOL    H1926573   6.264   1.598   7.150  3.3449  3.1897  1.8183
  188MOL    H2026574   6.185   1.482   7.251 -0.4917  0.2163 -0.4792
  188MOL    H2126575   6.043   1.680   7.348 -2.1117 -2.0812 -0.7634
  188MOL    H2226576   6.015   1.848   7.210 -0.2610 -0.0509  2.4553
  188MOL    C2326577   5.970   1.597   7.162  0.1277 -0.3970 -1.0235
  188MOL    C2426578   5.900   1.474   7.227  0.2006  0.4000 -0.1923
  188MOL    O2526579   5.846   1.508   7.356 -0.0792  0.3855  0.0494
  188MOL    H2626580   5.879   1.657   7.150 -0.3295 -1.5201 -3.4142
  188MOL    H2726581   6.021   1.574   7.069  2.2569 -0.3710  0.1064
  188MOL    H2826582   5.976   1.397   7.242  0.6029  0.3992 -2.1111
  188MOL    H2926583   5.787   1.582   7.352  0.0780  0.5317  0.4543
  188MOL    C3026584   5.799   1.413   7.129  0.3548  0.1023  0.0545
  188MOL    C3126585   5.743   1.281   7.194 -0.2969 -0.5983 -0.1142
  188MOL    O3226586   5.657   1.308   7.303  0.3282  0.0280  0.3179
  188MOL    H3326587   5.713   1.473   7.101  1.5291  0.3473 -3.1983
  188MOL    H3426588   5.854   1.386   7.038 -0.6498  3.1555 -1.5082
  188MOL    H3526589   5.827   1.220   7.228  0.1712 -0.2007 -0.5399
  188MOL    H3626590   5.694   1.380   7.352  0.3346 -0.7279  1.4324
  188MOL    C3726591   5.655   1.196   7.094 -0.2997 -0.7710  0.3006
  188MOL    C3826592   5.735   1.156   6.964 -0.6286  0.1604  0.3875
  188MOL    O3926593   5.855   1.091   7.007  0.0366  0.0483  0.0584
  188MOL    H4026594   5.615   1.114   7.153  2.8364 -1.6803  1.2982
  188MOL    H4126595   5.568   1.256   7.067 -1.0784 -1.3408  1.5197
  188MOL    H4226596   5.761   1.247   6.911 -1.7466  1.0588  1.3511
  188MOL    H4326597   5.826   1.009   7.044 -2.1148  0.0339 -1.5535
  188MOL    C4426598   5.660   1.056   6.877  0.2080  0.0296  0.9407
  188MOL    C4526599   5.638   0.908   6.929  0.2682 -0.1050  0.0863
  188MOL    O4626600   5.533   0.923   7.024  0.2053  0.7957 -0.8853
  188MOL    H4726601   5.565   1.105   6.857  1.1042  1.7316  0.8037
  188MOL    H4826602   5.706   1.049   6.779 -0.9203 -1.5762  0.5145
  188MOL    H4926603   5.725   0.866   6.979  0.8566 -0.2669 -1.0649
  188MOL    H5026604   5.455   0.885   6.985 -0.6747  1.2707  0.3874
  188MOL    C5126605   5.598   0.800   6.818  0.7822  0.1368  0.7549
  188MOL    C5226606   5.589   0.656   6.875  0.1923  0.7310  0.0264
  188MOL    O5326607   5.530   0.572   6.778  0.2287 -0.3579 -0.3880
  188MOL    H5426608   5.500   0.832   6.783  0.4701  0.5184  1.9577
  188MOL    H5526609   5.671   0.792   6.739 -0.3582  0.6786 -0.3698
  188MOL    H5626610   5.520   0.670   6.959  0.8124 -0.1747  0.6956
  188MOL    H5726611   5.451   0.539   6.816  1.1362 -0.2639  1.6452
  188MOL    C5826612   5.726   0.595   6.914  0.1833 -0.3876  0.1563
  188MOL    C5926613   5.732   0.448   6.969  0.0058 -0.2415 -0.9563
  188MOL    O6026614   5.862   0.405   6.980  0.6858  0.3071  0.0809
  188MOL    H6126615   5.798   0.605   6.834 -0.0259  3.2362  0.3382
  188MOL    H6226616   5.774   0.648   6.997 -2.2330  1.1983  0.5985
  188MOL    H6326617   5.673   0.383   6.905 -0.7355 -0.2342 -0.2811
  188MOL    H6426618   5.916   0.459   6.925 -0.8830  1.8597  0.0051
  188MOL    C6526619   5.664   0.447   7.111 -0.0727  0.1615  0.2390
  188MOL    C6626620   5.635   0.302   7.177 -0.4209 -0.2880  0.4408
  188MOL    O6726621   5.726   0.290   7.286  0.3624  0.0022 -0.5795
  188MOL    H6826622   5.736   0.494   7.177 -0.8098 -3.1614  3.5188
  188MOL    H6926623   5.574   0.509   7.115 -0.1252  0.0878  0.1955
  188MOL    H7026624   5.663   0.221   7.110  0.8317  0.3786  0.1394
  188MOL    H7126625   5.811   0.269   7.251  1.9373  2.2076  1.7133
  188MOL    C7226626   5.493   0.287   7.249  0.3177  0.0220 -0.0345
  188MOL    C7326627   5.362   0.330   7.178  0.3922  0.5369 -1.1923
  188MOL    O7426628   5.346   0.265   7.057 -0.1730  0.0607  0.2640
  188MOL    H7526629   5.501   0.184   7.282  4.5923  0.4356  0.4939
  188MOL    H7626630   5.493   0.340   7.344 -1.0483 -0.6143  0.3330
  188MOL    H7726631   5.373   0.435   7.152 -1.6011  0.1837 -3.6274
  188MOL    H7826632   5.379   0.176   7.065  0.1807  0.1409 -0.2771
  188MOL    C7926633   5.234   0.309   7.268  0.2781 -0.6100  0.1642
  188MOL    C8026634   5.214   0.414   7.375  0.2099  0.7833 -0.6015
  188MOL    O8126635   5.193   0.540   7.307 -0.8599  0.3391 -0.1299
  188MOL    H8226636   5.142   0.291   7.213  1.3765 -1.7294 -1.3237
  188MOL    H8326637   5.248   0.215   7.321 -0.4207 -1.6937 -1.5372
  188MOL    H8426638   5.312   0.431   7.421  0.6810 -1.2657 -0.8095
  188MOL    H8526639   5.281   0.574   7.305 -0.9825  0.6177 -0.9306
  188MOL    C8626640   5.097   0.389   7.472  0.7891  0.3728 -0.2525
  188MOL    C8726641   4.954   0.371   7.415  0.1132  0.7135 -0.5164
  188MOL    O8826642   4.930   0.229   7.412  0.2673 -0.0597  0.2458
  188MOL    H8926643   5.122   0.296   0.003 -1.9678  0.4845  1.4116
  188MOL    H9026644   5.107   0.475   0.019 -1.5136  0.7393 -0.3338
  188MOL    H9126645   4.962   0.397   7.310  1.7591 -1.2090 -0.8885
  188MOL    H9226646   4.915   0.197   7.499  0.1715  1.1619  0.6893
  188MOL    C9326647   4.853   0.461   7.490  0.3311 -0.5255  0.6763
  188MOL    C9426648   4.716   0.450   7.420 -0.2880  0.4694 -0.5496
  188MOL    O9526649   4.605   0.477   7.510  0.4053 -0.5554 -0.1147
  188MOL    H9626650   4.840   0.423   0.072  0.5200  0.1185  0.9444
  188MOL    H9726651   4.876   0.566   7.507 -1.3646 -0.1850  0.9482
  188MOL    H9826652   4.702   0.351   7.376  0.1252 -0.8992  2.2768
  188MOL    H9926653   4.589   0.397   0.038  0.6623 -0.4992  0.0690
  188MOL   C10026654   4.709   0.551   7.307  0.4058 -0.1820 -0.4773
  188MOL   C10126655   4.578   0.560   7.223 -0.3705  0.2201  0.6612
  188MOL   O10226656   4.588   0.682   7.145  0.5090 -0.1923 -0.0235
  188MOL   H10326657   4.730   0.644   7.360 -0.3021 -0.4143  0.2273
  188MOL   H10426658   4.794   0.526   7.244  2.1643 -1.5806  2.3532
  188MOL   H10526659   4.500   0.571   7.298  0.8212 -0.4802  2.0475
  188MOL   H10626660   4.629   0.743   7.203 -0.6161 -0.4876  1.1005
  188MOL   C10726661   4.546   0.435   7.141  0.0812  0.6298 -0.1980
  188MOL   C10826662   4.389   0.397   7.154  0.0340 -0.5241  0.3609
  188MOL   O10926663   4.359   0.309   7.047 -0.4541 -0.1721 -0.6400
  188MOL   H11026664   4.562   0.455   7.035 -1.8019 -0.2775 -0.6781
  188MOL   H11126665   4.609   0.350   7.168 -0.8159 -0.7905 -2.4230
  188MOL   H11226666   4.328   0.486   7.144  1.4760  0.3684 -0.8148
  188MOL   H11326667   4.399   0.342   6.969  1.5057 -1.5211 -0.2466
  188MOL   C11426668   4.368   0.332   7.292  0.3908 -0.4990  0.1255
  188MOL   C11526669   4.230   0.267   7.321  0.5488  0.1003  0.0419
  188MOL   O11626670   4.223   0.152   7.244 -0.0581 -0.2827  0.0021
  188MOL   H11726671   4.451   0.263   7.311  2.1030  0.7355 -2.6046
  188MOL   H11826672   4.386   0.406   7.370 -2.3079 -0.0074  0.3225
  188MOL   H11926673   4.149   0.334   7.292  0.8953  0.0981 -0.9428
  188MOL   H12026674   4.253   0.192   7.164  0.6167 -1.0640 -0.1445
  188MOL   C12126675   4.211   0.234   7.471  0.5454  0.3706 -0.1540
  188MOL   C12226676   4.132   0.327   0.050 -0.4096 -0.4245  0.3378
  188MOL   O12326677   4.124   0.252   0.170 -0.5970 -0.5427  0.3710
  188MOL   H12426678   4.164   0.137   7.485 -0.4357  0.7039 -1.1017
  188MOL   H12526679   4.311   0.219   7.512  1.7244  2.0934 -2.2775
  188MOL   H12626680   4.030   0.343   0.013  0.2290  1.9486 -0.4549
  188MOL   H12726681   4.067   0.290   0.236  0.7393  1.3519  0.4688
  188MOL   C12826682   4.209   0.459   0.074  0.1551  0.5811 -0.7546
  188MOL   C12926683   4.177   0.579   7.487  0.7989 -0.3397  0.1785
  188MOL   O13026684   4.044   0.625   7.519  0.3037 -0.1005  0.2106
  188MOL   H13126685   4.194   0.495   0.176  0.6861 -2.1983  0.3605
  188MOL   H13226686   4.316   0.438   0.064  0.4116  0.8394  1.1767
  188MOL   H13326687   4.174   0.540   7.385  0.5097 -1.3598  0.5681
  188MOL   H13426688   3.989   0.631   7.443  0.4781 -1.0967 -0.0088
  188MOL   C13526689   4.268   0.700   7.501 -0.1536 -0.0344  0.0888
  188MOL   C13626690   4.240   0.813   7.394  0.3810  0.1532  0.0518
  188MOL   O13726691   4.338   0.914   7.431 -0.7407 -0.1240  0.0336
  188MOL   H13826692   4.256   0.747   0.079  0.1444  2.9662 -1.2471
  188MOL   H13926693   4.374   0.678   7.487 -0.1739  0.2954 -0.6285
  188MOL   H14026694   4.143   0.858   7.414 -0.5661 -1.4453 -0.8796
  188MOL   H14126695   4.328   0.941   0.002 -1.9090 -3.1975  0.9038
  188MOL   H14226696   4.250   0.777   7.292  1.3121  1.2874 -0.2739
  189MOL     C126697   5.685   0.097   5.666 -0.5042  0.7585  0.3111
  189MOL     C226698   5.737   7.479   5.618 -0.4198 -0.2376 -0.0193
  189MOL     O326699   5.734   7.398   5.738 -0.1206  0.3601  0.2476
  189MOL     H426700   5.765   0.141   5.726  0.2503 -0.9982  0.6291
  189MOL     H526701   5.588   0.093   5.716 -0.4852 -0.4087  0.2722
  189MOL     H626702   5.842   7.495   5.597 -0.2669 -0.8230  0.2756
  189MOL     H726703   5.776   7.316   5.716 -0.1633  0.6046 -0.7695
  189MOL     H826704   5.681   0.155   5.574 -0.6676  1.8173  0.9860
  189MOL     C926705   5.652   7.406   5.513 -0.2831  0.7778  0.4536
  189MOL    C1026706   5.643   7.459   5.366 -0.3741 -0.0001  0.4134
  189MOL    O1126707   5.567   0.061   5.366 -0.6530  0.5852 -0.1526
  189MOL    H1226708   5.700   7.308   5.504  0.5337  1.2466 -0.3166
  189MOL    H1326709   5.550   7.382   5.542 -0.0369 -1.2783 -0.2951
  189MOL    H1426710   5.591   7.387   5.303 -0.2847  1.5767 -1.5212
  189MOL    H1526711   5.500   0.047   5.430 -0.2276  0.0641  0.1824
  189MOL    C1626712   5.776   7.495   5.295 -0.0643 -0.0643  0.3096
  189MOL    C1726713   5.777   7.484   5.142  0.2669  0.5380 -0.5573
  189MOL    O1826714   5.855   0.070   5.089 -0.2166 -0.1753  0.4420
  189MOL    H1926715   5.798   0.074   5.338 -0.4150  0.3470 -0.4531
  189MOL    H2026716   5.864   7.435   5.317  2.5691  2.7258 -2.1114
  189MOL    H2126717   5.676   7.500   5.106  0.5728  0.2482 -1.5661
  189MOL    H2226718   5.805   0.151   5.088 -2.7950 -1.7238 -0.8297
  189MOL    C2326719   5.823   7.357   5.076  0.2875 -0.3725 -0.1549
  189MOL    C2426720   5.742   7.235   5.107  0.2750  0.1999 -0.4562
  189MOL    O2526721   5.603   7.252   5.101 -0.1571  0.4951  0.3339
  189MOL    H2626722   5.822   7.371   4.968 -1.9713  1.0033  0.0130
  189MOL    H2726723   5.926   7.347   5.112  0.1786  2.0949  0.8963
  189MOL    H2826724   5.756   7.220   5.214  0.5162 -2.5406 -0.8488
  189MOL    H2926725   5.570   7.224   5.017  0.3045  0.0680  0.2950
  189MOL    C3026726   5.777   7.107   5.032  0.2490  0.4199  0.0746
  189MOL    C3126727   5.928   7.066   5.034 -0.1576  0.2756 -0.0865
  189MOL    O3226728   5.957   7.013   5.154 -0.2699  0.3073  0.4584
  189MOL    H3326729   5.712   7.022   5.056  1.6410 -0.6337  0.1701
  189MOL    H3426730   5.763   7.114   4.925  1.0955  0.9454 -0.0044
  189MOL    H3526731   5.992   7.154   5.024 -0.8827  0.7172 -0.9155
  189MOL    H3626732   5.984   7.085   5.208  0.5856  1.8166 -1.9491
  189MOL    C3726733   5.961   6.956   4.940 -0.4905 -0.0694  0.1478
  189MOL    C3826734   5.989   6.988   4.796  0.4789 -0.5202 -0.4818
  189MOL    O3926735   5.874   7.032   4.725 -0.5857  0.2607 -0.1959
  189MOL    H4026736   6.059   6.913   4.961  0.3216 -0.2702 -3.5523
  189MOL    H4126737   5.884   6.879   4.936 -0.3735 -0.1836  0.1244
  189MOL    H4226738   6.024   6.892   4.759 -0.4005 -1.6951  1.6755
  189MOL    H4326739   5.821   6.957   4.702 -0.0873 -0.7581  1.8602
  189MOL    C4426740   6.099   7.085   4.769 -0.0539  0.5159 -0.3763
  189MOL    C4526741   6.152   7.100   4.626  0.8712  0.5626  0.2664
  189MOL    O4626742   6.169   7.232   4.590 -0.2616 -0.4123 -0.1851
  189MOL    H4726743   6.052   7.178   4.801  1.4108  1.8162 -1.8807
  189MOL    H4826744   6.186   7.071   4.833 -2.2194 -1.5470  2.2277
  189MOL    H4926745   6.072   7.063   4.561  1.0086 -0.9822  0.9519
  189MOL    H5026746   6.105   7.241   4.522  0.1041  3.7805 -0.0631
  189MOL    C5126747   6.279   7.012   4.581  0.0456  0.1743  0.0478
  189MOL    C5226748   6.280   6.863   4.598 -0.1738 -0.0591  0.4790
  189MOL    O5326749   6.180   6.808   4.510  0.5125  0.3561  0.2627
  189MOL    H5426750   6.291   7.020   4.473  1.4854  2.1708  0.3240
  189MOL    H5526751   6.367   7.058   4.626 -0.6784  1.7798 -0.1291
  189MOL    H5626752   6.245   6.842   4.699 -1.5952  2.3149  0.5359
  189MOL    H5726753   6.186   6.853   4.427 -4.3190  2.2078  0.7210
  189MOL    C5826754   6.412   6.795   4.559  0.1773  0.9100 -0.5006
  189MOL    C5926755   6.538   6.843   4.626  0.0394 -0.3955 -0.2913
  189MOL    O6026756   6.530   6.797   4.752 -0.2147  0.2710 -0.2463
  189MOL    H6126757   6.395   6.689   4.578  0.6240  0.3597 -2.9384
  189MOL    H6226758   6.418   6.802   4.450 -1.6272  0.8788 -0.6261
  189MOL    H6326759   6.543   6.951   4.620  0.6005 -0.3321  1.0745
  189MOL    H6426760   6.597   6.829   4.811  0.0416  3.4817 -2.1752
  189MOL    C6526761   6.668   6.803   4.552  0.0098  0.0611  0.3573
  189MOL    C6626762   6.670   6.648   4.510 -0.8352  0.1850 -0.7969
  189MOL    O6726763   6.585   6.628   4.394 -0.0503 -0.5905  0.5018
  189MOL    H6826764   6.686   6.866   4.465  3.1971 -1.2382  0.0190
  189MOL    H6926765   6.754   6.837   4.609  2.3325 -2.0830 -1.7527
  189MOL    H7026766   6.640   6.595   4.600 -0.6093 -1.5279 -1.7229
  189MOL    H7126767   6.557   6.537   4.393 -0.0800 -0.5794 -0.0783
  189MOL    C7226768   6.806   6.583   4.478 -0.0088  0.0935  0.7216
  189MOL    C7326769   6.922   6.588   4.583  0.3610  0.8952  0.4734
  189MOL    O7426770   6.892   6.527   4.705 -0.1583  0.6101 -0.4497
  189MOL    H7526771   6.781   6.480   4.451 -1.6217  0.6339  0.1223
  189MOL    H7626772   6.830   6.636   4.386 -2.4652  0.1202  0.0752
  189MOL    H7726773   6.945   6.694   4.596  2.4010  0.7157 -1.3463
  189MOL    H7826774   6.865   6.595   4.765  1.1131 -0.4434  1.3512
  189MOL    C7926775   7.049   6.512   4.524 -0.2320 -0.4985 -0.5597
  189MOL    C8026776   7.196   6.542   4.584  0.6547 -0.1174  0.0211
  189MOL    O8126777   7.276   6.473   4.494  0.2378  0.1515  0.0010
  189MOL    H8226778   7.026   6.409   4.551 -0.0350 -0.2803  0.4823
  189MOL    H8326779   7.054   6.522   4.416  2.6762  0.7847 -0.3700
  189MOL    H8426780   7.215   6.498   4.682 -2.0444 -2.9256 -0.6275
  189MOL    H8526781   7.365   6.505   4.501  0.2939  0.3102 -1.2610
  189MOL    C8626782   7.245   6.692   4.579  0.4175 -0.0372  0.7489
  189MOL    C8726783   7.382   6.721   4.652 -0.5918 -0.2481 -0.1822
  189MOL    O8826784   7.475   6.682   4.559 -0.0355 -0.5141 -0.1247
  189MOL    H8926785   7.253   6.732   4.478  0.4009  0.7870  1.0621
  189MOL    H9026786   7.172   6.750   4.635  2.2282  1.2240  1.8744
  189MOL    H9126787   7.389   6.664   4.745 -1.6006  1.8147  1.1826
  189MOL    H9226788   7.483   6.749   4.493  1.8152 -1.5723 -1.0312
  189MOL    C9326789   7.412   6.868   4.685 -0.2332 -0.2801  0.2883
  189MOL    C9426790   7.330   6.939   4.795 -1.0758 -0.2064 -0.2330
  189MOL    O9526791   7.345   6.865   4.916  0.0170 -0.0176  0.1308
  189MOL    H9626792   7.519   6.875   4.705 -0.4699 -2.3117  2.4465
  189MOL    H9726793   7.392   6.925   4.594 -0.2560 -1.7209 -0.6244
  189MOL    H9826794   7.228   6.923   4.760 -0.9047  0.3417 -1.0039
  189MOL    H9926795   7.438   6.861   4.932 -0.7292 -1.1007  4.9084
  189MOL   C10026796   7.353   7.085   4.812 -0.3034  0.1508  0.8728
  189MOL   C10126797   7.236   7.177   4.855  0.0800  0.2229  0.4249
  189MOL   O10226798   7.160   7.206   4.744  0.0269 -0.0026 -0.4380
  189MOL   H10326799   7.415   7.096   4.902 -0.4078 -0.6163  1.0379
  189MOL   H10426800   7.403   7.134   4.729 -2.1993  0.9012  0.1562
  189MOL   H10526801   7.285   7.271   4.882  1.1729 -0.2571  0.1265
  189MOL   H10626802   7.193   7.288   4.710  2.3817 -1.5704 -2.0400
  189MOL   C10726803   7.163   7.133   4.979 -0.3300 -0.4623 -0.1950
  189MOL   C10826804   7.245   7.125   5.108 -0.5205  0.5608  0.5615
  189MOL   O10926805   7.280   7.247   5.172  0.0806  0.0978 -0.2124
  189MOL   H11026806   7.073   7.191   5.000  0.1896  0.5517 -0.7250
  189MOL   H11126807   7.117   7.036   4.958  0.2277 -0.7957  0.1267
  189MOL   H11226808   7.339   7.073   5.094 -0.8770  0.2855 -0.8894
  189MOL   H11326809   7.335   7.304   5.120 -0.2028  0.1254 -0.4794
  189MOL   C11426810   7.158   7.035   5.205 -0.1779 -0.2789  0.5740
  189MOL   C11526811   7.227   7.005   5.336 -0.3367  0.4880 -0.2956
  189MOL   O11626812   7.127   6.943   5.410 -0.4865  0.3743  0.3552
  189MOL   H11726813   7.069   7.097   5.215 -1.4938 -1.9353 -0.5048
  189MOL   H11826814   7.126   6.940   5.163 -0.2445  0.0356 -0.0922
  189MOL   H11926815   7.258   7.102   5.376  0.7909 -1.6876  4.4333
  189MOL   H12026816   7.063   7.008   5.436 -0.2356  1.0679 -0.7447
  189MOL   C12126817   7.344   6.904   5.320 -0.2017  1.1808 -0.1246
  189MOL   C12226818   7.444   6.915   5.443  0.2209 -0.0964 -0.5083
  189MOL   O12326819   7.500   6.785   5.471 -0.0216 -0.3077 -0.7129
  189MOL   H12426820   7.293   6.808   5.323  0.4639  0.7056 -2.9454
  189MOL   H12526821   7.400   6.906   5.227  0.4602 -0.4304  0.2330
  189MOL   H12626822   7.390   6.944   5.533  2.8270 -2.1505  1.8227
  189MOL   H12726823   7.482   6.730   5.397 -0.0636 -0.1938 -0.7876
  189MOL   C12826824   0.037   7.017   5.413 -0.2565  0.5054 -0.1023
  189MOL   C12926825   0.104   7.071   5.534 -0.1500  0.6554 -0.7418
  189MOL   O13026826   0.202   7.154   5.492 -0.1390 -0.2254  0.3496
  189MOL   H13126827   0.105   6.965   5.345 -1.2200 -0.3117 -0.4522
  189MOL   H13226828   0.015   7.107   5.356  2.1153  0.8128 -0.5709
  189MOL   H13326829   0.155   6.986   5.577  0.1475  0.3057 -1.7578
  189MOL   H13426830   0.282   7.103   5.491 -1.1395 -1.8618 -0.2197
  189MOL   C13526831   0.013   7.148   5.633  0.3767  0.0777  0.4318
  189MOL   C13626832   0.094   7.222   5.747  0.0298  0.2219  0.0465
  189MOL   O13726833   0.045   7.174   5.870  0.1559  0.2168  0.1606
  189MOL   H13826834   7.462   7.211   5.578 -2.2582 -2.8922  0.2618
  189MOL   H13926835   7.461   7.083   5.684  1.2561 -0.7170  0.6511
  189MOL   H14026836   0.084   7.330   5.741 -1.2773  0.1537  0.6714
  189MOL   H14126837   7.488   7.223   5.897  0.6941  0.2602  1.6141
  189MOL   H14226838   0.198   7.188   5.746 -0.1950 -0.6614  2.6417
  190MOL     C126839   1.421   0.054   0.198  0.3254 -0.0072  0.0473
  190MOL     C226840   1.415   7.426   0.188 -0.3517 -0.4433  0.5643
  190MOL     O326841   1.330   7.406   0.078 -0.1941 -0.0154  0.8473
  190MOL     H426842   1.497   0.096   0.264 -0.5096  1.3769  0.1567
  190MOL     H526843   1.322   0.095   0.222 -0.8293 -1.6755 -1.7381
  190MOL     H626844   1.374   7.387   0.281 -1.1325  0.8219  0.7614
  190MOL     H726845   1.381   7.371   0.006 -1.5757  0.1626 -0.2274
  190MOL     H826846   1.451   0.106   0.107  0.0456  1.5043  0.7959
  190MOL     C926847   1.549   7.356   0.148 -0.2173 -0.4769  0.3707
  190MOL    C1026848   1.620   7.307   0.272 -0.3077  0.5242 -0.3198
  190MOL    O1126849   1.534   7.213   0.335 -0.5450  0.3804 -0.0568
  190MOL    H1226850   1.526   7.268   0.088  0.0121 -0.6248  0.5004
  190MOL    H1326851   1.607   7.430   0.093 -1.7261 -0.3456 -1.0708
  190MOL    H1426852   1.637   7.395   0.335 -3.4589  1.8235 -1.2023
  190MOL    H1526853   1.520   7.247   0.423  0.1780 -0.5502  0.4247
  190MOL    C1626854   1.754   7.234   0.250  0.3748 -0.2003  0.2394
  190MOL    C1726855   1.829   7.180   0.370 -0.5834  0.2840 -0.1539
  190MOL    O1826856   1.952   7.120   0.317  0.4598  0.1663 -0.1296
  190MOL    H1926857   1.741   7.153   0.179 -0.5278  1.2369 -1.2677
  190MOL    H2026858   1.819   7.298   0.190 -0.0190 -0.0691 -0.0493
  190MOL    H2126859   1.772   7.101   0.419 -1.2589  1.3321  0.7641
  190MOL    H2226860   1.930   7.062   0.246  2.4587 -1.9829  0.9270
  190MOL    C2326861   1.877   7.304   0.457  0.0504  0.0739 -0.0952
  190MOL    C2426862   1.952   7.265   0.587  0.6361 -0.3746  0.9492
  190MOL    O2526863   2.082   7.226   0.543 -0.0940  0.1998  0.0135
  190MOL    H2626864   1.925   7.378   0.393 -2.3619  1.0895 -0.7530
  190MOL    H2726865   1.792   7.362   0.494 -0.6592 -1.8722  1.3861
  190MOL    H2826866   1.901   7.177   0.626 -0.7546 -0.2008 -0.4523
  190MOL    H2926867   2.064   7.176   0.466 -0.2157 -1.3411  1.0292
  190MOL    C3026868   1.958   7.368   0.697 -0.4082 -0.0737 -0.1360
  190MOL    C3126869   2.040   7.320   0.819 -0.1657  0.0497 -0.4863
  190MOL    O3226870   2.081   7.434   0.888  0.2703  0.6397 -0.6851
  190MOL    H3326871   1.993   7.463   0.655 -0.1216 -0.2984 -0.4026
  190MOL    H3426872   1.857   7.399   0.725 -0.1917 -0.1785  0.7699
  190MOL    H3526873   2.138   7.281   0.793  0.4037  1.6717 -0.8204
  190MOL    H3626874   2.114   7.395   0.968 -1.9036 -0.6838 -0.4023
  190MOL    C3726875   1.957   7.224   0.913 -0.4846 -0.0257  0.2444
  190MOL    C3826876   1.966   7.072   0.890  0.4487 -0.7882  0.5939
  190MOL    O3926877   2.052   7.018   0.994 -0.6769 -0.1240 -0.3227
  190MOL    H4026878   1.948   7.254   1.017 -0.7468  1.1462 -0.1086
  190MOL    H4126879   1.855   7.256   0.893 -0.5035 -1.1738 -1.6304
  190MOL    H4226880   2.005   7.046   0.792  2.0110  1.0943  0.6992
  190MOL    H4326881   2.118   7.083   1.014 -0.1352 -0.7258 -0.1093
  190MOL    C4426882   1.827   7.009   0.916  0.2842 -0.8316  0.5320
  190MOL    C4526883   1.812   6.856   0.924  0.6902 -0.1718  0.4564
  190MOL    O4626884   1.673   6.833   0.912  0.4242 -0.0965 -0.0244
  190MOL    H4726885   1.781   7.062   1.000 -0.4080 -0.4840 -0.0562
  190MOL    H4826886   1.771   7.044   0.830  0.2096 -2.3757 -0.0632
  190MOL    H4926887   1.837   6.814   1.022  0.7988  1.8678  1.3388
  190MOL    H5026888   1.646   6.756   0.958 -3.5065  1.6136  0.6772
  190MOL    C5126889   1.885   6.782   0.812  0.2915 -0.8092  0.6254
  190MOL    C5226890   1.853   6.635   0.797 -0.0865  0.3404  0.4257
  190MOL    O5326891   1.882   6.580   0.666 -0.0475  0.2225  0.2504
  190MOL    H5426892   1.867   6.832   0.716 -0.1804  0.8184  1.5458
  190MOL    H5526893   1.992   6.795   0.829  0.0016  1.4298  0.8748
  190MOL    H5626894   1.748   6.626   0.827  0.5501 -1.5570  2.2507
  190MOL    H5726895   1.966   6.616   0.642 -0.5097  0.3280 -1.2498
  190MOL    C5826896   1.929   6.545   0.898 -0.3146  0.3368  0.2117
  190MOL    C5926897   1.864   6.409   0.904  0.4999 -0.0720  0.8554
  190MOL    O6026898   1.901   6.346   0.782 -0.0317  0.3295  0.4763
  190MOL    H6126899   2.030   6.534   0.859 -0.6954 -0.0401 -0.6754
  190MOL    H6226900   1.933   6.595   0.995  2.3244 -0.3733  0.5107
  190MOL    H6326901   1.756   6.417   0.910  0.6107  0.4728  2.6022
  190MOL    H6426902   1.903   6.417   0.720 -0.8391  1.6071  1.8651
  190MOL    C6526903   1.914   6.321   1.025  0.0310 -0.4614  0.3455
  190MOL    C6626904   1.807   6.211   1.049  0.0164  0.0667  0.4279
  190MOL    O6726905   1.857   6.102   1.128 -1.0566 -0.8437  0.2700
  190MOL    H6826906   2.013   6.278   1.009 -0.1327 -1.3423  1.6080
  190MOL    H6926907   1.920   6.390   1.109 -0.7646  0.4285 -0.3319
  190MOL    H7026908   1.785   6.163   0.953 -1.5785  0.6089  0.5142
  190MOL    H7126909   1.848   6.022   1.079  0.2757 -1.2472  0.6766
  190MOL    C7226910   1.684   6.272   1.124 -0.0815  0.2350  0.1469
  190MOL    C7326911   1.560   6.188   1.153  0.3553 -0.0856  0.1952
  190MOL    O7426912   1.462   6.261   1.226  0.3386  0.2288  0.5297
  190MOL    H7526913   1.721   6.313   1.218 -1.3038  1.7349  0.0060
  190MOL    H7626914   1.645   6.356   1.067  0.1535 -0.3118 -0.8198
  190MOL    H7726915   1.600   6.104   1.210 -0.6758 -0.2054  0.7387
  190MOL    H7826916   1.491   6.267   1.315 -0.7807  2.2482  0.7871
  190MOL    C7926917   1.504   6.141   1.016 -0.3429  0.1921  0.2333
  190MOL    C8026918   1.390   6.033   1.041  0.0556  0.0731  0.0401
  190MOL    O8126919   1.292   6.043   0.935 -0.5093  0.5218 -0.4541
  190MOL    H8226920   1.463   6.228   0.966 -0.6493 -2.4408 -4.3315
  190MOL    H8326921   1.579   6.100   0.948  0.3030  1.1594  0.3563
  190MOL    H8426922   1.331   6.053   1.131  1.1114  1.4931  0.4262
  190MOL    H8526923   1.212   6.086   0.961 -2.9295 -2.7943 -2.0095
  190MOL    C8626924   1.438   5.887   1.053 -0.1494  0.0607  0.1248
  190MOL    C8726925   1.339   5.775   1.072 -0.1149  1.0324 -0.2913
  190MOL    O8826926   1.410   5.659   1.053  0.2570  0.4190 -0.4703
  190MOL    H8926927   1.481   5.863   0.956  2.0161 -0.8234  1.2678
  190MOL    H9026928   1.520   5.882   1.125 -0.3488  2.4729  0.5787
  190MOL    H9126929   1.267   5.790   0.992  1.2036  0.7065 -1.5593
  190MOL    H9226930   1.492   5.656   1.099  0.4782  0.2845 -0.8670
  190MOL    C9326931   1.267   5.769   1.208  0.7458  0.3159 -0.0040
  190MOL    C9426932   1.162   5.652   1.229 -0.1493 -0.1174 -0.0444
  190MOL    O9526933   1.241   5.538   1.228 -0.1102 -0.5250  0.5586
  190MOL    H9626934   1.345   5.774   1.284 -0.3247  0.7346  1.0568
  190MOL    H9726935   1.210   5.862   1.204  0.3800  0.1245  0.8474
  190MOL    H9826936   1.088   5.661   1.149 -1.3062  0.6871  1.0997
  190MOL    H9926937   1.309   5.554   1.164  0.0574 -1.3524  0.5273
  190MOL   C10026938   1.103   5.664   1.369  0.3186 -0.5293  0.0788
  190MOL   C10126939   1.029   5.794   1.410  0.2557  0.1578  1.3327
  190MOL   O10226940   0.942   5.822   1.301 -0.2361 -0.0159 -0.3562
  190MOL   H10326941   1.028   5.585   1.378  1.5548 -1.8697 -1.0792
  190MOL   H10426942   1.175   5.648   1.450  1.0471 -0.0314 -0.4661
  190MOL   H10526943   1.104   5.872   1.412  2.5894 -1.9767  0.1508
  190MOL   H10626944   0.864   5.769   1.303  1.3100 -2.4213 -1.5602
  190MOL   C10726945   0.940   5.778   1.539 -0.7079 -0.3006 -0.3734
  190MOL   C10826946   0.920   5.910   1.620  0.0398  0.7447 -0.5227
  190MOL   O10926947   1.043   5.936   1.667 -0.1929  0.8995 -0.4965
  190MOL   H11026948   0.842   5.735   1.518 -0.2218 -2.0817  0.8764
  190MOL   H11126949   0.991   5.702   1.599  1.1895  2.3181  1.4037
  190MOL   H11226950   0.868   5.880   1.712  1.0450 -0.2455 -0.2670
  190MOL   H11326951   1.058   5.884   1.745  0.5781  1.5444 -0.2109
  190MOL   C11426952   0.866   6.033   1.530  0.0692 -0.7391 -0.6739
  190MOL   C11526953   0.798   6.148   1.621 -0.4159  0.2414 -0.5428
  190MOL   O11626954   0.899   6.246   1.650 -0.3182  0.1121  0.4386
  190MOL   H11726955   0.947   6.085   1.479 -0.0795 -2.4680 -2.7030
  190MOL   H11826956   0.790   5.995   1.462 -0.9097 -1.0967  0.6004
  190MOL   H11926957   0.763   6.116   1.719  0.7711  1.0377  0.1481
  190MOL   H12026958   0.858   6.330   1.633 -0.6521  0.3002  2.0051
  190MOL   C12126959   0.668   6.207   1.551  0.5193 -0.4345  0.3990
  190MOL   C12226960   0.537   6.121   1.561  0.2286 -0.5745 -0.7385
  190MOL   O12326961   0.506   6.116   1.690  0.6256  0.0654  0.1545
  190MOL   H12426962   0.651   6.301   1.602  1.1056  0.0969 -0.3793
  190MOL   H12526963   0.695   6.240   1.451 -0.7375  1.5893  0.7221
  190MOL   H12626964   0.561   6.015   1.547 -0.8842 -0.6426 -2.1401
  190MOL   H12726965   0.476   6.028   1.710  0.7488  0.1823  0.8722
  190MOL   C12826966   0.425   6.177   1.476 -0.0567 -0.2276 -0.2729
  190MOL   C12926967   0.300   6.092   1.454  0.7886 -0.0801  0.1778
  190MOL   O13026968   0.196   6.168   1.412  0.1694 -0.6170  0.3313
  190MOL   H13126969   0.409   6.280   1.507 -1.2018 -0.9035  1.4808
  190MOL   H13226970   0.468   6.191   1.377  1.7018  1.4307  0.7027
  190MOL   H13326971   0.276   6.050   1.552 -1.2235 -0.9593 -0.6759
  190MOL   H13426972   0.134   6.172   1.483 -0.6815 -0.0372 -0.4390
  190MOL   C13526973   0.314   5.969   1.365  0.3775  0.2958 -0.8495
  190MOL   C13626974   0.192   5.880   1.370 -0.3006  0.4148  0.2308
  190MOL   O13726975   0.208   5.770   1.282 -0.6557 -0.0517  0.4172
  190MOL   H13826976   0.314   6.004   1.262 -0.9978  1.3616 -0.5025
  190MOL   H13926977   0.398   5.909   1.401  0.6760  0.3146 -1.5132
  190MOL   H14026978   0.114   5.944   1.329  0.3503  1.3593  0.4489
  190MOL   H14126979   0.256   5.704   1.330  2.2685  1.6447 -0.0779
  190MOL   H14226980   0.168   5.851   1.472 -3.1036  1.4668 -0.0751
  191MOL     C126981   0.145   5.002   7.271  0.1514 -0.3494  1.0459
  191MOL     C226982   0.139   4.928   7.135 -0.0179  0.4905  0.7609
  191MOL     O326983   0.250   4.972   7.056 -0.0202  0.2668  0.8217
  191MOL     H426984   0.049   5.000   7.321 -1.2027 -1.3923 -1.5145
  191MOL     H526985   0.159   5.109   7.252 -0.9442 -0.3098  0.4123
  191MOL     H626986   0.049   4.953   7.080 -0.9198 -1.1430  1.4401
  191MOL     H726987   0.325   4.935   7.100 -0.7196  0.3820  2.1577
  191MOL     H826988   0.225   4.966   7.335  0.7957 -1.1922 -0.1963
  191MOL     C926989   0.147   4.776   7.146 -0.2048 -0.2175 -0.2551
  191MOL    C1026990   0.028   4.698   7.212  0.4492 -0.5833 -0.9479
  191MOL    O1126991   7.465   4.663   7.102  0.0206 -0.7575 -0.4675
  191MOL    H1226992   0.173   4.740   7.046  0.6117 -2.5502  0.7536
  191MOL    H1326993   0.238   4.766   7.206 -0.9383  2.5858  1.4200
  191MOL    H1426994   7.496   4.767   7.278 -1.1275 -0.5346 -2.2016
  191MOL    H1526995   7.417   4.741   7.082  0.2594 -0.4021  0.3358
  191MOL    C1626996   0.064   4.563   7.279 -0.8167  0.2214 -0.2959
  191MOL    C1726997   0.112   4.589   7.426  0.3568 -0.1863  0.0064
  191MOL    O1826998   0.040   4.500   7.515 -0.3825 -0.9346 -0.0323
  191MOL    H1926999   7.494   4.501   7.278 -0.0091 -0.9572 -0.8070
  191MOL    H2027000   0.126   4.508   7.209 -1.3100 -1.8618  0.8656
  191MOL    H2127001   0.087   4.688   7.463 -0.9598 -0.3172 -0.4895
  191MOL    H2227002   7.468   4.501   7.493 -0.7640  1.9361  1.3883
  191MOL    C2327003   0.263   4.551   7.448 -0.1709 -0.2800 -0.6013
  191MOL    C2427004   0.330   4.617   0.053 -0.1003 -0.2806 -0.0705
  191MOL    O2527005   0.457   4.562   0.049 -0.4081  0.4195  0.1591
  191MOL    H2627006   0.268   4.442   7.443 -0.2640 -0.3464  0.5250
  191MOL    H2727007   0.317   4.568   7.355  1.7809 -0.7295  0.4146
  191MOL    H2827008   0.275   4.581   0.140 -0.1671 -0.5667 -0.2301
  191MOL    H2927009   0.450   4.468   0.037  0.3290  0.3628  0.1783
  191MOL    C3027010   0.348   4.764   0.040 -0.4927 -0.0544 -0.4764
  191MOL    C3127011   0.400   4.840   0.172  0.1336 -0.0886 -0.4674
  191MOL    O3227012   0.516   4.772   0.210  0.0400  0.5416  0.2235
  191MOL    H3327013   0.417   4.789   7.479 -0.4816 -0.4902 -0.6046
  191MOL    H3427014   0.247   4.799   0.018 -0.3033  0.6397 -0.2535
  191MOL    H3527015   0.328   4.825   0.252 -1.0609  1.5553 -1.1874
  191MOL    H3627016   0.523   4.690   0.164  0.0321  0.5415  0.2234
  191MOL    C3727017   0.428   4.989   0.171 -0.6947  0.7530 -0.3584
  191MOL    C3827018   0.309   5.081   0.147 -0.1754 -0.6499 -0.4927
  191MOL    O3927019   0.230   5.082   0.261 -0.4200  0.5136  0.7881
  191MOL    H4027020   0.476   5.009   0.267 -0.6369 -0.5594 -0.1124
  191MOL    H4127021   0.502   5.009   0.094 -0.0605  1.0175  0.3075
  191MOL    H4227022   0.249   5.047   0.063 -3.1152 -3.5274  2.5812
  191MOL    H4327023   0.186   4.998   0.253  1.1526 -0.2131 -0.8710
  191MOL    C4427024   0.347   5.221   0.130 -0.0906 -0.8924  0.1368
  191MOL    C4527025   0.234   5.312   0.085 -0.1126  0.7501 -0.1906
  191MOL    O4627026   0.304   5.444   0.088 -0.6781 -0.2223  0.1275
  191MOL    H4727027   0.390   5.272   0.216  1.4743 -1.6259 -0.1820
  191MOL    H4827028   0.425   5.236   0.054 -1.9621  0.9809 -1.4744
  191MOL    H4927029   0.152   5.314   0.156  0.1601 -2.0130  0.2405
  191MOL    H5027030   0.321   5.466   0.178 -2.3822  2.2624 -0.1081
  191MOL    C5127031   0.185   5.293   7.463  0.4031  0.3778 -0.0888
  191MOL    C5227032   0.099   5.393   7.380 -0.0048  0.4430  0.3283
  191MOL    O5327033   0.004   5.325   7.297 -0.3993 -0.3093 -0.0400
  191MOL    H5427034   0.274   5.276   7.403  1.0538 -1.2193  1.2914
  191MOL    H5527035   0.135   5.197   7.446  1.6994 -0.5674  1.3103
  191MOL    H5627036   0.161   5.449   7.310  0.3474  2.1582  1.9599
  191MOL    H5727037   0.044   5.305   7.214  0.3695  2.0153 -0.2632
  191MOL    C5827038   0.018   5.498   7.467  0.3456  0.2926  0.5186
  191MOL    C5927039   7.482   5.624   7.388  0.4136 -0.1225 -0.2460
  191MOL    O6027040   7.411   5.706   7.481 -0.4493  0.0060  0.0639
  191MOL    H6127041   7.460   5.454   0.011  0.7435  1.3893  1.8058
  191MOL    H6227042   0.089   5.548   0.013  2.5203  0.5509 -1.9501
  191MOL    H6327043   7.416   5.586   7.310 -1.6940 -0.1475  1.5010
  191MOL    H6427044   7.407   5.791   7.441 -0.1438  0.0937  0.2150
  191MOL    C6527045   0.061   5.715   7.328 -0.1815  0.5796 -0.3598
  191MOL    C6627046   7.516   5.808   7.223 -0.1246 -0.3752  0.1443
  191MOL    O6727047   7.438   5.909   7.285  0.1543 -0.4263  0.5665
  191MOL    H6827048   0.111   5.771   7.407  0.4576 -0.0950 -0.2734
  191MOL    H6927049   0.144   5.663   7.280  1.4535  0.8619  2.0418
  191MOL    H7027050   7.449   5.761   7.152 -0.0699  1.3605 -1.0996
  191MOL    H7127051   7.372   5.941   7.225 -0.7789 -0.7884  1.3844
  191MOL    C7227052   0.114   5.886   7.147 -0.1928  0.2348 -0.1400
  191MOL    C7327053   0.078   6.009   7.065  0.2084 -0.2379  0.0460
  191MOL    O7427054   0.201   6.086   7.052 -0.4874  0.6117  0.3881
  191MOL    H7527055   0.183   5.908   7.228  1.8614  0.4092 -1.9043
  191MOL    H7627056   0.175   5.824   7.080  0.3822  0.6607 -0.0103
  191MOL    H7727057   0.004   6.064   7.124  0.2055 -0.2531  0.0568
  191MOL    H7827058   0.177   6.148   6.985 -1.5088  0.3541  0.5075
  191MOL    C7927059   0.030   5.984   6.921  0.0487  0.6283 -0.4229
  191MOL    C8027060   7.492   6.110   6.858  0.3327 -0.7729  0.5184
  191MOL    O8127061   0.081   6.199   6.832  0.2934 -0.2204 -0.4635
  191MOL    H8227062   0.112   5.943   6.863 -0.5550 -0.0428 -0.8081
  191MOL    H8327063   7.472   5.907   6.919  1.8431 -1.2040 -0.4758
  191MOL    H8427064   7.423   6.169   6.919 -0.6529  0.1372 -1.4187
  191MOL    H8527065   0.055   6.283   6.865 -0.3403 -0.2352 -0.9165
  191MOL    C8627066   7.425   6.083   6.727  0.1420  0.4965 -0.8849
  191MOL    C8727067   7.359   6.195   6.645  0.2000  0.0254 -0.6482
  191MOL    O8827068   7.275   6.279   6.721 -0.0932  0.2306 -0.1472
  191MOL    H8927069   7.497   6.037   6.660 -1.0481 -1.4796 -0.8430
  191MOL    H9027070   7.348   6.008   6.746  0.3684 -0.1743 -2.5667
  191MOL    H9127071   7.313   6.149   6.558  1.0775 -1.6363 -0.2569
  191MOL    H9227072   7.192   6.237   6.738 -1.8480  3.3826 -0.5371
  191MOL    C9327073   7.462   6.290   6.577  0.1188  0.1476 -0.2561
  191MOL    C9427074   0.043   6.229   6.474  0.3025 -0.0804 -0.2404
  191MOL    O9527075   0.055   6.311   6.358 -0.6260 -0.3526  0.4730
  191MOL    H9627076   7.397   6.358   6.521  1.0137  1.9699  0.8791
  191MOL    H9727077   7.514   6.348   6.653  0.6308  1.7167 -1.7730
  191MOL    H9827078   7.515   6.143   6.427  1.6743  0.7750 -3.3073
  191MOL    H9927079   0.047   6.403   6.378  0.6911 -0.7310  2.8988
  191MOL   C10027080   0.180   6.197   6.541  0.2512 -0.2989  0.5097
  191MOL   C10127081   0.270   6.126   6.430 -0.4036  0.3923  0.2848
  191MOL   O10227082   0.409   6.154   6.463 -0.1315 -0.1741  0.0220
  191MOL   H10327083   0.232   6.291   6.558  0.7857 -0.1121 -1.9465
  191MOL   H10427084   0.181   6.136   6.631 -2.1598 -0.2166  0.6336
  191MOL   H10527085   0.252   6.166   6.329  1.2563 -2.0704 -1.0221
  191MOL   H10627086   0.441   6.091   6.526 -0.7857  0.2789  0.8092
  191MOL   C10727087   0.251   5.976   6.419 -0.7965  0.1109 -0.0509
  191MOL   C10827088   0.313   5.901   6.304  0.2611 -0.3564  0.6085
  191MOL   O10927089   0.272   5.768   6.323  0.1365 -0.3510  0.5463
  191MOL   H11027090   0.299   5.938   6.509  1.9673  2.1982 -0.5887
  191MOL   H11127091   0.146   5.946   6.428 -0.4494 -0.6599  1.5883
  191MOL   H11227092   0.422   5.897   6.305  0.3002  0.6339  1.0099
  191MOL   H11327093   0.267   5.749   6.415  3.0194 -2.7477  0.3017
  191MOL   C11427094   0.259   5.944   6.164 -0.0944 -0.2451 -0.6924
  191MOL   C11527095   0.302   5.855   6.040 -0.5735  0.3110  0.1857
  191MOL   O11627096   0.225   5.883   5.929 -0.6156 -0.0418  0.3957
  191MOL   H11727097   0.151   5.955   6.165 -0.1100 -0.4226 -0.4717
  191MOL   H11827098   0.286   6.047   6.139 -0.8120 -0.5880 -2.9313
  191MOL   H11927099   0.277   5.750   6.059  1.2581 -0.2765 -0.5790
  191MOL   H12027100   0.137   5.859   5.956 -0.9224  1.7027  1.0194
  191MOL   C12127101   0.444   5.870   5.991  0.4647  0.2255  0.0972
  191MOL   C12227102   0.499   5.763   5.894  0.4511 -0.2530  0.4252
  191MOL   O12327103   0.636   5.797   5.859 -0.8085  0.6618  0.1743
  191MOL   H12427104   0.477   5.970   5.961  1.6390 -0.9136 -2.5866
  191MOL   H12527105   0.495   5.847   6.085  1.4624  1.4469 -0.1333
  191MOL   H12627106   0.442   5.768   5.801  1.1115  1.3616  0.0960
  191MOL   H12727107   0.662   5.764   5.774  1.4622  1.1332  0.6493
  191MOL   C12827108   0.489   5.622   5.964  0.1886  0.6516 -0.2421
  191MOL   C12927109   0.367   5.542   5.926 -0.0772  0.5164  0.0862
  191MOL   O13027110   0.392   5.491   5.797  0.3086  0.5033  0.6999
  191MOL   H13127111   0.580   5.565   5.945 -0.7113 -1.3356  1.2254
  191MOL   H13227112   0.481   5.634   6.072  0.8083 -3.2506  0.3072
  191MOL   H13327113   0.279   5.606   5.924 -1.5277 -1.4657 -0.9481
  191MOL   H13427114   0.306   5.478   5.761  0.4915 -1.9531  1.0513
  191MOL   C13527115   0.337   5.424   6.016 -0.2223 -0.5106 -0.8045
  191MOL   C13627116   0.254   5.458   6.140  0.0672 -0.2075 -0.2118
  191MOL   O13727117   0.241   5.344   6.234  0.4072  0.4779 -0.4247
  191MOL   H13827118   0.285   5.353   5.951  0.8522 -1.8237 -0.2581
  191MOL   H13927119   0.426   5.371   6.052 -1.8295 -2.6537  0.1225
  191MOL   H14027120   0.163   5.512   6.111 -0.0102 -0.3636 -0.2589
  191MOL   H14127121   0.161   5.357   6.281 -0.3991 -1.0666 -1.3346
  191MOL   H14227122   0.305   5.529   6.205 -1.9640 -0.9033  2.2203
  192MOL     C127123   3.966   5.971   6.408 -0.0095  0.2744  0.7874
  192MOL     C227124   4.005   6.113   6.351  0.3630  0.0718  0.5662
  192MOL     O327125   4.002   6.105   6.212  0.1532 -0.3823 -0.0938
  192MOL     H427126   4.032   5.899   6.359 -1.5992  0.4859 -1.7451
  192MOL     H527127   3.863   5.941   6.386  0.2056 -0.3993  0.6817
  192MOL     H627128   4.104   6.151   6.376  0.3634 -0.4443  1.3705
  192MOL     H727129   4.069   6.046   6.181  0.3849 -0.6300  0.8681
  192MOL     H827130   3.990   5.963   6.514 -0.3177 -1.6133  0.7319
  192MOL     C927131   3.893   6.213   6.381  0.3877 -0.1421  0.7325
  192MOL    C1027132   3.893   6.277   6.522 -0.1466  0.3525 -0.5019
  192MOL    O1127133   3.776   6.350   6.529 -0.5378 -0.3568  0.0172
  192MOL    H1227134   3.906   6.287   6.302  1.4345 -1.9943 -0.8828
  192MOL    H1327135   3.796   6.164   6.367  0.0929  1.6193 -4.0469
  192MOL    H1427136   3.975   6.348   6.532 -1.0651  2.0087 -4.0569
  192MOL    H1527137   3.792   6.421   6.468 -1.0930 -0.8380 -0.7105
  192MOL    C1627138   3.893   6.174   6.639  0.2141  0.5604  0.5907
  192MOL    C1727139   3.873   6.223   6.784 -0.1093 -0.2700 -0.0344
  192MOL    O1827140   3.890   6.116   6.867 -0.6285 -0.0434 -0.1997
  192MOL    H1927141   3.822   6.094   6.620  2.1856 -1.1668  0.2617
  192MOL    H2027142   3.989   6.124   6.636 -0.7371 -1.2847  0.6843
  192MOL    H2127143   3.775   6.267   6.803  0.6962  2.3026 -1.4915
  192MOL    H2227144   3.813   6.063   6.854  0.1403 -0.8038 -1.8069
  192MOL    C2327145   3.976   6.333   6.822  0.2379 -0.0638  0.0467
  192MOL    C2427146   3.944   6.408   6.955  0.1915 -0.5727 -0.2697
  192MOL    O2527147   3.966   6.321   7.063 -0.3090 -0.0171  0.4337
  192MOL    H2627148   4.078   6.295   6.814 -0.0724 -0.5467 -1.6814
  192MOL    H2727149   3.977   6.412   6.746 -0.3944  1.5807  1.7135
  192MOL    H2827150   3.836   6.423   6.955  0.4012  1.9719  4.3354
  192MOL    H2927151   3.950   6.234   7.031  1.1769 -0.3072  0.4108
  192MOL    C3027152   4.025   6.538   6.986 -0.4269 -0.2091  0.3394
  192MOL    C3127153   3.972   6.655   6.903  0.2464  0.1267  0.2333
  192MOL    O3227154   3.836   6.663   6.905  0.1548  0.3231  0.7644
  192MOL    H3327155   4.013   6.561   7.091  1.5715  2.2623  0.0805
  192MOL    H3427156   4.130   6.516   6.968 -0.2543 -1.3816  2.6636
  192MOL    H3527157   3.996   6.635   6.798  0.0617 -1.5629  0.4968
  192MOL    H3627158   3.816   6.754   6.916  0.2329  0.7027 -1.8517
  192MOL    C3727159   4.035   6.793   6.942 -0.0365  0.5073 -1.2410
  192MOL    C3827160   4.184   6.797   6.958 -0.4814  0.3200  0.6278
  192MOL    O3927161   4.229   6.771   6.831  0.2078 -0.2120 -0.3482
  192MOL    H4027162   4.016   6.875   6.873  0.2933 -0.2496 -2.2336
  192MOL    H4127163   3.991   6.827   7.036  0.7250 -0.6334 -0.4685
  192MOL    H4227164   4.223   6.712   7.014 -0.4625 -0.2005 -0.1801
  192MOL    H4327165   4.153   6.759   6.776  0.0433  1.2234 -0.4509
  192MOL    C4427166   4.249   6.932   7.011  0.8317 -0.3203  0.2420
  192MOL    C4527167   4.400   6.928   7.024 -0.3990 -0.1588  0.1593
  192MOL    O4627168   4.461   6.906   6.894  0.0369 -0.0354  0.2171
  192MOL    H4727169   4.223   7.022   6.956  1.4867  0.3912  1.0652
  192MOL    H4827170   4.207   6.940   7.112  2.4737  1.0675  0.8428
  192MOL    H4927171   4.433   6.851   7.093 -1.6660 -0.1995  0.7358
  192MOL    H5027172   4.397   6.855   6.847 -0.3233  0.5952  0.0168
  192MOL    C5127173   4.462   7.069   7.068 -0.0568 -0.3972  0.2117
  192MOL    C5227174   4.489   7.089   7.218 -0.3068  0.7571 -0.1324
  192MOL    O5327175   4.600   7.009   7.252  0.2280 -0.3912 -0.2612
  192MOL    H5427176   4.559   7.089   7.024  0.2810 -1.6352  0.3729
  192MOL    H5527177   4.400   7.144   7.018 -0.0831 -0.4972  0.0944
  192MOL    H5627178   4.398   7.074   7.276  1.0391 -2.2091  1.3292
  192MOL    H5727179   4.580   6.917   7.256 -0.8976 -0.1072  1.2112
  192MOL    C5827180   4.518   7.230   7.257  0.4665 -0.3887 -0.0690
  192MOL    C5927181   4.411   7.330   7.202 -0.3512 -0.5852  0.0806
  192MOL    O6027182   4.350   7.379   7.318  0.2595  0.3267  0.0528
  192MOL    H6127183   4.525   7.247   7.364 -0.6772  0.9079 -0.1894
  192MOL    H6227184   4.615   7.270   7.228  0.1291  0.3153 -0.2331
  192MOL    H6327185   4.324   7.299   7.143 -0.8016  1.2104 -0.2258
  192MOL    H6427186   4.321   7.465   7.294  0.4780  0.6380  0.8818
  192MOL    C6527187   4.478   7.446   7.121 -0.5278 -0.3314  0.4000
  192MOL    C6627188   4.503   7.407   6.978 -0.2158  0.7330 -0.2272
  192MOL    O6727189   4.378   7.383   6.906 -0.5028  0.1983  0.0865
  192MOL    H6827190   4.418   0.018   7.123 -0.4356 -0.2590 -0.0696
  192MOL    H6927191   4.563   7.482   7.178 -0.9979 -0.6776  1.3373
  192MOL    H7027192   4.550   7.309   6.979 -2.1167 -0.2012 -0.5106
  192MOL    H7127193   4.386   7.316   6.839 -2.0515 -0.7391  0.8093
  192MOL    C7227194   4.596   7.500   6.905  0.0231  0.0872  0.2435
  192MOL    C7327195   4.746   7.469   6.936  1.0912  0.5145  0.7837
  192MOL    O7427196   4.778   7.349   6.865 -0.0795  0.3399 -0.2608
  192MOL    H7527197   4.589   7.500   6.796 -0.0076 -1.3442  0.2431
  192MOL    H7627198   4.583   0.085   6.933 -0.1724  0.5399 -1.4760
  192MOL    H7727199   4.753   7.434   7.039  1.7604  0.6337  0.7819
  192MOL    H7827200   4.839   7.297   6.915 -0.1268 -1.0156 -1.5916
  192MOL    C7927201   4.849   0.066   6.911 -0.1496 -0.0661  0.1991
  192MOL    C8027202   4.847   0.177   7.022 -0.1459 -0.9699 -0.3189
  192MOL    O8127203   4.870   0.118   7.149  0.6296 -0.1514 -0.2130
  192MOL    H8227204   4.949   0.021   6.912  0.4099  1.0839 -1.4528
  192MOL    H8327205   4.835   0.108   6.811  0.2027 -2.9171 -1.0952
  192MOL    H8427206   4.754   0.233   7.026 -0.2985 -1.2876  0.6749
  192MOL    H8527207   4.867   0.179   7.221  0.6793  0.6535 -0.8921
  192MOL    C8627208   4.963   0.276   6.989  0.0575 -0.1141  0.4104
  192MOL    C8727209   4.933   0.368   6.869  0.2123  0.1280 -0.6596
  192MOL    O8827210   4.847   0.475   6.913 -0.1801 -0.0627 -0.0885
  192MOL    H8927211   4.977   0.346   7.071  2.8055 -0.7209  0.4864
  192MOL    H9027212   5.058   0.223   6.983  0.1081  0.0830 -0.5866
  192MOL    H9127213   4.874   0.310   6.799 -1.0145  0.0475  0.4306
  192MOL    H9227214   4.811   0.514   6.835  1.0042 -1.9035 -1.6117
  192MOL    C9327215   5.053   0.428   6.798  0.2582 -0.0310  0.1573
  192MOL    C9427216   5.153   0.505   6.886  0.7655 -0.3458  0.3330
  192MOL    O9527217   5.285   0.445   6.860 -0.5897 -0.1633  0.4407
  192MOL    H9627218   5.105   0.343   6.755  1.0279 -0.7796  2.4922
  192MOL    H9727219   5.013   0.483   6.712 -2.5110 -1.8477  0.2135
  192MOL    H9827220   5.123   0.485   6.989 -0.5045 -0.8887 -0.1276
  192MOL    H9927221   5.313   0.385   6.927 -0.0631  0.4425  0.7747
  192MOL   C10027222   5.146   0.660   6.861  0.1299 -0.6969 -0.6350
  192MOL   C10127223   5.190   0.749   6.980  0.2376 -0.2128  0.4897
  192MOL   O10227224   5.274   0.850   6.935 -0.4242 -0.1803  0.1030
  192MOL   H10327225   5.210   0.682   6.775  0.7662 -0.4318 -0.0923
  192MOL   H10427226   5.050   0.700   6.825  0.4112  1.0210  0.4462
  192MOL   H10527227   5.260   0.695   7.044  0.7608 -0.0671  0.0430
  192MOL   H10627228   5.235   0.924   6.980  2.6473 -0.0377  2.6637
  192MOL   C10727229   5.084   0.822   7.058  0.7936  0.3868 -0.2825
  192MOL   C10827230   5.129   0.911   7.174  0.5625  0.4051 -0.8136
  192MOL   O10927231   5.192   1.020   7.109  0.4170 -0.2581 -0.5221
  192MOL   H11027232   5.011   0.882   7.003 -1.3624  2.3922  4.4837
  192MOL   H11127233   5.031   0.737   7.101  2.4023  0.7014  2.4729
  192MOL   H11227234   5.194   0.853   7.239  1.7074  0.6088 -1.7745
  192MOL   H11327235   5.252   1.053   7.174  1.7361 -1.5218 -1.0936
  192MOL   C11427236   5.015   0.963   7.267 -0.1048  0.0874  0.5364
  192MOL   C11527237   4.934   0.869   7.352 -0.0461  0.1050 -0.1099
  192MOL   O11627238   5.014   0.791   7.443  0.6309  0.0261  0.2609
  192MOL   H11727239   5.045   1.047   7.330 -0.8309  0.1872  0.7494
  192MOL   H11827240   4.946   1.002   7.193 -0.1378 -0.2047  0.4129
  192MOL   H11927241   4.877   0.804   7.286 -1.5353  0.8784  0.3941
  192MOL   H12027242   5.062   0.729   7.390  1.1000 -0.3415  1.1025
  192MOL   C12127243   4.832   0.940   7.453 -0.0548 -0.2702  0.1706
  192MOL   C12227244   4.714   1.004   7.378 -1.0121 -0.1633  0.0112
  192MOL   O12327245   4.623   0.902   7.347 -0.5284  0.1803 -0.4485
  192MOL   H12427246   4.797   0.877   0.016 -0.1719  2.4935  2.2985
  192MOL   H12527247   4.877   1.018   7.514  0.7065 -0.1940 -0.4842
  192MOL   H12627248   4.749   1.041   7.281  0.1628  3.4422  1.7423
  192MOL   H12727249   4.550   0.891   7.406  0.1272 -2.4513 -0.0578
  192MOL   C12827250   4.646   1.115   7.460  0.2260  0.3580  0.2796
  192MOL   C12927251   4.709   1.254   7.448  1.1094 -0.2645  0.2774
  192MOL   O13027252   4.654   1.310   7.325 -0.4504  0.2690 -0.2803
  192MOL   H13127253   4.538   1.124   7.447  0.0215  1.4864  2.4263
  192MOL   H13227254   4.665   1.090   0.045  1.0983  0.9379  0.2648
  192MOL   H13327255   4.814   1.236   7.427  1.6895 -0.4314  3.1341
  192MOL   H13427256   4.715   1.303   7.253  1.2886  0.0158  1.1843
  192MOL   C13527257   4.677   1.332   0.055  0.1845 -0.4244 -0.0452
  192MOL   C13627258   4.727   1.480   0.054 -0.4325  0.9833  0.0232
  192MOL   O13727259   4.744   1.515   0.188 -0.8250 -0.4231 -0.4404
  192MOL   H13827260   4.573   1.321   0.089  0.9496 -2.4508  1.8101
  192MOL   H13927261   4.740   1.281   0.128  1.5546 -0.0889 -0.9743
  192MOL   H14027262   4.671   1.551   7.513  0.7260  1.1750 -0.8383
  192MOL   H14127263   4.662   1.555   0.213  0.6157  2.5793 -0.3851
  192MOL   H14227264   4.823   1.481   0.002 -1.0931  1.5405 -1.1957
  193MOL     C127265   2.359   1.645   5.135 -1.3259 -0.2245 -0.5974
  193MOL     C227266   2.419   1.558   5.248  0.2637  0.2759  0.4170
  193MOL     O327267   2.311   1.566   5.337  0.5242  0.0557  0.0206
  193MOL     H427268   2.278   1.597   5.080 -0.0022 -1.9209 -1.1084
  193MOL     H527269   2.438   1.670   5.064  0.4762  2.0717  2.1104
  193MOL     H627270   2.509   1.605   5.287  0.6163 -0.4646  0.5051
  193MOL     H727271   2.309   1.656   5.363  0.5081  0.2731 -0.7287
  193MOL     H827272   2.324   1.739   5.178 -2.8191 -1.2653  0.5044
  193MOL     C927273   2.423   1.414   5.200  0.4805  0.4369  0.3811
  193MOL    C1027274   2.483   1.313   5.298  0.1736  0.3775  0.4271
  193MOL    O1127275   2.479   1.185   5.232  0.0964  0.2066  0.4096
  193MOL    H1227276   2.324   1.375   5.179  0.6399  0.6096 -0.7035
  193MOL    H1327277   2.485   1.413   5.111  1.3266  2.3502  0.9256
  193MOL    H1427278   2.418   1.304   5.385  0.8427 -0.2762  0.8745
  193MOL    H1527279   2.493   1.118   5.297 -0.0487 -0.4247 -0.1994
  193MOL    C1627280   2.624   1.346   5.355  0.1545  0.1281 -0.5372
  193MOL    C1727281   2.724   1.407   5.254 -0.1283 -0.4731 -0.1735
  193MOL    O1827282   2.832   1.467   5.331  0.0845 -0.1937  0.7297
  193MOL    H1927283   2.616   1.415   5.438  0.4852  0.7433 -1.0158
  193MOL    H2027284   2.669   1.254   5.391 -1.1221 -0.7871 -1.2086
  193MOL    H2127285   2.686   1.494   5.200  1.8471  0.9718  0.6737
  193MOL    H2227286   2.835   1.427   5.417 -2.8056  2.7102  2.2787
  193MOL    C2327287   2.780   1.317   5.139 -0.0163  0.2984  0.2825
  193MOL    C2427288   2.891   1.371   5.048 -0.4095  0.2590 -0.0728
  193MOL    O2527289   2.905   1.280   4.943  0.1599 -0.4254  0.0216
  193MOL    H2627290   2.825   1.229   5.185  1.7870  0.8689 -0.3341
  193MOL    H2727291   2.700   1.277   5.078 -0.1735  1.5534 -0.3562
  193MOL    H2827292   2.977   1.358   5.114 -0.2892 -1.3308 -0.5174
  193MOL    H2927293   2.984   1.298   4.896  0.8344  1.3409  1.7503
  193MOL    C3027294   2.866   1.516   4.994 -0.8057 -0.1131 -0.3199
  193MOL    C3127295   3.000   1.593   4.972 -0.5244 -0.1692  0.0219
  193MOL    O3227296   2.964   1.716   4.919 -0.1158  0.6671 -0.0558
  193MOL    H3327297   2.805   1.513   4.904 -0.0448  0.4776 -0.8648
  193MOL    H3427298   2.808   1.579   5.061  2.4447  1.6438  1.0012
  193MOL    H3527299   3.062   1.543   4.898  0.9395  0.4711  0.8085
  193MOL    H3627300   3.050   1.754   4.905  0.9404 -1.9809 -1.0009
  193MOL    C3727301   3.080   1.628   5.102 -0.2951  0.0671  0.6179
  193MOL    C3827302   3.233   1.606   5.092  0.2725  0.3434  0.2489
  193MOL    O3927303   3.270   1.709   4.997 -0.6785  0.0119 -0.0459
  193MOL    H4027304   3.050   1.725   5.141  0.0700  0.9936 -1.3474
  193MOL    H4127305   3.042   1.560   5.179 -1.7116  0.4723  0.2919
  193MOL    H4227306   3.255   1.512   5.040 -1.7577  0.4050 -0.7554
  193MOL    H4327307   3.268   1.673   4.909 -0.6026 -2.2353  0.8401
  193MOL    C4427308   3.298   1.633   5.227  0.2165 -0.4684 -0.3608
  193MOL    C4527309   3.281   1.527   5.338 -0.6300  0.1378  0.2899
  193MOL    O4627310   3.228   1.405   5.280 -0.7286 -0.2420  0.2496
  193MOL    H4727311   3.406   1.619   5.219 -0.0411 -1.6240 -2.2970
  193MOL    H4827312   3.284   1.736   5.260  1.7013 -0.4432  0.2511
  193MOL    H4927313   3.202   1.563   5.403 -0.6338 -1.7333  1.3767
  193MOL    H5027314   3.174   1.361   5.344  0.2828  1.6383  2.4584
  193MOL    C5127315   3.397   1.486   5.426  0.3054 -0.8392  0.5493
  193MOL    C5227316   3.477   1.608   5.483 -0.2301 -0.8873 -0.5863
  193MOL    O5327317   3.416   1.637   5.601  0.2435  0.5353  0.1326
  193MOL    H5427318   3.364   1.422   5.508 -0.0624  1.4018  2.2120
  193MOL    H5527319   3.468   1.424   5.371 -1.7817 -2.1141 -0.7907
  193MOL    H5627320   3.477   1.694   5.417 -1.2510  2.3881  3.5214
  193MOL    H5727321   3.360   1.713   5.595 -0.6840 -0.0468  1.3266
  193MOL    C5827322   3.628   1.584   5.503 -0.0460 -0.0849  0.1043
  193MOL    C5927323   3.722   1.597   5.378  0.3665  0.0903  0.2482
  193MOL    O6027324   3.849   1.596   5.429  0.1033 -0.1700 -0.1869
  193MOL    H6127325   3.662   1.658   5.576  0.9610 -0.5681  0.1329
  193MOL    H6227326   3.641   1.486   5.549 -0.3273 -0.1362  0.0734
  193MOL    H6327327   3.703   1.697   5.340 -2.8994 -0.3595  0.4750
  193MOL    H6427328   3.904   1.654   5.378 -1.6008 -0.3053 -2.2321
  193MOL    C6527329   3.701   1.488   5.259  0.0550 -0.2398 -0.1824
  193MOL    C6627330   3.797   1.476   5.147 -0.1337 -0.0024 -0.2900
  193MOL    O6727331   3.776   1.359   5.067  0.1017 -0.4210 -0.1760
  193MOL    H6827332   3.695   1.390   5.306 -0.3088 -0.0538  0.1578
  193MOL    H6927333   3.604   1.521   5.223 -1.2726 -0.1023  3.3346
  193MOL    H7027334   3.887   1.461   5.207 -1.1662 -0.4371  1.1710
  193MOL    H7127335   3.842   1.357   5.000  0.5846 -0.9777  0.3171
  193MOL    C7227336   3.820   1.600   5.045 -0.7529 -0.1711 -0.3628
  193MOL    C7327337   3.843   1.742   5.103  0.3358 -0.4838 -0.0609
  193MOL    O7427338   3.952   1.738   5.181 -0.9800  0.2526  0.1640
  193MOL    H7527339   3.913   1.579   4.993  0.2757 -0.1211  1.4268
  193MOL    H7627340   3.737   1.594   4.975 -1.5670  2.3423  0.3476
  193MOL    H7727341   3.766   1.777   5.172  1.0980  0.9476  0.0876
  193MOL    H7827342   3.968   1.823   5.219  1.0992 -0.3464  0.6920
  193MOL    C7927343   3.873   1.849   4.986  0.2390  0.8284 -0.4626
  193MOL    C8027344   3.781   1.842   4.865 -0.4653 -0.2929 -0.5496
  193MOL    O8127345   3.647   1.823   4.900  0.6868 -0.2628 -0.5034
  193MOL    H8227346   3.882   1.946   5.035 -1.1642  1.2540 -1.0228
  193MOL    H8327347   3.973   1.826   4.948 -0.0845  0.4024 -1.0584
  193MOL    H8427348   3.819   1.750   4.821  0.7176  0.8819 -2.0979
  193MOL    H8527349   3.601   1.772   4.835 -0.7297 -1.4057  1.3172
  193MOL    C8627350   3.804   1.953   4.759  0.5243 -0.5524  0.1473
  193MOL    C8727351   3.757   2.091   4.806 -0.3908 -0.8021 -0.1737
  193MOL    O8827352   3.854   2.181   4.768  0.3503 -1.0955 -0.5209
  193MOL    H8927353   3.912   1.960   4.745  0.2826  2.2025 -0.5693
  193MOL    H9027354   3.773   1.923   4.659  0.0744 -1.9082  0.6729
  193MOL    H9127355   3.749   2.097   4.914 -1.1625  1.4187 -0.3296
  193MOL    H9227356   3.942   2.152   4.785  0.2302 -0.5091  1.1104
  193MOL    C9327357   3.623   2.139   4.748  0.0832  0.3606  0.6777
  193MOL    C9427358   3.583   2.285   4.778 -0.5948  0.1982 -0.2073
  193MOL    O9527359   3.676   2.361   4.706  0.6671 -0.0982  0.1661
  193MOL    H9627360   3.615   2.114   4.643  0.3811  1.3413  0.4158
  193MOL    H9727361   3.545   2.070   4.781  0.3186 -1.3911 -2.2528
  193MOL    H9827362   3.600   2.303   4.884 -1.4040  1.6927 -0.3296
  193MOL    H9927363   3.758   2.315   4.717  2.1981  2.5084  0.1509
  193MOL   C10027364   3.441   2.307   4.742 -0.0565 -0.5500 -0.2466
  193MOL   C10127365   3.400   2.448   4.778  0.0100 -0.2602  0.1766
  193MOL   O10227366   3.481   2.532   4.696 -0.0059 -0.3017 -0.0342
  193MOL   H10327367   3.420   2.281   4.639 -1.8409 -3.5099  0.8213
  193MOL   H10427368   3.373   2.251   4.806  1.2196 -0.5395  1.1391
  193MOL   H10527369   3.431   2.468   4.880  1.6400  0.4697 -0.4430
  193MOL   H10627370   3.557   2.477   4.701 -1.3676 -2.3632 -1.1164
  193MOL   C10727371   3.250   2.487   4.750 -0.4655 -0.3136 -0.2551
  193MOL   C10827372   3.187   2.589   4.846 -0.4145  0.5439 -0.0510
  193MOL   O10927373   3.060   2.635   4.804 -0.7862 -0.3173 -0.5528
  193MOL   H11027374   3.242   2.513   4.645 -1.0972 -1.2696 -0.4475
  193MOL   H11127375   3.186   2.399   4.759  0.8677 -1.5805 -2.5413
  193MOL   H11227376   3.244   2.681   4.834 -1.7485  1.5662  1.2104
  193MOL   H11327377   3.065   2.713   4.751 -1.4448  0.6328  0.7398
  193MOL   C11427378   3.186   2.539   4.988 -0.0301  0.2564 -0.5634
  193MOL   C11527379   3.142   2.638   5.090 -0.7322 -0.2450  0.3329
  193MOL   O11627380   3.086   2.563   5.200  0.3105  0.4135  0.1597
  193MOL   H11727381   3.115   2.458   4.973 -1.2967  1.2662 -0.0430
  193MOL   H11827382   3.277   2.486   5.017 -1.5175 -2.3180 -0.4469
  193MOL   H11927383   3.064   2.703   5.051  0.1432  1.5756  1.5258
  193MOL   H12027384   2.995   2.563   5.173 -0.0060 -2.6424  1.0399
  193MOL   C12127385   3.259   2.721   5.138 -0.6493 -0.2539 -0.0753
  193MOL   C12227386   3.237   2.865   5.178  0.0466  0.7616 -0.0450
  193MOL   O12327387   3.345   2.913   5.247  0.4575  0.1495  0.8184
  193MOL   H12427388   3.290   2.673   5.231 -0.1071  2.2641  1.0964
  193MOL   H12527389   3.345   2.718   5.071  0.5973  1.3568  1.4038
  193MOL   H12627390   3.149   2.869   5.243  0.5660  0.8635  0.6517
  193MOL   H12727391   3.311   2.955   5.325 -2.0162 -0.0340 -0.1109
  193MOL   C12827392   3.228   2.946   5.051 -0.4266 -0.0138  0.0478
  193MOL   C12927393   3.181   3.085   5.068 -0.1822  1.1428 -0.3062
  193MOL   O13027394   3.140   3.129   4.938 -0.0934 -0.4666  0.6193
  193MOL   H13127395   3.329   2.951   5.011 -0.0580  2.4366  1.2049
  193MOL   H13227396   3.154   2.902   4.985  2.1598  0.7453 -3.4654
  193MOL   H13327397   3.259   3.150   5.106  1.0511 -0.9108  0.7884
  193MOL   H13427398   3.120   3.222   4.937  0.4317 -0.3553 -2.3328
  193MOL   C13527399   3.056   3.097   5.160 -0.2133 -0.0339 -0.1659
  193MOL   C13627400   3.000   3.238   5.174  0.3573  0.4050  0.8454
  193MOL   O13727401   2.914   3.231   5.286 -0.4372  0.2251 -0.4341
  193MOL   H13827402   2.978   3.028   5.127 -0.1996  0.4595 -1.2334
  193MOL   H13927403   3.075   3.059   5.261 -0.1826 -0.5791 -0.3741
  193MOL   H14027404   2.935   3.257   5.088 -1.3496 -0.6572  1.8896
  193MOL   H14127405   2.869   3.314   5.294  1.6091  1.1280  3.3436
  193MOL   H14227406   3.068   3.321   5.193  0.7426  0.6846 -1.5139
  194MOL     C127407   2.669   7.221   3.525  0.0182  0.5006  0.5071
  194MOL     C227408   2.626   7.071   3.530 -0.0506  0.2107  0.5004
  194MOL     O327409   2.714   7.007   3.441 -0.0017  0.9166 -0.0948
  194MOL     H427410   2.612   7.274   3.601  0.2813  0.7292  0.5446
  194MOL     H527411   2.633   7.266   3.432 -1.2211 -0.8484  0.3102
  194MOL     H627412   2.521   7.063   3.501  0.2457  0.8650 -0.8065
  194MOL     H727413   2.676   6.929   3.404  1.3088 -0.6733  1.7768
  194MOL     H827414   2.777   7.235   3.528  0.1970 -0.1885 -1.5404
  194MOL     C927415   2.644   7.007   3.673 -0.1110  0.6065 -0.1019
  194MOL    C1027416   2.518   7.010   3.754 -0.2499  0.6057 -0.0671
  194MOL    O1127417   2.546   6.950   3.881  0.4834  0.4233 -0.2641
  194MOL    H1227418   2.664   6.901   3.656 -0.9980  0.3044  0.6946
  194MOL    H1327419   2.731   7.054   3.719  0.6683 -0.6522 -0.2282
  194MOL    H1427420   2.451   6.943   3.700  1.1727 -0.6385 -0.3186
  194MOL    H1527421   2.552   6.857   3.871 -0.8272  0.4213 -1.2415
  194MOL    C1627422   2.450   7.149   3.779 -0.5222 -0.4576  0.5915
  194MOL    C1727423   2.305   7.141   3.842 -0.0899 -1.1086  0.0116
  194MOL    O1827424   2.331   7.143   3.980  0.0876 -0.0207  0.4355
  194MOL    H1927425   2.518   7.221   3.826  1.3627 -1.0515 -1.1506
  194MOL    H2027426   2.435   7.189   3.679  1.6572 -1.5524 -0.2185
  194MOL    H2127427   2.257   7.048   3.810 -0.5857 -0.2283 -1.8723
  194MOL    H2227428   2.405   7.089   4.003 -0.8511 -1.4750  0.1147
  194MOL    C2327429   2.230   7.274   3.805  0.3532  0.2035 -0.5941
  194MOL    C2427430   2.086   7.287   3.866  0.2019 -0.1180  0.1980
  194MOL    O2527431   2.044   7.413   3.819 -0.1717 -0.1696  0.0678
  194MOL    H2627432   2.287   7.365   3.825 -1.5963  1.7107 -1.6327
  194MOL    H2727433   2.219   7.267   3.697 -0.1609 -0.5930 -0.4939
  194MOL    H2827434   2.070   7.295   3.974  0.0450 -0.9243  0.2426
  194MOL    H2927435   1.970   7.437   3.873 -0.1737  0.3511 -0.1716
  194MOL    C3027436   2.006   7.177   3.801  0.2278  0.5032 -0.4336
  194MOL    C3127437   1.872   7.153   3.866  0.2784 -0.4916  0.4180
  194MOL    O3227438   1.792   7.086   3.776 -0.5300  0.6695  0.2428
  194MOL    H3327439   1.992   7.194   3.694  0.8306  0.9393 -0.4467
  194MOL    H3427440   2.060   7.083   3.789  0.8067  0.9880 -1.7135
  194MOL    H3527441   1.819   7.247   3.883  1.8075  0.1225  1.9926
  194MOL    H3627442   1.739   7.143   3.721 -0.3738 -0.3549 -1.0039
  194MOL    C3727443   1.885   7.055   3.979  1.0198  0.1550  0.1791
  194MOL    C3827444   1.761   7.063   4.069 -0.2116  0.4011 -0.3235
  194MOL    O3927445   1.754   6.951   4.147  0.0238  0.5159 -0.3039
  194MOL    H4027446   1.899   6.957   3.935 -0.9595 -1.0215  2.0705
  194MOL    H4127447   1.979   7.074   4.031  0.4266 -1.9188  2.0707
  194MOL    H4227448   1.670   7.069   4.009  0.3797 -2.1998 -1.5479
  194MOL    H4327449   1.721   6.987   4.229  0.9665  2.0897 -0.5979
  194MOL    C4427450   1.779   7.188   4.158 -0.0247  0.7745  0.4032
  194MOL    C4527451   1.667   7.220   4.252 -0.8340  0.1748 -0.0141
  194MOL    O4627452   1.633   7.101   4.322 -0.3556  0.4381  0.2177
  194MOL    H4727453   1.878   7.189   4.204 -0.8523 -0.5146  2.2473
  194MOL    H4827454   1.777   7.273   4.089  0.1055 -0.9842 -1.8315
  194MOL    H4927455   1.584   7.242   4.184 -1.5192  2.0191  1.3894
  194MOL    H5027456   1.581   7.124   4.397 -1.0527  0.8366 -0.3836
  194MOL    C5127457   1.690   7.330   4.355 -0.5363  0.4810 -1.1646
  194MOL    C5227458   1.730   7.469   4.293  0.5190  0.3203 -0.7738
  194MOL    O5327459   1.641   7.505   4.184 -0.0209  0.1685 -0.0386
  194MOL    H5427460   1.598   7.347   4.412  0.2123 -1.3676  0.6823
  194MOL    H5527461   1.769   7.292   4.419  0.2517  2.3488 -0.9847
  194MOL    H5627462   1.826   7.453   4.245  0.0838 -0.2449 -1.4796
  194MOL    H5727463   1.552   7.494   4.214 -0.3877  2.2974 -0.2957
  194MOL    C5827464   1.737   0.057   4.406 -0.0665  0.1030  0.0732
  194MOL    C5927465   1.792   0.196   4.382 -0.1818 -0.3183  0.7078
  194MOL    O6027466   1.800   0.265   4.501 -0.0450  0.0077  0.0212
  194MOL    H6127467   1.643   0.065   4.461 -0.8309  0.2587 -1.2229
  194MOL    H6227468   1.816   0.012   4.465  0.8881  0.1001 -1.1735
  194MOL    H6327469   1.729   0.242   4.306 -0.5660 -3.2042 -0.7792
  194MOL    H6427470   1.859   0.336   4.484 -1.6015  1.1318 -0.8332
  194MOL    C6527471   1.930   0.204   4.315 -0.2530 -0.0143 -0.1763
  194MOL    C6627472   1.969   0.347   4.269  0.5286 -0.3328  0.0064
  194MOL    O6727473   2.002   0.420   4.380  0.4976  0.6477  0.9581
  194MOL    H6827474   1.989   0.175   4.401 -2.8062  2.2269  2.4186
  194MOL    H6927475   1.937   0.128   4.236 -2.2047 -1.3827  0.9111
  194MOL    H7027476   1.885   0.399   4.223  0.5724  1.4606  1.9051
  194MOL    H7127477   2.082   0.470   4.369  0.3021  0.5240 -1.1029
  194MOL    C7227478   2.090   0.341   4.184  0.1203 -0.4973  0.0402
  194MOL    C7327479   2.079   0.314   4.030  0.2415 -0.3577  0.4829
  194MOL    O7427480   1.979   0.404   3.985  0.0164  1.2969 -0.5876
  194MOL    H7527481   2.139   0.438   4.192  2.3031 -1.4033 -1.8990
  194MOL    H7627482   2.167   0.280   4.230 -1.4278 -1.4046  1.4858
  194MOL    H7727483   2.044   0.211   4.025 -3.5485  0.8284  0.7297
  194MOL    H7827484   1.987   0.492   4.016 -2.8725  1.4723 -0.2203
  194MOL    C7927485   2.212   0.336   3.953  0.1870 -0.1373  0.1804
  194MOL    C8027486   2.192   0.343   3.797  0.5957  0.4050 -0.3378
  194MOL    O8127487   2.176   0.479   3.757  0.4069  0.1650  0.7425
  194MOL    H8227488   2.265   0.422   3.992  0.0701 -0.4024  0.9364
  194MOL    H8327489   2.273   0.248   3.974  1.0961 -0.2118 -2.5111
  194MOL    H8427490   2.107   0.283   3.766 -0.1555  0.7249  1.0549
  194MOL    H8527491   2.112   0.516   3.817 -1.2425 -1.7780  0.2324
  194MOL    C8627492   2.325   0.299   3.724  0.0054  0.3241 -0.6167
  194MOL    C8727493   2.345   0.151   3.706  0.2922  0.7125 -0.6414
  194MOL    O8827494   2.229   0.099   3.646  0.1872 -0.2929 -0.1596
  194MOL    H8927495   2.327   0.357   3.631 -0.9130  2.0403  0.4044
  194MOL    H9027496   2.410   0.344   3.776 -0.1999  0.0712 -0.0566
  194MOL    H9127497   2.360   0.098   3.800 -0.6633 -1.6662 -1.7848
  194MOL    H9227498   2.199   0.027   3.701 -0.6155  0.4864  0.4438
  194MOL    C9327499   2.463   0.119   3.613  0.1727  0.0792  0.1573
  194MOL    C9427500   2.591   0.087   3.691  0.4979 -0.4438 -0.6845
  194MOL    O9527501   2.567   7.480   3.760  0.2659  0.1563 -0.2974
  194MOL    H9627502   2.436   0.037   3.546  1.1856 -1.4887  1.6259
  194MOL    H9727503   2.487   0.203   3.549  3.1243 -2.1509 -1.7768
  194MOL    H9827504   2.612   0.164   3.766 -2.7325 -0.8165  0.6822
  194MOL    H9927505   2.645   7.454   3.807  0.7376  0.0217 -1.1370
  194MOL   C10027506   2.705   0.062   3.594 -0.0924  0.2884 -0.5722
  194MOL   C10127507   2.769   0.195   3.539  0.6932  0.2110  0.0818
  194MOL   O10227508   2.896   0.213   3.608  0.5164  0.3275 -0.0649
  194MOL   H10327509   2.783   0.019   3.657  0.7391  0.0105 -1.7572
  194MOL   H10427510   2.677   7.508   3.518  0.1712  0.2569 -0.6395
  194MOL   H10527511   2.699   0.275   3.558  1.7293  1.7905 -2.5564
  194MOL   H10627512   2.900   0.290   3.663  2.5189 -0.7546  1.3553
  194MOL   C10727513   2.805   0.202   3.385  0.1578 -0.8412 -0.8605
  194MOL   C10827514   2.853   0.335   3.330 -0.0093 -0.0020  0.1720
  194MOL   O10927515   2.897   0.318   3.197  0.7364  0.5010 -0.6170
  194MOL   H11027516   2.880   0.127   3.360  0.7895 -0.4030 -0.2838
  194MOL   H11127517   2.723   0.187   3.314  1.0555 -1.0970 -1.8578
  194MOL   H11227518   2.943   0.368   3.383 -0.2377 -3.8204  3.1990
  194MOL   H11327519   2.972   0.375   3.183 -1.3776  3.1976 -1.2997
  194MOL   C11427520   2.742   0.446   3.330 -0.4567  0.0545 -0.4427
  194MOL   C11527521   2.787   0.592   3.287 -0.1242 -0.6828  0.5614
  194MOL   O11627522   2.681   0.672   3.299  0.4870 -0.0658  0.7817
  194MOL   H11727523   2.668   0.407   3.260 -1.6932 -1.4824  1.6652
  194MOL   H11827524   2.712   0.455   3.434  0.7883 -0.1301 -0.0469
  194MOL   H11927525   2.799   0.590   3.179  1.3895  0.8347  0.6874
  194MOL   H12027526   2.722   0.757   3.307 -1.1347  1.0375 -1.9227
  194MOL   C12127527   2.898   0.664   3.369  0.4675  0.1851 -0.1019
  194MOL   C12227528   2.959   0.792   3.309 -0.3886  0.1019  0.4310
  194MOL   O12327529   2.863   0.887   3.304 -0.6701  0.3764 -0.3095
  194MOL   H12427530   2.855   0.682   3.467  1.3347  2.9215 -0.1904
  194MOL   H12527531   2.972   0.586   3.386  0.7697  0.2606 -1.0353
  194MOL   H12627532   2.986   0.770   3.206 -0.0280  2.1046  0.0727
  194MOL   H12727533   2.898   0.962   3.259  1.2992  0.2508  0.9368
  194MOL   C12827534   3.086   0.838   3.387 -0.7689 -0.0349 -0.0062
  194MOL   C12927535   3.057   0.929   3.504 -0.4622  0.2044  0.2425
  194MOL   O13027536   3.006   0.859   3.611  0.5243 -0.1403  0.7067
  194MOL   H13127537   3.138   0.751   3.427  2.5419  0.8555 -2.2114
  194MOL   H13227538   3.163   0.884   3.325  0.3772 -0.2911  1.2034
  194MOL   H13327539   2.983   1.006   3.480 -2.3579 -1.9302 -0.9450
  194MOL   H13427540   2.915   0.845   3.593  0.6357 -0.6832  0.5487
  194MOL   C13527541   3.188   0.990   3.564  0.0854 -0.0461  0.6860
  194MOL   C13627542   3.267   1.089   3.478 -0.5172 -0.1955 -0.1735
  194MOL   O13727543   3.348   1.158   3.574 -0.7744 -0.6755 -0.6635
  194MOL   H13827544   3.161   1.032   3.661 -0.0627 -0.2540  0.7339
  194MOL   H13927545   3.257   0.908   3.582  0.9230  0.8798  1.7803
  194MOL   H14027546   3.212   1.162   3.419  1.7905  1.1549 -0.7331
  194MOL   H14127547   3.405   1.219   3.529 -0.2860  0.5289  1.5633
  194MOL   H14227548   3.335   1.042   3.407 -0.0375 -1.0829  0.8589
  195MOL     C127549   0.969   6.038   5.141 -0.7525  0.1835  0.1884
  195MOL     C227550   1.111   5.992   5.096 -0.0263 -0.4525 -0.7518
  195MOL     O327551   1.208   6.082   5.148  0.0480  0.4447 -0.1439
  195MOL     H427552   0.885   5.978   5.107 -0.1088 -0.3097 -0.5157
  195MOL     H527553   0.950   6.133   5.092  1.4610  1.9524  2.5989
  195MOL     H627554   1.122   5.997   4.988  2.2827  0.9047 -0.4751
  195MOL     H727555   1.274   6.086   5.080  0.3763 -0.3960  0.1055
  195MOL     H827556   0.968   6.051   5.250  1.6418  2.4342 -0.0144
  195MOL     C927557   1.134   5.854   5.144 -0.1977 -0.3045 -0.7732
  195MOL    C1027558   1.050   5.737   5.073  0.2757  0.2895  0.2148
  195MOL    O1127559   1.119   5.706   4.955  0.4649 -0.0997 -0.2148
  195MOL    H1227560   1.242   5.838   5.145  0.0484  1.0905 -2.5750
  195MOL    H1327561   1.112   5.861   5.250  1.5062 -0.4926 -0.3855
  195MOL    H1427562   0.950   5.770   5.047  0.0442 -0.0278  0.6937
  195MOL    H1527563   1.210   5.687   4.973  0.0224 -1.6160  0.5267
  195MOL    C1627564   1.042   5.611   5.163  0.2661  0.0002  0.2603
  195MOL    C1727565   0.923   5.585   5.256 -0.2592  0.1138 -0.1911
  195MOL    O1827566   0.917   5.448   5.292 -0.7838 -0.0460  0.6926
  195MOL    H1927567   1.032   5.525   5.096  0.2210 -0.2102  0.5374
  195MOL    H2027568   1.131   5.597   5.225  1.1524  0.2054 -0.9514
  195MOL    H2127569   0.837   5.613   5.195 -0.3146 -2.4204 -1.3717
  195MOL    H2227570   0.871   5.444   5.375 -0.1993 -0.5556  0.9954
  195MOL    C2327571   0.927   5.668   5.383 -0.0162 -0.1814 -0.3901
  195MOL    C2427572   0.784   5.680   5.447  0.3859  1.1302 -0.0495
  195MOL    O2527573   0.792   5.695   5.587 -0.5823  0.4846  0.4032
  195MOL    H2627574   0.998   5.618   5.450  0.4601  1.1957  0.1431
  195MOL    H2727575   0.960   5.770   5.362  2.5207 -0.7687  0.4523
  195MOL    H2827576   0.738   5.584   5.426 -1.0061  1.5951  0.8137
  195MOL    H2927577   0.798   5.613   5.634 -1.8930  0.6468  0.8938
  195MOL    C3027578   0.697   5.792   5.391 -0.2412 -0.6157  0.8960
  195MOL    C3127579   0.551   5.791   5.451 -0.3325  0.0870 -0.2079
  195MOL    O3227580   0.517   5.926   5.486 -0.0151 -0.2177  0.0577
  195MOL    H3327581   0.741   5.891   5.399  1.6077 -1.3108 -0.2549
  195MOL    H3427582   0.689   5.777   5.283  2.7046  0.6470  0.4256
  195MOL    H3527583   0.555   5.742   5.548  1.3062 -0.0545 -0.3204
  195MOL    H3627584   0.589   5.979   5.518 -0.5761 -0.3001  1.4513
  195MOL    C3727585   0.448   5.728   5.353 -0.3313 -0.1350 -0.9315
  195MOL    C3827586   0.304   5.701   5.406  0.4422 -0.0905  0.1556
  195MOL    O3927587   0.230   5.656   5.294  0.2753  0.1660 -0.3247
  195MOL    H4027588   0.448   5.791   5.264  0.2198  1.7236  0.3594
  195MOL    H4127589   0.487   5.632   5.320 -1.0129 -0.5721 -0.4796
  195MOL    H4227590   0.271   5.798   5.444 -1.9272 -0.9636  0.3752
  195MOL    H4327591   0.225   5.732   5.237  0.3517 -0.5550 -1.3087
  195MOL    C4427592   0.296   5.599   5.515 -0.2444 -0.4174  0.4488
  195MOL    C4527593   0.161   5.611   5.586 -0.1354 -0.1431 -0.3560
  195MOL    O4627594   0.144   5.493   5.674  0.2538 -0.0169 -0.6819
  195MOL    H4727595   0.322   5.495   5.500 -0.7153 -0.6334  1.1240
  195MOL    H4827596   0.376   5.622   5.586 -2.8540  0.8543  3.1056
  195MOL    H4927597   0.090   5.603   5.504 -1.2345  0.5722  0.5173
  195MOL    H5027598   0.071   5.443   5.640 -0.5344  1.3908 -1.0984
  195MOL    C5127599   0.139   5.750   5.662  0.0836 -0.0746  0.3078
  195MOL    C5227600   0.044   5.862   5.606  0.0800 -0.1902 -0.1548
  195MOL    O5327601   7.435   5.842   5.658 -0.0308 -0.3701  0.1510
  195MOL    H5427602   0.100   5.719   5.759  0.7002 -1.4372  0.1344
  195MOL    H5527603   0.237   5.791   5.684  0.2292 -0.5232  0.5099
  195MOL    H5627604   0.037   5.846   5.498  0.2985 -0.0884 -0.1837
  195MOL    H5727605   7.385   5.907   5.611 -1.5456 -2.2130 -0.8579
  195MOL    C5827606   0.067   6.010   5.636  0.4200 -0.5331 -0.9119
  195MOL    C5927607   0.180   6.080   5.558  0.2392 -0.0490  0.4020
  195MOL    O6027608   0.140   6.118   5.427  0.1293 -0.3671 -0.5901
  195MOL    H6127609   7.495   6.066   5.613  0.7120  0.8475  1.1701
  195MOL    H6227610   0.080   6.021   5.743  0.0691  1.7960 -1.0874
  195MOL    H6327611   0.260   6.005   5.553 -0.6912 -0.9334 -1.7321
  195MOL    H6427612   0.067   6.175   5.443  0.8326  0.7599 -1.2751
  195MOL    C6527613   0.226   6.206   5.632  0.1370  0.1149  0.3611
  195MOL    C6627614   0.296   6.179   5.770  0.3341 -0.4520  0.5412
  195MOL    O6727615   0.414   6.111   5.740  0.1022 -0.4557  0.7626
  195MOL    H6827616   0.289   6.272   5.572 -1.1525 -0.1861 -1.3457
  195MOL    H6927617   0.134   6.261   5.652  0.7303  0.8598  1.0875
  195MOL    H7027618   0.242   6.115   5.840 -3.5501  1.0255 -0.9654
  195MOL    H7127619   0.406   6.026   5.780 -1.2075 -0.8712 -0.3210
  195MOL    C7227620   0.331   6.321   5.827  0.0140  0.2560 -0.2334
  195MOL    C7327621   0.410   6.321   5.963  0.2555  0.0110  0.7513
  195MOL    O7427622   0.544   6.295   5.939 -0.0732 -0.5944 -0.2274
  195MOL    H7527623   0.391   6.375   5.754  1.1375 -0.4393  0.1644
  195MOL    H7627624   0.241   6.381   5.835  0.5767  1.0792  0.0429
  195MOL    H7727625   0.378   6.236   6.024 -0.3371  0.2200  0.7391
  195MOL    H7827626   0.543   6.214   5.891 -0.9028 -1.5037  1.3158
  195MOL    C7927627   0.387   6.440   6.064  0.4203 -0.7018  0.6700
  195MOL    C8027628   0.440   6.426   6.208  0.8078 -0.0993  0.7358
  195MOL    O8127629   0.578   6.458   6.212 -0.2274  0.4165 -0.0514
  195MOL    H8227630   0.438   6.525   6.019 -1.0841 -0.4976 -0.6896
  195MOL    H8327631   0.289   6.488   6.068  0.7893 -0.0512  3.0531
  195MOL    H8427632   0.432   6.324   6.245  1.7544 -0.5367 -0.2434
  195MOL    H8527633   0.623   6.401   6.151  0.2000 -1.2793  1.8055
  195MOL    C8627634   0.362   6.509   6.303  0.3311  1.0892 -0.0761
  195MOL    C8727635   0.410   6.506   6.456 -0.4490  0.7489  0.2420
  195MOL    O8827636   0.528   6.576   6.457 -0.2401 -0.1292  0.3423
  195MOL    H8927637   0.340   6.608   6.262 -0.6323  0.1592 -1.8494
  195MOL    H9027638   0.261   6.469   6.307  0.0505  1.4422 -2.8565
  195MOL    H9127639   0.434   6.409   6.500 -2.1102  0.4099  0.4138
  195MOL    H9227640   0.576   6.533   6.388 -1.9954 -0.3804 -0.7636
  195MOL    C9327641   0.306   6.572   6.547  0.1252  0.2148 -0.6140
  195MOL    C9427642   0.346   6.600   6.698  0.1115  0.6267 -0.0784
  195MOL    O9527643   0.239   6.680   6.755 -0.2795 -0.2850  0.5007
  195MOL    H9627644   0.278   6.665   6.497  0.7989  1.5923  1.4956
  195MOL    H9727645   0.212   6.520   6.526 -0.6966  0.9798  1.0643
  195MOL    H9827646   0.438   6.659   6.699  1.9707 -2.1626 -0.8218
  195MOL    H9927647   0.265   6.711   6.840  1.5324  3.3012 -1.2608
  195MOL   C10027648   0.372   6.476   6.790  0.1805 -0.4196  0.1440
  195MOL   C10127649   0.460   6.485   6.921  0.3300 -0.7101  1.1282
  195MOL   O10227650   0.393   6.513   7.040 -0.8948 -0.1947 -0.0844
  195MOL   H10327651   0.273   6.441   6.818  1.2047 -1.3986  2.6278
  195MOL   H10427652   0.399   6.387   6.733 -0.2468 -1.1297  1.0277
  195MOL   H10527653   0.527   6.569   6.902  0.7199 -1.1339  0.6070
  195MOL   H10627654   0.398   6.432   7.089  0.5098  0.3357  0.6764
  195MOL   C10727655   0.556   6.361   6.930 -0.0551  0.3085 -0.3630
  195MOL   C10827656   0.680   6.366   7.018  0.2220 -0.3073 -0.1361
  195MOL   O10927657   0.765   6.475   6.984 -0.1028 -0.2825 -0.2176
  195MOL   H11027658   0.504   6.266   6.946  0.8973  0.0203  1.1165
  195MOL   H11127659   0.601   6.343   6.832  2.8917  3.3747  0.3412
  195MOL   H11227660   0.734   6.274   6.996  1.7347  0.1558  1.5291
  195MOL   H11327661   0.813   6.445   6.909 -0.8691  0.5815 -1.0535
  195MOL   C11427662   0.643   6.367   7.170 -0.3250 -0.0572  0.1742
  195MOL   C11527663   0.761   6.379   7.272  0.3529  0.0176 -0.0586
  195MOL   O11627664   0.707   6.353   7.402  0.2102 -0.7050 -0.3504
  195MOL   H11727665   0.567   6.441   7.193 -0.3947 -0.5886  1.7769
  195MOL   H11827666   0.579   6.285   7.202  1.0950 -1.1424  0.2988
  195MOL   H11927667   0.807   6.477   7.282  0.4018 -0.2100  2.1488
  195MOL   H12027668   0.712   6.435   7.448 -1.6566 -0.6853 -0.1497
  195MOL   C12127669   0.876   6.279   7.245  0.2002  0.0999 -0.0182
  195MOL   C12227670   1.004   6.305   7.335  0.0242  0.3252  0.3105
  195MOL   O12327671   1.104   6.215   7.288  0.6829  0.0608  0.2166
  195MOL   H12427672   0.854   6.173   7.258  1.0776  0.1911  2.4714
  195MOL   H12527673   0.907   6.289   7.141 -0.9360  1.1492 -0.2743
  195MOL   H12627674   0.991   6.272   7.438 -0.4093 -0.6495 -0.0562
  195MOL   H12727675   1.145   6.248   7.210  2.0627  1.0011  1.3084
  195MOL   C12827676   1.053   6.450   7.325 -0.5898 -0.1429 -0.0391
  195MOL   C12927677   1.013   6.537   7.443  0.2864 -0.2001 -0.5020
  195MOL   O13027678   1.111   6.523   0.022 -0.6448 -0.0576 -0.2150
  195MOL   H13127679   1.158   6.460   7.297 -0.9941 -0.6068 -1.8296
  195MOL   H13227680   1.010   6.499   7.237 -0.1365  1.1138  0.4360
  195MOL   H13327681   0.919   6.511   7.492 -0.8375  0.7820 -2.1169
  195MOL   H13427682   1.199   6.530   7.509 -1.8478  0.2125 -3.5536
  195MOL   C13527683   1.008   6.685   7.408  0.2150 -0.9053  0.1289
  195MOL   C13627684   0.977   6.778   0.001  0.8314 -0.6484 -0.5093
  195MOL   O13727685   0.980   6.915   7.480  0.1496 -0.4070 -0.2226
  195MOL   H13827686   1.097   6.709   7.350  1.7164  0.4229  2.9001
  195MOL   H13927687   0.924   6.690   7.338  0.6059 -0.6995 -0.3269
  195MOL   H14027688   1.036   6.750   0.089 -0.0624  1.8915  0.9452
  195MOL   H14127689   0.901   6.940   7.435 -0.0250  0.8295  0.7510
  195MOL   H14227690   0.879   6.763   0.046  0.9890  1.3941  0.5638
  196MOL     C127691   4.736   2.408   7.514  0.1198  0.0834  1.2293
  196MOL     C227692   4.775   2.383   0.139  0.0947  0.2767 -0.2444
  196MOL     O327693   4.796   2.507   0.203  0.2749  0.2529 -0.7130
  196MOL     H427694   4.703   2.314   7.470 -0.6091 -0.4743  2.9309
  196MOL     H527695   4.815   2.448   7.450 -2.0851  2.8047  0.0926
  196MOL     H627696   4.864   2.322   0.153  1.0353  1.8024  0.5267
  196MOL     H727697   4.887   2.529   0.185  0.0551  1.0446 -0.8968
  196MOL     H827698   4.657   2.482   7.502 -0.8465 -0.9877  0.8992
  196MOL     C927699   4.662   2.308   0.210 -0.2088 -0.3291 -0.1758
  196MOL    C1027700   4.679   2.293   0.371 -0.0486  0.4801 -0.2182
  196MOL    O1127701   4.545   2.253   0.408  0.0217  0.2227  0.8581
  196MOL    H1227702   4.565   2.352   0.185  0.6538  1.5642 -0.2694
  196MOL    H1327703   4.643   2.215   0.156 -0.3320  0.2414 -1.1279
  196MOL    H1427704   4.696   2.388   0.421 -2.8774  0.1868  1.4608
  196MOL    H1527705   4.521   2.185   0.347  0.3597 -0.0809  1.0587
  196MOL    C1627706   4.783   2.196   0.431  0.0608 -0.1344 -0.2073
  196MOL    C1727707   4.779   2.182   0.584  0.1502  0.2517 -0.3344
  196MOL    O1827708   4.676   2.084   0.613 -0.0429 -0.2710 -0.0768
  196MOL    H1927709   4.785   2.099   0.380  1.7442 -1.1348  1.6637
  196MOL    H2027710   4.877   2.240   0.401  0.3081 -0.2449  0.3973
  196MOL    H2127711   4.735   2.275   0.619 -0.1719 -0.8500  2.2613
  196MOL    H2227712   4.602   2.106   0.559  0.2969 -0.1760 -0.5169
  196MOL    C2327713   4.904   2.139   0.656  0.1016 -0.2602 -0.9953
  196MOL    C2427714   5.019   2.237   0.662  0.0583  0.0464  0.1934
  196MOL    O2527715   5.081   2.242   0.789  0.2504  0.0045 -0.2412
  196MOL    H2627716   4.878   2.121   0.760  1.8936  3.0222  0.0907
  196MOL    H2727717   4.942   2.045   0.616  1.3832  0.6066 -1.8519
  196MOL    H2827718   4.972   2.335   0.649  0.2448 -0.1317 -1.9421
  196MOL    H2927719   5.010   2.237   0.851  1.3436 -0.3798  1.0135
  196MOL    C3027720   5.134   2.207   0.557  0.1259  0.4846  0.3136
  196MOL    C3127721   5.208   2.334   0.493  0.6422 -0.0434  0.8697
  196MOL    O3227722   5.293   2.395   0.586 -0.1884  0.0130 -0.3271
  196MOL    H3327723   5.210   2.142   0.599  2.0091  3.1164  1.1308
  196MOL    H3427724   5.094   2.149   0.474 -0.7391 -1.0265  1.7696
  196MOL    H3527725   5.125   2.402   0.473  0.3291 -0.6828 -0.0626
  196MOL    H3627726   5.372   2.343   0.584  0.1138  0.3236  2.2435
  196MOL    C3727727   5.287   2.309   0.363  0.2110  0.5180  0.0232
  196MOL    C3827728   5.197   2.265   0.251 -0.2448 -0.8067  0.1276
  196MOL    O3927729   5.099   2.366   0.230 -0.0927 -0.5916  0.0160
  196MOL    H4027730   5.359   2.385   0.332 -0.5442  0.8591 -0.8952
  196MOL    H4127731   5.348   2.220   0.379  0.0932 -0.4584 -4.4291
  196MOL    H4227732   5.152   2.167   0.267  3.7690 -3.0823 -1.6515
  196MOL    H4327733   5.143   2.440   0.190 -1.2563 -0.4338 -0.9906
  196MOL    C4427734   5.284   2.240   0.126 -0.4484  0.1241  0.4882
  196MOL    C4527735   5.219   2.208   7.513  0.5783  0.0358 -0.2180
  196MOL    O4627736   5.312   2.223   7.413  0.1686  0.3194 -0.2076
  196MOL    H4727737   5.339   2.333   0.117 -3.1839  1.6781 -0.6841
  196MOL    H4827738   5.364   2.169   0.150 -1.4816 -1.8230 -1.6314
  196MOL    H4927739   5.139   2.274   7.479  1.6716  2.0757  1.0347
  196MOL    H5027740   5.268   2.244   7.332 -2.3119 -1.1081  0.7421
  196MOL    C5127741   5.156   2.070   7.505  0.1563  0.2591 -0.2703
  196MOL    C5227742   5.011   2.058   0.039 -0.0476 -0.4156  0.2192
  196MOL    O5327743   4.911   2.083   7.464 -0.3247  0.0213 -0.4784
  196MOL    H5427744   5.161   2.022   7.407 -2.3026 -2.4310  0.8472
  196MOL    H5527745   5.223   2.005   0.041 -1.0875 -0.6894  0.1463
  196MOL    H5627746   5.001   2.137   0.114  1.4890  0.9908 -1.0063
  196MOL    H5727747   4.923   2.170   7.429 -0.3404  0.3535  0.3223
  196MOL    C5827748   4.976   1.919   0.103  0.1376 -0.3983  0.3768
  196MOL    C5927749   5.047   1.891   0.226  0.1872 -0.0704 -0.0836
  196MOL    O6027750   4.974   1.941   0.331 -0.1418 -0.2401 -0.5063
  196MOL    H6127751   4.871   1.895   0.118 -0.3919 -1.0345 -3.7266
  196MOL    H6227752   5.015   1.850   0.028  0.0919  0.0931 -0.1022
  196MOL    H6327753   5.142   1.945   0.224  0.2225 -0.0668  1.0790
  196MOL    H6427754   4.968   1.873   0.396 -1.9619  0.2854 -0.1117
  196MOL    C6527755   5.065   1.742   0.258  0.4532  0.3714 -0.2400
  196MOL    C6627756   5.173   1.658   0.176  0.3181  0.1155  0.2063
  196MOL    O6727757   5.298   1.726   0.167  0.7548  0.2575 -0.3609
  196MOL    H6827758   5.089   1.731   0.364 -1.5818  0.9063  0.2970
  196MOL    H6927759   4.964   1.706   0.243  1.1568 -1.0009 -1.8507
  196MOL    H7027760   5.122   1.633   0.084  2.9534  0.6820 -1.4564
  196MOL    H7127761   5.312   1.741   0.075 -2.9225  0.3025 -0.9737
  196MOL    C7227762   5.201   1.518   0.242  0.9147  0.0578  0.8493
  196MOL    C7327763   5.085   1.424   0.281  0.5887  0.5672  0.0217
  196MOL    O7427764   5.016   1.380   0.162  0.2935  0.5053 -0.3788
  196MOL    H7527765   5.274   1.463   0.184  2.0449  1.5137  0.8522
  196MOL    H7627766   5.260   1.542   0.330  0.4510  1.2041  0.8605
  196MOL    H7727767   5.001   1.459   0.341  0.3881 -1.7535  1.1547
  196MOL    H7827768   4.930   1.418   0.166 -0.2372 -0.7104  0.1620
  196MOL    C7927769   5.134   1.298   0.367 -1.3037 -0.8579  0.4424
  196MOL    C8027770   5.022   1.195   0.415  1.0231 -0.4838 -0.3740
  196MOL    O8127771   5.098   1.080   0.462  0.0908 -0.3888 -0.4076
  196MOL    H8227772   5.206   1.238   0.311 -0.5914  1.9778 -1.7354
  196MOL    H8327773   5.188   1.332   0.455  1.6351 -1.1263 -1.1941
  196MOL    H8427774   4.970   1.160   0.326 -0.0010 -0.8750  0.3800
  196MOL    H8527775   5.155   1.115   0.529 -0.9450  0.6040 -0.0348
  196MOL    C8627776   4.919   1.253   0.508 -0.1394  0.0667  0.7382
  196MOL    C8727777   4.806   1.156   0.539 -0.2480  0.1898 -0.2020
  196MOL    O8827778   4.734   1.216   0.649 -0.0596 -0.4822  0.8334
  196MOL    H8927779   4.974   1.287   0.596 -1.4432  1.6844  0.9503
  196MOL    H9027780   4.877   1.343   0.464 -0.1635 -1.8453 -3.3176
  196MOL    H9127781   4.840   1.059   0.574  0.9724  0.5628 -0.3350
  196MOL    H9227782   4.751   1.167   0.728 -1.9429 -2.7984 -0.1518
  196MOL    C9327783   4.708   1.145   0.421 -0.0761 -0.2614  0.3447
  196MOL    C9427784   4.601   1.039   0.442 -0.3332  0.5288 -0.6118
  196MOL    O9527785   4.502   1.099   0.534  0.1715  0.3969 -0.6299
  196MOL    H9627786   4.654   1.238   0.405 -0.2110 -0.3343  0.3719
  196MOL    H9727787   4.764   1.134   0.328 -0.8746 -0.8169 -0.0780
  196MOL    H9827788   4.642   0.948   0.485 -0.0785  2.0055  2.4007
  196MOL    H9927789   4.539   1.098   0.621 -2.5370 -0.4117  0.5591
  196MOL   C10027790   4.524   1.014   0.314  0.8086  0.6377  0.2302
  196MOL   C10127791   4.381   0.947   0.314 -0.5628  0.8072  0.2696
  196MOL   O10227792   4.312   0.981   0.194 -0.0601 -0.1647 -0.0450
  196MOL   H10327793   4.507   1.109   0.265 -1.3270 -0.3088 -0.9218
  196MOL   H10427794   4.590   0.953   0.252 -1.4681 -2.8307  1.0608
  196MOL   H10527795   4.317   0.997   0.387 -0.9728  0.8440 -0.1130
  196MOL   H10627796   4.289   1.073   0.189  0.4208 -0.1546 -2.9776
  196MOL   C10727797   4.376   0.789   0.332  0.1886  0.3536 -0.0745
  196MOL   C10827798   4.429   0.722   0.459  0.3860 -0.6182  0.6380
  196MOL   O10927799   4.317   0.683   0.535 -0.1778 -0.2160  0.1213
  196MOL   H11027800   4.276   0.749   0.322  0.7847 -0.7206 -1.9643
  196MOL   H11127801   4.425   0.735   0.251 -1.3384 -0.6057 -0.3728
  196MOL   H11227802   4.473   0.810   0.506 -1.9227 -1.1076  3.8437
  196MOL   H11327803   4.313   0.763   0.586  2.6790  1.4058 -2.0590
  196MOL   C11427804   4.528   0.614   0.421 -0.5958  0.2631 -0.3962
  196MOL   C11527805   4.670   0.658   0.391 -0.3202  0.7653  0.2602
  196MOL   O11627806   4.737   0.724   0.500  0.2490 -0.5170  0.6134
  196MOL   H11727807   4.530   0.548   0.508  1.3306 -0.4343 -0.9349
  196MOL   H11827808   4.494   0.547   0.343 -1.3560  0.5624 -0.3227
  196MOL   H11927809   4.667   0.725   0.304  0.6563  0.5537  0.0613
  196MOL   H12027810   4.817   0.764   0.468 -0.2720 -0.1354 -0.2431
  196MOL   C12127811   4.760   0.536   0.367 -0.7299 -0.4824  0.1950
  196MOL   C12227812   4.915   0.556   0.345 -1.3886 -0.0422  0.3733
  196MOL   O12327813   4.981   0.429   0.312  0.4971 -0.1575  0.2750
  196MOL   H12427814   4.757   0.471   0.455 -1.4067  0.7866  1.1150
  196MOL   H12527815   4.720   0.481   0.281  0.4219 -0.3815 -0.4101
  196MOL   H12627816   4.960   0.581   0.441 -1.7141 -3.0849  1.3755
  196MOL   H12727817   5.013   0.391   0.392  0.6619  2.2254  1.3987
  196MOL   C12827818   4.958   0.665   0.240 -0.9533 -0.7412 -0.4759
  196MOL   C12927819   5.027   0.799   0.283  0.0101 -0.0669  0.5270
  196MOL   O13027820   4.952   0.858   0.386  0.3262  0.2261 -0.3465
  196MOL   H13127821   4.998   0.618   0.151  0.1368 -4.0225  1.6580
  196MOL   H13227822   4.864   0.706   0.201 -0.2053  2.1371  0.6481
  196MOL   H13327823   5.032   0.866   0.197  0.9728  0.4511  0.9936
  196MOL   H13427824   4.999   0.935   0.413  0.3961 -0.1610  0.6382
  196MOL   C13527825   5.170   0.785   0.338 -0.6071  0.3326  0.2000
  196MOL   C13627826   5.273   0.744   0.231  0.3706 -0.4208 -0.7452
  196MOL   O13727827   5.409   0.773   0.247  0.0551 -0.1303 -0.4910
  196MOL   H13827828   5.196   0.878   0.389 -0.2822  1.0866 -1.3284
  196MOL   H13927829   5.162   0.708   0.416 -0.6255  0.2436  0.1109
  196MOL   H14027830   5.233   0.777   0.135 -0.5448 -2.1978 -0.9952
  196MOL   H14127831   5.434   0.737   0.331 -2.2251 -1.1695 -0.2129
  196MOL   H14227832   5.257   0.637   0.228 -2.2250 -0.1000  0.3101
  197MOL     C127833   2.981   4.754   3.024 -0.0673  0.3714 -0.0283
  197MOL     C227834   2.908   4.876   2.984  0.4428  0.1049  0.0482
  197MOL     O327835   3.004   4.973   2.938 -0.1761 -0.5170 -0.0639
  197MOL     H427836   3.028   4.715   2.934 -2.1102  0.4276 -1.1634
  197MOL     H527837   2.914   4.675   3.057  0.3741 -0.8372 -1.9885
  197MOL     H627838   2.864   4.921   3.073  0.8502 -0.1146  0.3654
  197MOL     H727839   3.063   5.001   3.006 -2.0478  2.1298  0.5413
  197MOL     H827840   3.063   4.773   3.093  1.5004 -1.4084 -1.3623
  197MOL     C927841   2.800   4.846   2.875  0.1285 -0.8047  0.1166
  197MOL    C1027842   2.699   4.964   2.843  0.3205 -0.6635  0.0182
  197MOL    O1127843   2.643   4.927   2.716 -0.4241 -0.2076 -0.1618
  197MOL    H1227844   2.859   4.826   2.786  1.3364  0.5128  0.6100
  197MOL    H1327845   2.747   4.757   2.908  0.4958 -1.2480 -0.4876
  197MOL    H1427846   2.760   5.053   2.825 -0.9518  0.1646 -0.2639
  197MOL    H1527847   2.706   4.951   2.650 -0.1321 -1.0028 -0.1704
  197MOL    C1627848   2.574   4.974   2.938  0.4727  0.2004 -0.7884
  197MOL    C1727849   2.546   5.114   2.989 -0.0896  0.4493  0.0279
  197MOL    O1827850   2.417   5.105   3.048 -0.3276 -0.7379 -0.1680
  197MOL    H1927851   2.492   4.925   2.887  0.8789  0.2469 -1.4922
  197MOL    H2027852   2.572   4.903   3.020 -0.5426  1.1458  0.0218
  197MOL    H2127853   2.543   5.181   2.903  2.5120 -2.3207 -2.3554
  197MOL    H2227854   2.354   5.064   2.990 -2.3139  2.1899 -0.2169
  197MOL    C2327855   2.660   5.173   3.084 -0.2025  0.3341 -1.0822
  197MOL    C2427856   2.647   5.327   3.124  0.5714  0.2516 -0.6466
  197MOL    O2527857   2.666   5.411   3.011 -0.5776  0.0389 -0.4226
  197MOL    H2627858   2.665   5.118   3.178  0.2048  1.1959 -0.5888
  197MOL    H2727859   2.755   5.147   3.038  0.4091 -1.0063  0.8513
  197MOL    H2827860   2.726   5.339   3.198  1.5169 -0.7374 -1.4571
  197MOL    H2927861   2.588   5.412   2.957 -0.2391 -2.3978 -1.0311
  197MOL    C3027862   2.518   5.374   3.195 -0.3103  0.4904  0.1919
  197MOL    C3127863   2.469   5.306   3.327 -0.6733 -0.4059 -0.4562
  197MOL    O3227864   2.550   5.345   3.437  0.6464  0.0101  0.4242
  197MOL    H3327865   2.528   5.481   3.212  1.3755  0.3942 -0.1120
  197MOL    H3427866   2.432   5.356   3.130  0.7408 -1.6441 -0.6927
  197MOL    H3527867   2.485   5.201   3.305  0.5045 -0.2363 -0.4214
  197MOL    H3627868   2.630   5.297   3.424  1.3263  1.6558 -1.7867
  197MOL    C3727869   2.319   5.334   3.368  0.2371  0.5336 -0.0800
  197MOL    C3827870   2.211   5.269   3.278 -0.1763  0.3056  0.4464
  197MOL    O3927871   2.222   5.127   3.280 -0.2025 -0.2530 -0.1508
  197MOL    H4027872   2.306   5.291   3.468 -0.4474  0.1436 -0.3316
  197MOL    H4127873   2.300   5.441   3.377  2.0557  0.8858 -0.1290
  197MOL    H4227874   2.233   5.305   3.178  1.3257 -1.9852 -0.0769
  197MOL    H4327875   2.294   5.106   3.223 -1.0165 -1.8604 -0.6265
  197MOL    C4427876   2.069   5.322   3.324 -0.1649 -0.2496 -0.1261
  197MOL    C4527877   1.952   5.247   3.264 -0.5695 -0.5260 -0.4696
  197MOL    O4627878   1.841   5.281   3.334  0.2767 -0.1911  0.1814
  197MOL    H4727879   2.053   5.316   3.432 -3.3896  1.8146 -0.4341
  197MOL    H4827880   2.067   5.429   3.303  1.2151 -0.0571  0.6850
  197MOL    H4927881   1.961   5.138   3.270  2.2134 -0.3728 -0.8296
  197MOL    H5027882   1.778   5.212   3.332  2.7579 -2.5539  0.5675
  197MOL    C5127883   1.936   5.272   3.114  0.2423  0.1416  0.1311
  197MOL    C5227884   1.880   5.148   3.030  0.1847  0.2116 -0.1580
  197MOL    O5327885   1.829   5.208   2.910 -0.2334 -0.1339  0.2118
  197MOL    H5427886   1.852   5.341   3.105  0.4109  0.1880 -1.2357
  197MOL    H5527887   2.022   5.323   3.071  0.9190 -0.8297  0.3260
  197MOL    H5627888   1.795   5.105   3.083 -0.8262  2.0787 -0.2201
  197MOL    H5727889   1.899   5.216   2.847 -1.3465  1.0527 -0.9078
  197MOL    C5827890   1.985   5.039   3.002  0.7326  0.3006 -0.6879
  197MOL    C5927891   1.953   4.949   2.883 -0.0116  0.3177 -0.1993
  197MOL    O6027892   2.071   4.869   2.864 -0.4437  0.5587 -0.0277
  197MOL    H6127893   2.082   5.082   2.980  1.6395 -1.1793  0.3176
  197MOL    H6227894   2.008   4.990   3.097 -1.1359  0.8041  0.0522
  197MOL    H6327895   1.947   5.006   2.790  1.3277 -0.0615 -0.5290
  197MOL    H6427896   2.078   4.834   2.777 -1.5526  0.5695 -0.1279
  197MOL    C6527897   1.828   4.858   2.898  0.1009  0.5951 -0.1139
  197MOL    C6627898   1.699   4.892   2.810 -1.0275  0.6580 -0.1754
  197MOL    O6727899   1.638   5.014   2.861 -0.2007  0.6805  0.4896
  197MOL    H6827900   1.860   4.757   2.874 -0.3469  0.4719 -0.1915
  197MOL    H6927901   1.797   4.845   3.002  0.4336 -1.5922 -0.2836
  197MOL    H7027902   1.636   4.804   2.827 -0.9511  0.6917  0.3114
  197MOL    H7127903   1.702   5.082   2.877 -0.6103  1.3897 -0.7924
  197MOL    C7227904   1.733   4.898   2.658 -0.7863 -0.1388 -0.2479
  197MOL    C7327905   1.618   4.854   2.564  0.2771 -0.3509  0.7198
  197MOL    O7427906   1.581   4.715   2.580 -0.3042 -0.1890  0.4833
  197MOL    H7527907   1.772   4.996   2.629 -0.5082 -0.6828 -1.7366
  197MOL    H7627908   1.814   4.830   2.630  1.4716  2.1256  0.6089
  197MOL    H7727909   1.655   4.868   2.463  0.2168  0.7047  0.8336
  197MOL    H7827910   1.630   4.661   2.519 -0.8079  0.1251 -0.1964
  197MOL    C7927911   1.488   4.923   2.582 -0.2424 -0.2037  0.0096
  197MOL    C8027912   1.473   5.069   2.522  0.0172  0.0932  0.7313
  197MOL    O8127913   1.501   5.083   2.377 -0.2228  0.4630 -0.3191
  197MOL    H8227914   1.408   4.853   2.559  0.6528 -0.9427 -0.9073
  197MOL    H8327915   1.486   4.928   2.691  1.7236 -0.7047  0.0810
  197MOL    H8427916   1.542   5.143   2.563  0.9357  0.3724 -1.2692
  197MOL    H8527917   1.421   5.105   2.330 -0.1991 -0.1201 -0.6341
  197MOL    C8627918   1.331   5.121   2.553 -0.0050 -0.1695  0.4749
  197MOL    C8727919   1.299   5.126   2.710 -1.0864  0.0404 -0.0687
  197MOL    O8827920   1.220   5.237   2.730  0.1216  0.4665 -0.0544
  197MOL    H8927921   1.316   5.223   2.516 -2.2433 -0.3460  0.8523
  197MOL    H9027922   1.260   5.057   2.501  0.3147 -1.3851  1.5277
  197MOL    H9127923   1.382   5.136   2.780 -0.6971  3.8342 -0.9498
  197MOL    H9227924   1.205   5.260   2.821  1.1223  0.0081  0.2273
  197MOL    C9327925   1.229   4.998   2.765 -1.0772  0.0561 -0.4047
  197MOL    C9427926   1.085   4.973   2.721 -0.5932 -0.7923  0.5578
  197MOL    O9527927   1.077   4.938   2.581  0.1523  0.2206 -0.3230
  197MOL    H9627928   1.296   4.912   2.762 -1.4761 -0.3045  0.8331
  197MOL    H9727929   1.226   5.014   2.873  1.3968 -1.1105 -0.1135
  197MOL    H9827930   1.038   5.071   2.735  0.7481 -0.1513  0.6067
  197MOL    H9927931   1.036   5.014   2.542 -0.4423  0.0721  0.0000
  197MOL   C10027932   1.006   4.862   2.806 -0.5394 -0.0963  0.4673
  197MOL   C10127933   0.859   4.830   2.771 -0.6516  0.2322  0.3128
  197MOL   O10227934   0.830   4.712   2.851 -0.0191  0.6788  0.5594
  197MOL   H10327935   1.055   4.766   2.787 -0.1338  0.2857 -0.4664
  197MOL   H10427936   1.006   4.897   2.909  0.6659 -2.7286  1.4261
  197MOL   H10527937   0.861   4.800   2.666 -0.6363  0.0898  0.3538
  197MOL   H10627938   0.884   4.650   2.804  1.7090  2.5306 -0.0222
  197MOL   C10727939   0.765   4.945   2.806 -0.2209 -0.5624 -0.4768
  197MOL   C10827940   0.618   4.935   2.745  0.0823 -0.5903  0.0017
  197MOL   O10927941   0.539   5.043   2.787  0.5318 -0.1376  0.4147
  197MOL   H11027942   0.758   4.947   2.915 -0.2326  0.5148 -0.4921
  197MOL   H11127943   0.807   5.043   2.783  1.7746 -1.4004 -0.4712
  197MOL   H11227944   0.579   4.842   2.787 -3.2484  0.8131  0.1371
  197MOL   H11327945   0.572   5.124   2.749  0.4668 -0.2030  0.2179
  197MOL   C11427946   0.622   4.924   2.590 -0.0524  0.2500  0.2880
  197MOL   C11527947   0.509   4.841   2.528  0.5301 -0.1215 -0.3365
  197MOL   O11627948   0.458   4.916   2.412 -0.2255  0.5167 -0.1596
  197MOL   H11727949   0.618   5.026   2.551 -0.4117 -0.1302 -0.6959
  197MOL   H11827950   0.714   4.889   2.544  0.3113  0.6681  0.6865
  197MOL   H11927951   0.427   4.834   2.600  3.1598  2.7053  3.0933
  197MOL   H12027952   0.426   5.000   2.442 -0.1072  1.4840 -2.6031
  197MOL   C12127953   0.564   4.707   2.471 -0.2164  0.1322  0.3701
  197MOL   C12227954   0.599   4.595   2.579  0.1436  0.6241 -0.4623
  197MOL   O12327955   0.488   4.531   2.630  0.1596  0.2187  0.4965
  197MOL   H12427956   0.499   4.660   2.397  0.7634  0.1922 -0.5386
  197MOL   H12527957   0.650   4.724   2.408 -0.9378 -3.0972 -1.6184
  197MOL   H12627958   0.651   4.643   2.662 -1.9442 -0.0589  1.2857
  197MOL   H12727959   0.449   4.581   2.700 -1.0934  0.8412 -0.6111
  197MOL   C12827960   0.696   4.487   2.531 -0.3553  0.3205 -0.2115
  197MOL   C12927961   0.843   4.527   2.517 -0.7395 -0.1080  0.1129
  197MOL   O13027962   0.896   4.508   2.643 -0.0327 -0.1009  0.0382
  197MOL   H13127963   0.679   4.398   2.592  0.1383 -1.7860 -3.0037
  197MOL   H13227964   0.655   4.450   2.437 -2.4587 -0.1272  0.8601
  197MOL   H13327965   0.842   4.633   2.491  1.3761 -0.1373 -0.1648
  197MOL   H13427966   0.886   4.414   2.653 -0.0230 -0.1687 -0.5551
  197MOL   C13527967   0.941   4.457   2.417  0.4187  0.6786 -0.6246
  197MOL   C13627968   0.912   4.477   2.272  0.1031  0.1686 -0.0107
  197MOL   O13727969   1.020   4.406   2.206  0.1320 -0.2708 -0.4271
  197MOL   H13827970   1.039   4.501   2.438  0.1719  0.7264  0.4721
  197MOL   H13927971   0.944   4.353   2.448 -1.9079  0.4679 -1.0245
  197MOL   H14027972   0.920   4.585   2.259 -4.9459  0.6388 -0.3704
  197MOL   H14127973   1.107   4.434   2.228  0.0736 -0.1549 -0.3462
  197MOL   H14227974   0.813   4.434   2.255 -0.1667  0.7021  0.2073
  198MOL     C127975   2.481   3.679   3.711  0.1786 -0.1485 -0.0524
  198MOL     C227976   2.526   3.545   3.776  0.0125 -0.3258 -0.4120
  198MOL     O327977   2.413   3.484   3.839 -0.2172  0.0674  0.0844
  198MOL     H427978   2.465   3.764   3.778  0.1343  3.1062 -3.9993
  198MOL     H527979   2.395   3.675   3.644  0.3811  0.9711 -0.3948
  198MOL     H627980   2.604   3.571   3.848  1.0591 -0.4518 -1.4803
  198MOL     H727981   2.366   3.435   3.774  0.8158 -0.1743 -0.4888
  198MOL     H827982   2.567   3.721   3.659  1.2043  0.5163  2.0954
  198MOL     C927983   2.576   3.437   3.671  0.5503 -0.6206 -0.1862
  198MOL    C1027984   2.653   3.322   3.730  0.2928  0.5478 -0.0237
  198MOL    O1127985   2.675   3.206   3.641  0.3101  0.0019 -0.5914
  198MOL    H1227986   2.491   3.402   3.613  0.3651 -2.5452  1.1979
  198MOL    H1327987   2.637   3.480   3.591 -2.0091  2.0322 -0.7969
  198MOL    H1427988   2.592   3.276   3.808 -0.7699  0.8195 -0.6795
  198MOL    H1527989   2.587   3.176   3.623  0.9960 -2.7150  0.4017
  198MOL    C1627990   2.792   3.354   3.773 -0.0471  0.0125  0.0735
  198MOL    C1727991   2.878   3.246   3.843  0.4398  0.1199  0.5615
  198MOL    O1827992   2.916   3.156   3.744 -0.0564 -0.1529 -0.3556
  198MOL    H1927993   2.842   3.396   3.685 -0.7288  1.2635  0.2695
  198MOL    H2027994   2.781   3.446   3.831  0.5594 -0.4458  0.9166
  198MOL    H2127995   2.813   3.192   3.911 -0.5471  0.8644  0.2049
  198MOL    H2227996   2.841   3.152   3.687 -0.6845  0.9171  0.3764
  198MOL    C2327997   3.005   3.296   3.908 -0.2461 -0.3186 -0.0731
  198MOL    C2427998   2.989   3.345   4.058  0.4444 -0.3001  0.3025
  198MOL    O2527999   2.933   3.256   4.146  0.2036 -0.0808  0.6051
  198MOL    H2628000   3.080   3.217   3.910  0.3657  0.2110 -1.2335
  198MOL    H2728001   3.042   3.382   3.851 -0.2751  0.7147  1.4278
  198MOL    H2828002   2.919   3.428   4.061 -0.5067 -1.0272 -1.1897
  198MOL    H2928003   2.874   3.311   4.196 -1.7881 -1.0786 -0.5982
  198MOL    C3028004   3.125   3.394   4.111  1.0041 -0.5345  0.2357
  198MOL    C3128005   3.196   3.519   4.046  0.4540 -0.0934 -0.6945
  198MOL    O3228006   3.165   3.630   4.134 -0.3066  0.0132  0.2475
  198MOL    H3328007   3.117   3.403   4.219  1.9715  0.3276  0.2359
  198MOL    H3428008   3.198   3.313   4.114  0.8692 -0.7345 -1.4133
  198MOL    H3528009   3.149   3.543   3.951 -1.5096 -0.9769  0.0378
  198MOL    H3628010   3.178   3.711   4.088 -2.5766  0.8778  1.0448
  198MOL    C3728011   3.354   3.508   4.031  0.1101  0.3062  0.1545
  198MOL    C3828012   3.432   3.627   3.963  0.2854  0.1019  0.2024
  198MOL    O3928013   3.571   3.610   3.976  0.1698  0.7590  0.1489
  198MOL    H4028014   3.392   3.491   4.132 -2.3920  1.4977  1.3280
  198MOL    H4128015   3.368   3.411   3.982  0.6849 -0.0449  0.9957
  198MOL    H4228016   3.406   3.726   4.002 -0.8930 -0.4761  0.9159
  198MOL    H4328017   3.589   3.520   3.952 -1.6399  0.5211 -0.3485
  198MOL    C4428018   3.403   3.631   3.813 -0.0423 -0.4328 -0.9829
  198MOL    C4528019   3.431   3.762   3.747  0.5870  0.6866 -0.6709
  198MOL    O4628020   3.572   3.776   3.727  0.0575 -0.0304 -0.3095
  198MOL    H4728021   3.445   3.545   3.762 -1.8666 -1.9713  0.0325
  198MOL    H4828022   3.294   3.625   3.809 -0.0363 -0.7398 -0.7378
  198MOL    H4928023   3.408   3.843   3.817 -0.8300 -0.0067 -0.3155
  198MOL    H5028024   3.613   3.784   3.812  2.4723  0.0037 -1.4457
  198MOL    C5128025   3.356   3.775   3.613  0.0120  0.9364  0.2388
  198MOL    C5228026   3.213   3.830   3.619  0.3869 -0.3821  0.0923
  198MOL    O5328027   3.212   3.964   3.668  0.4414 -0.7707  0.0873
  198MOL    H5428028   3.413   3.827   3.536  0.7144  0.1973  0.2457
  198MOL    H5528029   3.346   3.673   3.576  1.2853  0.1717  1.9104
  198MOL    H5628030   3.155   3.780   3.696  0.3129  0.6903  0.7370
  198MOL    H5728031   3.121   3.989   3.658  0.7798 -0.0146 -1.2470
  198MOL    C5828032   3.143   3.829   3.479  0.1453 -1.0271  0.0495
  198MOL    C5928033   3.116   3.695   3.410 -0.4007 -0.3568  0.0551
  198MOL    O6028034   3.057   3.623   3.521 -0.0254  0.2634  0.0946
  198MOL    H6128035   3.051   3.887   3.487  1.4891  1.3693 -1.1273
  198MOL    H6228036   3.198   3.883   3.402 -1.3023  1.0039  0.3816
  198MOL    H6328037   3.204   3.653   3.361 -0.5184 -1.4473  0.7675
  198MOL    H6428038   3.114   3.549   3.534  0.6707  0.7278 -0.2667
  198MOL    C6528039   3.009   3.707   3.300  0.1816  0.6078 -1.1005
  198MOL    C6628040   2.988   3.578   3.203 -0.3659  0.3002  0.0817
  198MOL    O6728041   2.862   3.602   3.143  0.3473  0.2260  0.2448
  198MOL    H6828042   2.914   3.735   3.347  2.1298  4.2121  0.9158
  198MOL    H6928043   3.027   3.794   3.237  1.0100  0.9516 -0.3966
  198MOL    H7028044   2.985   3.482   3.253  3.1718  0.2348  0.2545
  198MOL    H7128045   2.799   3.546   3.187 -0.2770  1.4982  0.9910
  198MOL    C7228046   3.088   3.556   3.089 -0.2694 -0.0542 -0.4209
  198MOL    C7328047   3.221   3.483   3.119  0.5931  0.3847  0.0791
  198MOL    O7428048   3.205   3.354   3.178  0.3784  0.6515  0.0155
  198MOL    H7528049   3.033   3.490   3.021 -0.0281 -0.1983 -0.4752
  198MOL    H7628050   3.100   3.645   3.027 -0.5157 -1.4040 -2.4568
  198MOL    H7728051   3.284   3.544   3.184  0.1828  0.2047  0.6510
  198MOL    H7828052   3.289   3.312   3.191 -0.2383 -1.4873 -2.5892
  198MOL    C7928053   3.305   3.467   2.993  0.1341  0.4477 -0.7027
  198MOL    C8028054   3.382   3.590   2.946 -0.2880  0.2957 -0.0520
  198MOL    O8128055   3.450   3.655   3.048  0.0973 -0.2875  1.0028
  198MOL    H8228056   3.379   3.389   3.006 -2.6617 -2.2570 -0.4879
  198MOL    H8328057   3.245   3.439   2.906 -1.0221  0.0061  0.2246
  198MOL    H8428058   3.318   3.665   2.899 -1.6853 -1.2822 -0.7102
  198MOL    H8528059   3.461   3.588   3.114 -1.0114 -2.8689 -1.3391
  198MOL    C8628060   3.483   3.555   2.832  0.4441 -0.3849 -0.1590
  198MOL    C8728061   3.559   3.665   2.757 -0.5416  0.0003 -0.0082
  198MOL    O8828062   3.651   3.726   2.847 -0.2972 -0.5257 -0.6365
  198MOL    H8928063   3.557   3.487   2.874  0.4771 -0.7566 -0.8134
  198MOL    H9028064   3.417   3.499   2.765  0.6250 -0.1225 -0.5589
  198MOL    H9128065   3.482   3.731   2.717  0.1887  0.1632 -1.1990
  198MOL    H9228066   3.614   3.717   2.933 -0.7505 -1.9417 -0.9630
  198MOL    C9328067   3.644   3.608   2.642 -0.4003 -0.7347 -0.1130
  198MOL    C9428068   3.572   3.556   2.513  0.2206  0.6527  0.4568
  198MOL    O9528069   3.582   3.650   2.404  0.5437  0.1453 -0.7412
  198MOL    H9628070   3.719   3.680   2.611 -0.3454 -0.8853 -0.3356
  198MOL    H9728071   3.709   3.530   2.683  1.3019  0.8771  0.3081
  198MOL    H9828072   3.465   3.537   2.527  0.7409 -2.9296  0.0888
  198MOL    H9928073   3.670   3.653   2.368  0.7123  2.3354 -0.1878
  198MOL   C10028074   3.629   3.418   2.475 -0.5533  0.2414  0.4561
  198MOL   C10128075   3.564   3.301   2.550  0.2540  0.6542 -0.0609
  198MOL   O10228076   3.434   3.276   2.491 -0.0318  0.2621  0.4266
  198MOL   H10328077   3.619   3.407   2.367 -1.6096 -0.1536  0.5856
  198MOL   H10428078   3.736   3.414   2.493 -0.7339 -0.0892  1.4678
  198MOL   H10528079   3.561   3.347   2.648 -2.1983 -0.6326  0.5041
  198MOL   H10628080   3.391   3.223   2.556 -0.5036  0.3177  0.1644
  198MOL   C10728081   3.651   3.179   2.589  0.0752 -0.3436  0.2316
  198MOL   C10828082   3.582   3.067   2.675 -0.0814 -0.0456  0.1582
  198MOL   O10928083   3.658   2.950   2.661 -0.2530  0.5159 -0.3861
  198MOL   H11028084   3.665   3.135   2.490 -2.0216  0.9518 -0.6863
  198MOL   H11128085   3.745   3.206   2.637  0.1280  2.4099 -1.2829
  198MOL   H11228086   3.479   3.048   2.643  0.5527 -0.8494 -1.4558
  198MOL   H11328087   3.671   2.920   2.573 -0.7254 -0.0235 -0.2756
  198MOL   C11428088   3.584   3.101   2.825  0.8355  0.3319 -0.4606
  198MOL   C11528089   3.493   3.022   2.919  0.6142  0.1887  0.6717
  198MOL   O11628090   3.555   3.023   3.045 -0.3432  0.0224  0.2863
  198MOL   H11728091   3.692   3.100   2.844  1.1027  2.7769 -1.6750
  198MOL   H11828092   3.550   3.203   2.842 -0.3280  0.0297 -0.9176
  198MOL   H11928093   3.505   2.917   2.892 -1.1710 -0.3245  1.7795
  198MOL   H12028094   3.530   2.935   3.071 -0.2582  0.1761  0.9081
  198MOL   C12128095   3.347   3.073   2.926  0.0827 -0.4171  0.3393
  198MOL   C12228096   3.252   3.066   2.806  0.2289  0.1282  0.8860
  198MOL   O12328097   3.278   3.169   2.718  0.5870 -0.2531  0.4742
  198MOL   H12428098   3.304   3.014   3.008 -0.6321  0.6055  0.7106
  198MOL   H12528099   3.349   3.177   2.959  1.5212 -0.5768  0.7914
  198MOL   H12628100   3.156   3.096   2.848 -0.3733 -1.3752  0.5943
  198MOL   H12728101   3.215   3.234   2.746 -0.1796 -0.1004 -1.5337
  198MOL   C12828102   3.234   2.927   2.732 -0.5529  0.4429  0.1057
  198MOL   C12928103   3.149   2.930   2.606  0.0940  0.3931 -0.7800
  198MOL   O13028104   3.109   2.791   2.588 -0.3339 -0.3537  0.0390
  198MOL   H13128105   3.329   2.881   2.707 -0.8917  0.4238 -1.2151
  198MOL   H13228106   3.173   2.867   2.800  0.4656 -0.3228  0.3412
  198MOL   H13328107   3.205   2.958   2.516  0.3844 -0.3037 -0.8260
  198MOL   H13428108   3.185   2.743   2.618  1.3586  1.8073 -0.6713
  198MOL   C13528109   3.018   3.010   2.600 -0.2328 -0.3276 -0.2891
  198MOL   C13628110   2.964   3.035   2.457  1.3098  0.1919 -0.9866
  198MOL   O13728111   2.829   3.076   2.455  0.1632 -0.0469 -0.2463
  198MOL   H13828112   2.950   2.958   2.666 -1.4829  0.2685 -1.0889
  198MOL   H13928113   3.026   3.104   2.655 -1.4444 -0.3043 -0.1467
  198MOL   H14028114   2.971   2.945   2.396  1.6670 -0.5570  0.1320
  198MOL   H14128115   2.805   3.084   2.364  0.0612  0.5205 -0.1700
  198MOL   H14228116   3.019   3.117   2.411 -0.2035  0.8098 -1.7096
  199MOL     C128117   2.922   0.512   4.280  0.5362 -0.3075  0.3306
  199MOL     C228118   3.009   0.392   4.314  0.5377  0.4259 -0.5390
  199MOL     O328119   3.090   0.371   4.198  0.4643 -0.2422  0.4282
  199MOL     H428120   2.880   0.492   4.181 -0.1050  0.0433  0.5253
  199MOL     H528121   2.969   0.610   4.281  1.4507 -0.7343 -0.2618
  199MOL     H628122   2.944   0.307   4.337  0.0231  1.3417  1.5522
  199MOL     H728123   3.042   0.330   4.128 -1.1631  2.9652 -0.4572
  199MOL     H828124   2.841   0.530   4.351  0.8707 -1.3632  0.9943
  199MOL     C928125   3.098   0.399   4.444 -0.5092 -0.7271  0.3159
  199MOL    C1028126   3.178   0.274   4.480 -0.4271  0.3384 -0.7487
  199MOL    O1128127   3.253   0.241   4.373 -0.0170 -0.5297 -0.6431
  199MOL    H1228128   3.142   0.498   4.438  0.7529 -1.3102 -0.2495
  199MOL    H1328129   3.039   0.425   4.532  2.9519  1.5708  2.0411
  199MOL    H1428130   3.115   0.186   4.497 -0.6149  0.2514 -1.8477
  199MOL    H1528131   3.216   0.294   4.303 -1.6497 -2.4023 -1.2433
  199MOL    C1628132   3.268   0.311   4.604  0.5143 -0.3288 -0.4845
  199MOL    C1728133   3.357   0.198   4.652  0.2538 -0.0481 -0.4278
  199MOL    O1828134   3.465   0.172   4.560  0.3254  0.0068  0.2449
  199MOL    H1928135   3.331   0.396   4.577  2.7477 -2.0245 -0.7449
  199MOL    H2028136   3.223   0.359   4.691 -0.1481  0.1075 -1.0562
  199MOL    H2128137   3.300   0.110   4.685 -0.6624  0.7261  0.0709
  199MOL    H2228138   3.422   0.179   4.476  0.6033  0.3894  0.1316
  199MOL    C2328139   3.423   0.225   4.782  0.2476 -0.2000 -0.0865
  199MOL    C2428140   3.505   0.116   4.842 -0.0183 -0.1062  0.2380
  199MOL    O2528141   3.587   0.167   4.933  0.1948 -0.0402 -0.5168
  199MOL    H2628142   3.496   0.304   4.762 -0.4707  0.3384 -0.6050
  199MOL    H2728143   3.343   0.262   4.846 -1.0106 -2.4657 -0.3157
  199MOL    H2828144   3.569   0.063   4.772  0.2151 -1.2110  1.2737
  199MOL    H2928145   3.647   0.222   4.885 -1.7606  1.8449 -0.8719
  199MOL    C3028146   3.417   0.010   4.918 -0.0469  1.0510  0.2516
  199MOL    C3128147   3.488   7.406   4.981 -0.0829 -0.2237  0.3065
  199MOL    O3228148   3.393   7.325   5.038  0.2779  0.3102  0.7786
  199MOL    H3328149   3.354   0.065   4.988 -2.2828  0.1788 -1.0057
  199MOL    H3428150   3.341   7.490   4.850 -1.3011  0.9834  1.6706
  199MOL    H3528151   3.545   7.449   5.063  0.3903 -0.1374 -0.0669
  199MOL    H3628152   3.442   7.256   5.078  2.2791  0.8944 -0.5909
  199MOL    C3728153   3.583   7.334   4.891  0.5611 -0.0584  0.1550
  199MOL    C3828154   3.546   7.308   4.742  0.8041  0.2360 -0.3042
  199MOL    O3928155   3.670   7.279   4.677  0.1590  0.4725  0.2579
  199MOL    H4028156   3.677   7.389   4.892  0.2992  0.4092 -0.5019
  199MOL    H4128157   3.601   7.233   4.928  0.8645 -0.6220 -1.4838
  199MOL    H4228158   3.507   7.398   4.695  0.8153  0.6419  0.4494
  199MOL    H4328159   3.696   7.339   4.609 -1.5302 -1.5545 -2.3102
  199MOL    C4428160   3.439   7.193   4.716  0.2415 -0.1783  0.1254
  199MOL    C4528161   3.396   7.180   4.570 -0.0383 -0.0312  0.3223
  199MOL    O4628162   3.332   7.054   4.554  0.4155 -0.9383 -0.2122
  199MOL    H4728163   3.481   7.098   4.749 -0.5451 -0.7387 -0.4667
  199MOL    H4828164   3.353   7.204   4.781  3.3596 -0.2507  4.5254
  199MOL    H4928165   3.484   7.178   4.505 -0.1632  1.1875  0.1170
  199MOL    H5028166   3.260   7.049   4.614 -0.7886 -0.2459 -1.5650
  199MOL    C5128167   3.293   7.292   4.535  0.1100 -0.6542 -0.1164
  199MOL    C5228168   3.203   7.268   4.406  0.0486 -0.0211 -0.2313
  199MOL    O5328169   3.103   7.160   4.423  0.0488  0.1823  0.3875
  199MOL    H5428170   3.235   7.314   4.624 -0.1671 -0.2084 -0.4047
  199MOL    H5528171   3.354   7.376   4.502  0.1053 -1.2073 -1.5660
  199MOL    H5628172   3.262   7.226   4.325 -1.1784 -3.4580  0.5737
  199MOL    H5728173   3.160   7.091   4.452  0.6274  0.0975 -0.9161
  199MOL    C5828174   3.135   7.412   4.380  0.2004 -0.2221 -0.0235
  199MOL    C5928175   3.063   7.422   4.239 -0.1671 -0.5672  1.2055
  199MOL    O6028176   2.942   7.353   4.260  0.1130  0.3275  0.0026
  199MOL    H6128177   3.076   7.450   4.463  1.4899 -0.2407  0.9081
  199MOL    H6228178   3.211   7.490   4.377 -0.2504  0.2488  0.7701
  199MOL    H6328179   3.127   7.375   4.164  1.1575  1.4678  1.0364
  199MOL    H6428180   2.956   7.291   4.330  3.7209 -1.8839 -2.4465
  199MOL    C6528181   3.025   0.044   4.186 -0.1840  0.3011 -0.5913
  199MOL    C6628182   2.918   0.067   4.081 -0.5371 -0.2488 -0.0750
  199MOL    O6728183   2.899   0.203   4.078 -0.1155 -0.6485 -0.3213
  199MOL    H6828184   3.001   0.091   4.281 -2.3988 -1.3324 -0.2953
  199MOL    H6928185   3.119   0.085   4.149  0.9304 -0.9598  0.7486
  199MOL    H7028186   2.822   0.033   4.120 -1.8000  0.5414 -2.4224
  199MOL    H7128187   2.807   0.220   4.088 -0.2656 -0.2844 -2.2093
  199MOL    C7228188   2.946   0.015   3.939 -0.4310  0.1532  0.1372
  199MOL    C7328189   2.916   7.376   3.919 -0.2486 -0.0862 -0.3177
  199MOL    O7428190   2.776   7.351   3.916  0.2349 -0.2963  0.2230
  199MOL    H7528191   2.887   0.057   3.857  0.4116  0.0903 -0.5139
  199MOL    H7628192   3.050   0.043   3.924 -0.9947  1.2706 -1.8646
  199MOL    H7728193   2.960   7.331   4.008  1.6710  2.3187  0.0138
  199MOL    H7828194   2.767   7.260   3.940 -0.6968 -0.7990 -1.9816
  199MOL    C7928195   2.971   7.309   3.787 -0.6243 -0.4297  0.6377
  199MOL    C8028196   3.126   7.311   3.786  0.8306  0.0454 -0.2670
  199MOL    O8128197   3.173   7.238   3.894 -0.4548  0.0119 -0.6445
  199MOL    H8228198   2.933   7.213   3.752  0.8403 -0.6514 -0.3956
  199MOL    H8328199   2.940   7.361   3.696  2.9204  1.9112  0.6644
  199MOL    H8428200   3.169   7.408   3.809 -1.2933  0.6543  1.2567
  199MOL    H8528201   3.133   7.152   3.896 -0.1071 -0.1413 -0.1448
  199MOL    C8628202   3.185   7.252   3.658  0.8830 -0.8389  0.8268
  199MOL    C8728203   3.328   7.287   3.631 -0.0058  0.2243  0.1704
  199MOL    O8828204   3.370   7.201   3.527  0.0088  0.1207  0.7798
  199MOL    H8928205   3.160   7.147   3.673  2.5854 -1.3804  0.0065
  199MOL    H9028206   3.129   7.287   3.571  0.8349 -0.9057  0.8313
  199MOL    H9128207   3.403   7.270   3.709  0.8694 -5.0327 -1.6288
  199MOL    H9228208   3.418   7.133   3.571 -1.0952 -0.7775  0.6065
  199MOL    C9328209   3.342   7.426   3.571  0.3889 -0.0641  0.3735
  199MOL    C9428210   3.486   7.473   3.538 -0.4583  0.4246  0.0846
  199MOL    O9528211   3.538   7.406   3.424 -0.6469 -0.3888  1.0497
  199MOL    H9628212   3.291   7.432   3.475  1.5742  2.3645 -0.1437
  199MOL    H9728213   3.281   7.489   3.636  2.2508  0.9702  1.1656
  199MOL    H9828214   3.552   7.444   3.620 -0.7374 -2.2693 -0.6059
  199MOL    H9928215   3.514   7.314   3.422  0.5576 -0.6805 -2.4846
  199MOL   C10028216   3.479   0.105   3.518  0.1012 -0.1831  0.2340
  199MOL   C10128217   3.615   0.173   3.475  0.1240  0.1239  0.2528
  199MOL   O10228218   3.569   0.288   3.401 -0.0965  0.3228 -0.5481
  199MOL   H10328219   3.411   0.126   3.436  1.0862  2.3905  0.0249
  199MOL   H10428220   3.438   0.151   3.608 -0.3238 -2.8199  1.4432
  199MOL   H10528221   3.664   0.102   3.410 -0.3310 -0.6490  0.7444
  199MOL   H10628222   3.635   0.295   3.334  0.1718  1.7583 -0.1384
  199MOL   C10728223   3.708   0.208   3.602  0.5280 -0.3419 -0.3972
  199MOL   C10828224   3.844   0.266   3.567 -0.0229  0.2347  0.2447
  199MOL   O10928225   3.896   0.320   3.688 -0.0153 -0.2428 -0.0431
  199MOL   H11028226   3.655   0.291   3.648 -1.0998 -1.7545  0.3287
  199MOL   H11128227   3.717   0.125   3.672  0.2167  1.6437  2.0884
  199MOL   H11228228   3.844   0.346   3.493 -0.9559  0.3576  0.3672
  199MOL   H11328229   3.890   0.414   3.693 -1.6939 -0.4322  2.1878
  199MOL   C11428230   3.938   0.147   3.523 -0.4069  0.0979 -0.1286
  199MOL   C11528231   4.079   0.189   3.489 -1.4524 -0.6579 -0.3094
  199MOL   O11628232   4.150   0.218   3.609 -0.2302  0.0358  0.1412
  199MOL   H11728233   3.940   0.090   3.616  0.8124  0.8992  0.3586
  199MOL   H11828234   3.894   0.086   3.445 -1.0190 -0.0111  0.2987
  199MOL   H11928235   4.085   0.283   3.434  3.4140 -1.8104 -2.0890
  199MOL   H12028236   4.087   0.264   3.663 -0.7938  2.1051 -2.1948
  199MOL   C12128237   4.154   0.077   3.411 -0.4149 -0.1134  0.4008
  199MOL   C12228238   4.101   0.043   3.271  0.4191  0.3354 -0.1612
  199MOL   O12328239   4.199   0.087   3.181  0.4081 -0.4192 -0.3845
  199MOL   H12428240   4.255   0.115   3.393 -0.0265 -0.7308  1.2307
  199MOL   H12528241   4.177   7.509   3.472 -2.4015  0.1206  1.5261
  199MOL   H12628242   4.009   0.094   3.243  0.1244 -1.3251 -2.3836
  199MOL   H12728243   4.160   0.148   3.120 -0.1191  0.2610  0.6172
  199MOL   C12828244   4.088   7.412   3.251 -0.2384 -0.4931  0.3366
  199MOL   C12928245   3.959   7.341   3.311 -0.5353  0.4983 -0.1973
  199MOL   O13028246   3.921   7.248   3.211 -0.0377  0.3248  1.2278
  199MOL   H13128247   4.091   7.401   3.143  1.4921  2.7677  0.0040
  199MOL   H13228248   4.180   7.363   3.283  0.7450  0.2903 -1.2362
  199MOL   H13328249   3.879   7.414   3.319  0.3518  1.3467  0.9387
  199MOL   H13428250   3.830   7.223   3.217  0.1864 -1.0139 -0.4610
  199MOL   C13528251   3.977   7.285   3.449  0.3779 -0.0872  0.4798
  199MOL   C13628252   3.841   7.254   3.510  0.4883 -0.6028  0.8770
  199MOL   O13728253   3.851   7.183   3.636  0.1861 -0.1597 -0.2549
  199MOL   H13828254   4.024   7.186   3.447 -1.0836 -0.8121  0.5233
  199MOL   H13928255   4.026   7.361   3.509 -1.6808 -0.4442  2.6826
  199MOL   H14028256   3.789   7.189   3.440  0.9608  0.3749 -0.4191
  199MOL   H14128257   3.801   7.224   3.705  0.2605 -1.5078  0.6340
  199MOL   H14228258   3.785   7.347   3.521  0.5877 -0.6286  1.6169
  200MOL     C128259   4.423   1.447   5.449  0.4811 -0.1445 -0.2723
  200MOL     C228260   4.297   1.432   5.527 -0.3807 -0.3973  0.7379
  200MOL     O328261   4.258   1.565   5.575 -0.1247 -0.1788 -0.2005
  200MOL     H428262   4.415   1.527   5.376 -1.2738 -1.0587 -1.1223
  200MOL     H528263   4.435   1.355   5.392 -0.8309 -1.1425  1.0120
  200MOL     H628264   4.332   1.365   5.605 -0.6712 -2.1396 -0.5768
  200MOL     H728265   4.174   1.555   5.618  0.6115  0.9395  1.5206
  200MOL     H828266   4.513   1.466   5.508  0.8165  1.5523 -1.3247
  200MOL     C928267   4.175   1.381   5.450 -0.3537  0.0551  0.2506
  200MOL    C1028268   4.064   1.348   5.546 -0.1516 -0.3035 -0.1035
  200MOL    O1128269   4.006   1.461   5.612 -0.2578 -0.1967  0.5611
  200MOL    H1228270   4.154   1.442   5.363  0.3961  1.0796  0.7690
  200MOL    H1328271   4.201   1.285   5.406  1.0043  0.7043 -0.3916
  200MOL    H1428272   4.101   1.286   5.628 -0.5353  0.1051  0.3824
  200MOL    H1528273   3.957   1.511   5.549  0.0217  0.7373  1.0717
  200MOL    C1628274   3.940   1.272   5.484 -0.1941  0.3443 -0.2054
  200MOL    C1728275   3.979   1.131   5.444  0.5101  0.2106  0.1164
  200MOL    O1828276   4.046   1.059   5.549  0.0944 -0.0054  0.3136
  200MOL    H1928277   3.867   1.268   5.565  0.9920  2.3390  0.9961
  200MOL    H2028278   3.883   1.327   5.408  1.4512 -0.1169 -1.8142
  200MOL    H2128279   4.045   1.143   5.358 -0.1818  1.2520 -0.2823
  200MOL    H2228280   4.073   0.973   5.521 -0.1530 -0.5940  1.8420
  200MOL    C2328281   3.856   1.045   5.406 -0.0094  0.5144 -0.0282
  200MOL    C2428282   3.797   1.078   5.264  1.0384 -0.1854  0.2381
  200MOL    O2528283   3.870   1.020   5.167  0.1455 -0.3352 -0.5991
  200MOL    H2628284   3.886   0.940   5.407  1.8326  1.0172 -0.7989
  200MOL    H2728285   3.773   1.053   5.477 -0.5146 -0.5196 -0.4817
  200MOL    H2828286   3.800   1.187   5.252 -1.0947 -0.2830 -1.5073
  200MOL    H2928287   3.820   1.031   5.087 -0.6138 -0.4263 -0.1427
  200MOL    C3028288   3.657   1.026   5.240 -0.0778 -0.1780  0.1405
  200MOL    C3128289   3.588   1.066   5.105  0.2562  0.0667  0.0012
  200MOL    O3228290   3.663   1.014   4.998  0.6099  1.0429 -0.6024
  200MOL    H3328291   3.649   0.918   5.251  0.5900 -0.5202 -2.5929
  200MOL    H3428292   3.590   1.070   5.315 -2.5770  1.0382 -2.7318
  200MOL    H3528293   3.604   1.174   5.096 -0.1451  0.1569  0.3468
  200MOL    H3628294   3.626   1.039   4.915 -0.0278 -2.0065 -1.2994
  200MOL    C3728295   3.441   1.027   5.091  0.5919  0.6174  0.0729
  200MOL    C3828296   3.341   1.121   5.154  0.6659  0.0849 -0.0364
  200MOL    O3928297   3.375   1.256   5.119 -0.1662  0.1885  0.4148
  200MOL    H4028298   3.410   1.001   4.989 -0.5551  1.6183  0.1561
  200MOL    H4128299   3.419   0.932   5.141  0.0189  0.2662 -0.8330
  200MOL    H4228300   3.343   1.121   5.263 -1.9505 -1.1483  0.0379
  200MOL    H4328301   3.328   1.318   5.171  1.2618  0.6700  1.1502
  200MOL    C4428302   3.180   1.098   5.116  0.5521  0.1482  0.2958
  200MOL    C4528303   3.117   0.963   5.155 -0.0630 -0.0711  0.5096
  200MOL    O4628304   3.102   0.961   5.294 -0.0769  0.1553  0.0746
  200MOL    H4728305   3.111   1.175   5.148 -1.6278 -1.1352 -1.2136
  200MOL    H4828306   3.187   1.102   5.007 -1.1170  1.8333  0.2397
  200MOL    H4928307   3.175   0.874   5.129 -0.2790  0.1455 -0.7641
  200MOL    H5028308   3.020   0.925   5.323 -0.0420 -0.3982 -0.5161
  200MOL    C5128309   2.978   0.953   5.085 -0.2791 -0.3512 -0.1785
  200MOL    C5228310   2.910   0.815   5.095  0.1267  0.0333  0.3338
  200MOL    O5328311   2.924   0.752   5.221 -0.1232 -0.4575 -0.0240
  200MOL    H5428312   2.918   1.035   5.123 -1.8827 -1.0536 -1.1569
  200MOL    H5528313   2.992   0.980   4.981 -2.5572 -1.3488 -0.7697
  200MOL    H5628314   2.947   0.740   5.025 -2.1699 -0.2017 -0.7037
  200MOL    H5728315   2.886   0.666   5.228 -0.7454 -0.1664  0.1557
  200MOL    C5828316   2.761   0.821   5.076  0.0546 -0.2595  0.3353
  200MOL    C5928317   2.707   0.866   4.936  0.0461 -0.3264  0.4026
  200MOL    O6028318   2.763   0.780   4.836 -0.1048  0.0785  0.3726
  200MOL    H6128319   2.717   0.726   5.105 -0.5595 -1.0352 -2.9788
  200MOL    H6228320   2.732   0.895   5.151  2.6894  0.8546  0.2779
  200MOL    H6328321   2.756   0.962   4.919 -0.8264  0.4984  2.4872
  200MOL    H6428322   2.710   0.702   4.823  1.7522 -1.4984  1.9842
  200MOL    C6528323   2.554   0.867   4.914 -1.0644  0.1709  0.1782
  200MOL    C6628324   2.480   0.959   5.007  0.3621 -0.2713 -0.1293
  200MOL    O6728325   2.520   1.088   4.975  0.1261 -0.0970 -0.0924
  200MOL    H6828326   2.535   0.897   4.811 -0.1867 -1.3141 -0.4348
  200MOL    H6928327   2.525   0.763   4.929 -1.6233 -0.0576 -2.2365
  200MOL    H7028328   2.515   0.954   5.110  0.2624 -3.9440 -0.1980
  200MOL    H7128329   2.511   1.140   5.054  3.5068 -0.2690  0.4653
  200MOL    C7228330   2.327   0.957   4.985 -0.2092  0.5132  0.0742
  200MOL    C7328331   2.253   0.831   5.047  0.2009 -0.1693  0.4955
  200MOL    O7428332   2.221   0.866   5.179 -0.0295  0.6657  0.7307
  200MOL    H7528333   2.290   1.055   5.017 -0.3103  1.0486 -1.6340
  200MOL    H7628334   2.308   0.958   4.877  1.2482  1.2018 -0.1947
  200MOL    H7728335   2.315   0.742   5.047 -0.7077 -0.8317 -1.4497
  200MOL    H7828336   2.174   0.948   5.171 -2.5965 -0.7258  0.8840
  200MOL    C7928337   2.126   0.793   4.977  0.1275 -0.9036  0.2346
  200MOL    C8028338   2.143   0.740   4.836 -0.5312 -0.2206  0.7642
  200MOL    O8128339   2.236   0.630   4.824 -0.2931 -0.1273 -0.1265
  200MOL    H8228340   2.072   0.719   5.038 -1.4888 -1.4360 -1.7784
  200MOL    H8328341   2.063   0.882   4.974  0.8425 -0.2554  2.7632
  200MOL    H8428342   2.201   0.817   4.785 -0.7725 -1.1942 -1.0171
  200MOL    H8528343   2.193   0.556   4.864 -0.8223  0.2786  0.0487
  200MOL    C8628344   2.012   0.708   4.769 -0.3888  0.8639 -0.9737
  200MOL    C8728345   2.016   0.728   4.613  0.0823  0.4961 -0.7731
  200MOL    O8828346   2.103   0.630   4.547 -0.7970 -0.2362 -0.5232
  200MOL    H8928347   1.971   0.612   4.799  1.4889  0.4495  0.3795
  200MOL    H9028348   1.947   0.791   4.796 -0.6901 -0.0310  1.1177
  200MOL    H9128349   2.029   0.833   4.587 -1.9296  0.9327 -0.0922
  200MOL    H9228350   2.159   0.593   4.614  0.5391 -1.6945 -2.4009
  200MOL    C9328351   1.879   0.698   4.554 -0.5016  0.2335 -0.2275
  200MOL    C9428352   1.846   0.758   4.413 -0.1311 -0.8230  0.3699
  200MOL    O9528353   1.854   0.647   4.319  0.5984 -0.2968 -0.0690
  200MOL    H9628354   1.866   0.591   4.565  1.2686  0.0508  0.2327
  200MOL    H9728355   1.808   0.742   4.623 -0.2762  2.7254 -1.4959
  200MOL    H9828356   1.924   0.831   4.393  0.8755 -1.2706  2.4787
  200MOL    H9928357   1.904   0.578   4.359 -0.2004  0.1621  1.8195
  200MOL   C10028358   1.713   0.841   4.414 -0.0204 -0.1550  0.2656
  200MOL   C10128359   1.704   0.973   4.491  0.5857 -0.2924  0.2000
  200MOL   O10228360   1.784   1.066   4.410  0.1281  0.3981  0.1590
  200MOL   H10328361   1.691   0.862   4.310 -1.2939  0.0485  0.5674
  200MOL   H10428362   1.636   0.768   4.441  1.7033 -1.6115  1.3335
  200MOL   H10528363   1.751   0.988   4.588 -0.3155 -0.4751  0.6696
  200MOL   H10628364   1.866   1.085   4.453  1.1624 -0.5420 -1.3554
  200MOL   C10728365   1.561   1.016   4.521  0.1444  0.0421  0.1659
  200MOL   C10828366   1.511   0.950   4.650  0.1469  0.0006 -0.6170
  200MOL   O10928367   1.563   1.029   4.758 -0.2242  0.3302 -0.3328
  200MOL   H11028368   1.548   1.124   4.518 -0.2887  0.0047  0.5093
  200MOL   H11128369   1.490   0.991   4.442  1.3113 -0.0283 -0.8584
  200MOL   H11228370   1.546   0.847   4.658  2.8412  0.8011 -1.4617
  200MOL   H11328371   1.535   0.984   4.837  1.0905  0.4956  0.2410
  200MOL   C11428372   1.362   0.935   4.652  0.7479 -0.5060 -0.5812
  200MOL   C11528373   1.305   0.833   4.761 -0.5619  0.1142 -0.2986
  200MOL   O11628374   1.259   0.906   4.873 -0.1273 -0.0135 -0.4385
  200MOL   H11728375   1.313   1.032   4.658 -1.3644 -1.4063 -2.2379
  200MOL   H11828376   1.330   0.899   4.554 -0.6533 -0.7327 -0.0523
  200MOL   H11928377   1.388   0.770   4.794 -2.1860 -1.3260  1.1192
  200MOL   H12028378   1.315   0.886   4.946  0.2260  5.0770  0.9192
  200MOL   C12128379   1.192   0.744   4.704 -0.3095  0.2898  0.3441
  200MOL   C12228380   1.238   0.638   4.597 -0.3123  0.2231 -0.3436
  200MOL   O12328381   1.318   0.547   4.666 -0.2945 -0.2272 -0.0034
  200MOL   H12428382   1.138   0.687   4.779  1.8392  0.1286  1.8231
  200MOL   H12528383   1.126   0.816   4.655 -1.2757  0.5185  1.9649
  200MOL   H12628384   1.291   0.683   4.513  0.1602  1.7121  0.7363
  200MOL   H12728385   1.311   0.470   4.612  0.6349  0.0235 -0.4849
  200MOL   C12828386   1.115   0.558   4.548 -0.6224 -0.1433  0.6307
  200MOL   C12928387   1.016   0.630   4.454 -0.2488  0.9055 -0.2789
  200MOL   O13028388   1.039   0.592   4.318 -1.1567  0.0077  0.0945
  200MOL   H13128389   1.123   0.451   4.530  0.0233 -0.0496  0.3683
  200MOL   H13228390   1.059   0.540   4.640 -0.5620  2.0147  1.1244
  200MOL   H13328391   1.032   0.736   4.473  1.3155  1.0708 -2.3422
  200MOL   H13428392   0.975   0.638   4.266 -1.4088  0.5803  0.8950
  200MOL   C13528393   0.868   0.607   4.481 -0.1310  0.0680  0.0181
  200MOL   C13628394   0.808   0.676   4.599 -0.5730  0.3081  0.0461
  200MOL   O13728395   0.779   0.809   4.558  0.0047 -0.3811 -0.4144
  200MOL   H13828396   0.807   0.642   4.398 -0.3623  2.5641  1.1925
  200MOL   H13928397   0.854   0.500   4.492 -0.2570  0.0020 -0.7542
  200MOL   H14028398   0.881   0.670   4.679 -1.9716 -0.2259  1.3183
  200MOL   H14128399   0.794   0.863   4.634 -0.6522  0.7113 -1.0532
  200MOL   H14228400   0.713   0.633   4.633 -0.9210 -0.3674 -1.7433
  201MOL     C128401   2.503   2.977   4.229 -0.1678  0.0916  0.3828
  201MOL     C228402   2.391   3.042   4.143  0.2602 -0.7606 -0.4749
  201MOL     O328403   2.441   3.124   4.043 -0.0527 -0.5653  0.1794
  201MOL     H428404   2.535   2.900   4.158 -2.4808 -2.1144  1.6784
  201MOL     H528405   2.472   2.939   4.326 -0.6201  0.3736  0.3509
  201MOL     H628406   2.327   3.097   4.213  1.6287  1.5498 -0.9798
  201MOL     H728407   2.424   3.216   4.054 -0.1544 -0.5316 -0.2580
  201MOL     H828408   2.587   3.045   4.243  0.8621 -0.7962 -1.3207
  201MOL     C928409   2.306   2.937   4.072  0.4043 -0.3704  0.2084
  201MOL    C1028410   2.225   2.846   4.168  0.0165 -0.3346 -0.1774
  201MOL    O1128411   2.138   2.913   4.257 -0.2038 -0.0321  0.0810
  201MOL    H1228412   2.242   2.976   3.994 -1.6589  2.0293  2.9951
  201MOL    H1328413   2.377   2.870   4.022  1.1182 -0.8901  1.8712
  201MOL    H1428414   2.297   2.785   4.223  0.1731  0.4668  0.5122
  201MOL    H1528415   2.078   2.963   4.203 -2.0311  1.2883  3.1529
  201MOL    C1628416   2.143   2.737   4.100  0.3995  0.2393  0.2054
  201MOL    C1728417   2.215   2.602   4.068 -0.1864 -0.6453  0.9790
  201MOL    O1828418   2.122   2.534   3.988 -0.2309 -0.8036 -0.4399
  201MOL    H1928419   2.061   2.700   4.161  0.8673 -2.9067 -1.0013
  201MOL    H2028420   2.102   2.781   4.008  0.8909 -1.3234 -0.7827
  201MOL    H2128421   2.231   2.553   4.164 -1.0920 -0.5541  1.1779
  201MOL    H2228422   2.060   2.506   4.054 -0.2135  0.8970  0.3095
  201MOL    C2328423   2.354   2.627   3.988  0.3861  0.0214 -0.1898
  201MOL    C2428424   2.406   2.499   3.920  0.6510  0.3236 -0.2251
  201MOL    O2528425   2.506   2.553   3.829  0.5756 -0.3244  0.3734
  201MOL    H2628426   2.353   2.706   3.914  1.7701  1.5197  1.3550
  201MOL    H2728427   2.427   2.665   4.060  1.5736 -1.7190 -0.4322
  201MOL    H2828428   2.327   2.455   3.860 -0.2121  0.8322  0.5285
  201MOL    H2928429   2.468   2.587   3.750  1.6116 -1.4138 -0.6070
  201MOL    C3028430   2.468   2.397   4.023  0.8439  0.2982 -0.0773
  201MOL    C3128431   2.481   2.252   3.966  0.4921  0.8073  0.7903
  201MOL    O3228432   2.559   2.174   4.058 -0.3540  0.3000 -0.4413
  201MOL    H3328433   2.565   2.444   4.041  0.5523  0.5194  0.9285
  201MOL    H3428434   2.400   2.395   4.108  0.4498 -3.4102 -0.3956
  201MOL    H3528435   2.532   2.244   3.870 -0.3463  0.3645  0.3736
  201MOL    H3628436   2.614   2.115   4.009 -0.3489  0.5722 -0.7688
  201MOL    C3728437   2.337   2.192   3.972  0.1759 -0.0101  0.5972
  201MOL    C3828438   2.326   2.057   3.897  0.0331 -0.0315  0.4971
  201MOL    O3928439   2.204   1.995   3.925  0.1679  0.4038 -0.1681
  201MOL    H4028440   2.302   2.182   4.075 -0.9351  1.1958  0.3542
  201MOL    H4128441   2.270   2.266   3.926 -0.7862 -2.6898 -2.5028
  201MOL    H4228442   2.399   1.992   3.945  0.2061  0.3321  0.7348
  201MOL    H4328443   2.188   1.937   3.853 -0.5059 -0.6748  0.8228
  201MOL    C4428444   2.340   2.041   3.746  0.2102 -0.5574  0.5949
  201MOL    C4528445   2.356   1.901   3.691  0.1823  0.9428  0.1139
  201MOL    O4628446   2.250   1.815   3.737 -0.2263  0.2746 -0.1284
  201MOL    H4728447   2.255   2.096   3.705  0.5661 -1.6590 -1.6916
  201MOL    H4828448   2.430   2.096   3.718  1.3204 -2.1857  0.9175
  201MOL    H4928449   2.445   1.854   3.732  0.0804  0.8824  0.2678
  201MOL    H5028450   2.258   1.745   3.675  1.8418 -0.4662  0.9539
  201MOL    C5128451   2.360   1.900   3.540 -0.0381 -0.3033 -0.2861
  201MOL    C5228452   2.404   1.763   3.481  0.3030  0.3862 -0.5863
  201MOL    O5328453   2.310   1.659   3.512 -0.1194  0.2759 -0.1972
  201MOL    H5428454   2.257   1.921   3.511 -0.2546  0.8749  1.2665
  201MOL    H5528455   2.433   1.974   3.507 -2.4885  1.0707 -2.8727
  201MOL    H5628456   2.504   1.737   3.514 -0.4752 -0.4909  1.1336
  201MOL    H5728457   2.345   1.579   3.476 -1.1963  0.3125 -1.3299
  201MOL    C5828458   2.413   1.774   3.327 -0.4865  0.0138 -0.0612
  201MOL    C5928459   2.551   1.777   3.266  0.2804  0.3393  0.8562
  201MOL    O6028460   2.608   1.655   3.292 -0.4732  0.0080  0.4703
  201MOL    H6128461   2.353   1.699   3.276 -0.8246  0.3930 -0.2231
  201MOL    H6228462   2.368   1.871   3.303 -0.7777 -0.2916 -0.7659
  201MOL    H6328463   2.615   1.857   3.303 -0.3941  2.0909 -1.6505
  201MOL    H6428464   2.700   1.655   3.269 -0.2729 -0.1847  1.2595
  201MOL    C6528465   2.537   1.794   3.111 -0.1989  0.2732 -0.3147
  201MOL    C6628466   2.492   1.926   3.052 -0.3994 -0.1679 -0.7888
  201MOL    O6728467   2.349   1.937   3.054  0.0097 -0.1737 -0.2878
  201MOL    H6828468   2.640   1.781   3.078  0.3754  2.3560  0.5330
  201MOL    H6928469   2.470   1.721   3.066 -0.5433 -0.0496  0.7116
  201MOL    H7028470   2.528   1.926   2.949 -2.0022  2.1606 -1.4013
  201MOL    H7128471   2.313   2.021   3.030 -1.1511 -0.9329 -1.2273
  201MOL    C7228472   2.547   2.065   3.107  1.0385 -0.1694 -0.4514
  201MOL    C7328473   2.666   2.129   3.031 -0.3758  0.1404  0.1121
  201MOL    O7428474   2.701   2.255   3.091  0.2923 -0.3638 -0.2958
  201MOL    H7528475   2.470   2.140   3.087  1.0313 -0.2280 -0.6471
  201MOL    H7628476   2.560   2.057   3.215  0.1111  3.7346  0.0318
  201MOL    H7728477   2.623   2.157   2.935 -1.4064 -0.8711  0.2722
  201MOL    H7828478   2.767   2.298   3.039  1.6773 -0.8544  1.0224
  201MOL    C7928479   2.795   2.037   3.031 -0.3505  0.0882  0.3449
  201MOL    C8028480   2.920   2.100   2.976 -0.1600 -0.4405  0.9315
  201MOL    O8128481   3.034   2.071   3.059  0.0266 -0.1228  0.4112
  201MOL    H8228482   2.817   2.022   3.137  1.4512 -3.2879 -0.4269
  201MOL    H8328483   2.789   1.933   2.999 -2.1158 -0.3512  2.0124
  201MOL    H8428484   2.912   2.208   2.966  1.9157 -0.2260  1.4201
  201MOL    H8528485   3.107   2.113   3.016 -1.0660 -0.4613 -1.8890
  201MOL    C8628486   2.955   2.042   2.833  0.6551 -0.0253  0.9549
  201MOL    C8728487   2.865   2.077   2.712 -0.4129  0.2344  0.0287
  201MOL    O8828488   2.870   2.215   2.686  0.2123  0.2818  0.2748
  201MOL    H8928489   3.055   2.080   2.811  0.6097 -1.0105 -1.0774
  201MOL    H9028490   2.950   1.933   2.836 -2.6088  0.0612  0.4180
  201MOL    H9128491   2.762   2.061   2.745  0.2245 -2.0566  0.9803
  201MOL    H9228492   2.777   2.233   2.685  0.3861  1.3390  1.8446
  201MOL    C9328493   2.907   1.994   2.587  0.5996  0.5693  0.6121
  201MOL    C9428494   2.812   1.977   2.472  0.2804  0.5435 -0.4716
  201MOL    O9528495   2.868   1.879   2.384 -0.0066  0.0674 -0.2672
  201MOL    H9628496   2.997   2.035   2.542  1.7094 -3.2420 -0.8322
  201MOL    H9728497   2.930   1.893   2.621  1.1918  0.1179 -1.1165
  201MOL    H9828498   2.797   2.072   2.420 -0.8226 -0.0251 -1.2000
  201MOL    H9928499   2.903   1.928   2.312 -0.2114  1.5408  0.6069
  201MOL   C10028500   2.667   1.927   2.527  0.5982  0.0277 -0.2092
  201MOL   C10128501   2.566   1.890   2.416 -0.0485 -0.1055  0.0508
  201MOL   O10228502   2.447   1.869   2.482  0.0521 -0.0869  0.4487
  201MOL   H10328503   2.670   1.839   2.592  0.2579 -0.2440 -0.5596
  201MOL   H10428504   2.622   1.995   2.599 -1.1398 -1.2116 -0.1071
  201MOL   H10528505   2.605   1.802   2.366 -1.1803  0.2280 -1.4639
  201MOL   H10628506   2.407   1.793   2.443  0.3995  0.3138 -0.7186
  201MOL   C10728507   2.551   2.001   2.303  0.1935  0.3600 -0.1543
  201MOL   C10828508   2.443   1.974   2.196  0.6984 -0.3330  0.3209
  201MOL   O10928509   2.425   2.088   2.116 -0.0960 -0.1876  0.1353
  201MOL   H11028510   2.531   2.094   2.357 -0.0588 -0.6155  1.4680
  201MOL   H11128511   2.648   2.018   2.256 -0.0040  1.4131 -0.1946
  201MOL   H11228512   2.353   1.954   2.254  0.5287 -0.8069 -0.1017
  201MOL   H11328513   2.407   2.160   2.175 -1.0512 -1.4399  1.3963
  201MOL   C11428514   2.478   1.853   2.094 -0.0342 -0.7172 -0.2426
  201MOL   C11528515   2.370   1.834   1.983  0.2451  0.5207  0.6788
  201MOL   O11628516   2.370   1.949   1.894  1.0390 -0.7962  0.2205
  201MOL   H11728517   2.580   1.846   2.056 -0.6634 -0.2702 -2.0383
  201MOL   H11828518   2.481   1.764   2.157 -1.7218  1.0639  2.4749
  201MOL   H11928519   2.276   1.833   2.039 -1.6132 -0.5576 -2.3235
  201MOL   H12028520   2.399   2.017   1.954 -0.1803  0.6118 -0.7447
  201MOL   C12128521   2.386   1.696   1.906 -0.0939 -0.1034 -0.0003
  201MOL   C12228522   2.261   1.635   1.833  0.3745  0.3316 -0.4710
  201MOL   O12328523   2.183   1.562   1.923  0.0226 -0.0472  0.4622
  201MOL   H12428524   2.466   1.716   1.835 -0.1958  0.4930  0.0501
  201MOL   H12528525   2.429   1.614   1.963 -0.8049  0.9639  2.1311
  201MOL   H12628526   2.300   1.560   1.764 -0.8404 -0.7646 -0.0016
  201MOL   H12728527   2.134   1.490   1.889  0.0811  0.1206  0.0252
  201MOL   C12828528   2.165   1.726   1.755  0.5831 -0.0926 -0.5324
  201MOL   C12928529   2.229   1.810   1.638  0.0712 -0.1784 -1.4058
  201MOL   O13028530   2.237   1.731   1.523 -0.4476 -0.0097  0.6270
  201MOL   H13128531   2.079   1.673   1.716 -0.8957  1.4424  0.5827
  201MOL   H13228532   2.114   1.788   1.829  1.0439 -0.1065 -0.2002
  201MOL   H13328533   2.330   1.838   1.668  0.0724 -2.0838  0.5100
  201MOL   H13428534   2.150   1.728   1.488  0.0250 -0.0537 -0.5778
  201MOL   C13528535   2.159   1.947   1.625 -0.2559  0.4672  0.6706
  201MOL   C13628536   2.245   2.060   1.556 -0.2667  0.0278  0.6409
  201MOL   O13728537   2.147   2.151   1.519  0.0648 -0.0721  0.0764
  201MOL   H13828538   2.063   1.927   1.577  1.0113 -1.5148 -1.1144
  201MOL   H13928539   2.131   1.990   1.721 -0.4124  0.8181  0.4724
  201MOL   H14028540   2.314   2.044   1.473  1.3754  0.9463  1.7773
  201MOL   H14128541   2.199   2.226   1.495  0.4216 -0.4379 -0.3066
  201MOL   H14228542   2.299   2.108   1.638  1.3450  1.6790 -1.3187
  202MOL     C128543   5.635   1.890   5.858  0.0449 -0.2494  0.5863
  202MOL     C228544   5.686   1.990   5.969 -0.1303  0.0550  0.4585
  202MOL     O328545   5.661   1.942   6.099  0.2111 -0.0768  0.3048
  202MOL     H428546   5.635   1.926   5.755  1.2865 -1.2718  0.2223
  202MOL     H528547   5.526   1.889   5.869 -0.0860 -1.2803 -0.7208
  202MOL     H628548   5.628   2.082   5.956 -0.2107  0.1296  1.3276
  202MOL     H728549   5.695   2.004   6.162  1.7770 -0.7238  0.1292
  202MOL     H828550   5.680   1.792   5.873 -1.0060 -0.9327 -0.5632
  202MOL     C928551   5.836   2.024   5.959 -0.8349  0.3536  0.4209
  202MOL    C1028552   5.888   2.149   5.876 -0.0787  0.1097  1.1574
  202MOL    O1128553   6.021   2.164   5.901  0.4972  0.0305  0.0037
  202MOL    H1228554   5.868   2.025   6.063 -4.7343 -1.2546  1.7292
  202MOL    H1328555   5.891   1.935   5.928 -2.5224 -0.8941  0.9174
  202MOL    H1428556   5.844   2.243   5.907 -1.3227 -0.6771  1.7844
  202MOL    H1528557   6.028   2.225   5.973  3.4068  0.7568 -0.8283
  202MOL    C1628558   5.874   2.128   5.718  0.2212  0.0624  0.0847
  202MOL    C1728559   5.731   2.188   5.675  0.8159  0.0264  0.4800
  202MOL    O1828560   5.731   2.334   5.673  0.0641 -0.6081  0.1173
  202MOL    H1928561   5.952   2.185   5.668 -0.3634 -0.4544 -1.4293
  202MOL    H2028562   5.885   2.026   5.682 -0.6949 -0.8346  2.2842
  202MOL    H2128563   5.649   2.153   5.738 -0.2817  2.1002  0.2596
  202MOL    H2228564   5.814   2.352   5.631  0.2008 -0.0505  0.6050
  202MOL    C2328565   5.682   2.143   5.536  0.2824  1.2997  0.6625
  202MOL    C2428566   5.528   2.170   5.504  0.7811  0.8212  0.0867
  202MOL    O2528567   5.509   2.308   5.512  0.2700 -0.0187 -0.3115
  202MOL    H2628568   5.749   2.173   5.455  0.4940 -1.3185 -0.1995
  202MOL    H2728569   5.678   2.034   5.529 -0.9767  1.4332 -0.9774
  202MOL    H2828570   5.471   2.130   5.588  1.5293  1.4972  0.9321
  202MOL    H2928571   5.553   2.333   5.592 -1.8526  0.7449  0.6407
  202MOL    C3028572   5.480   2.120   5.367 -0.2362  0.3131 -0.4097
  202MOL    C3128573   5.481   1.968   5.347 -0.0376  0.3464 -0.1514
  202MOL    O3228574   5.432   1.902   5.455  0.8114  0.3515 -0.0214
  202MOL    H3328575   5.375   2.152   5.368 -0.1394  0.9957  5.6974
  202MOL    H3428576   5.529   2.161   5.279 -1.7722 -0.0286 -1.4577
  202MOL    H3528577   5.581   1.928   5.331 -0.0923  0.6936 -1.3883
  202MOL    H3628578   5.445   1.809   5.446  2.7844  0.6352 -0.2290
  202MOL    C3728579   5.400   1.913   5.228 -0.0797 -0.5206 -0.6697
  202MOL    C3828580   5.421   1.967   5.081  0.3767  0.6567  0.6061
  202MOL    O3928581   5.553   1.962   5.046  0.2270 -0.4814  0.5943
  202MOL    H4028582   5.407   1.805   5.228 -2.6647 -0.7803  3.1045
  202MOL    H4128583   5.295   1.931   5.250  0.1366  1.5158 -1.1815
  202MOL    H4228584   5.380   2.068   5.075 -2.4310 -0.3693  1.4775
  202MOL    H4328585   5.582   2.050   5.029 -1.1284  0.2006  1.7011
  202MOL    C4428586   5.335   1.877   4.981  0.2276 -0.1507  0.0660
  202MOL    C4528587   5.325   1.932   4.831 -0.5542  0.3700 -0.4097
  202MOL    O4628588   5.291   1.824   4.750  0.3881 -0.8094  0.5346
  202MOL    H4728589   5.372   1.775   4.976  0.2447 -0.1612  0.3897
  202MOL    H4828590   5.232   1.865   5.016  0.1585 -1.4386 -0.5504
  202MOL    H4928591   5.425   1.967   4.809  0.3366 -0.9469  1.4531
  202MOL    H5028592   5.369   1.795   4.704  1.5076  0.9803  1.2566
  202MOL    C5128593   5.221   2.051   4.814 -0.2011  0.4760 -0.3885
  202MOL    C5228594   5.200   2.090   4.665  0.5397 -0.1102 -0.0454
  202MOL    O5328595   5.107   2.006   4.610 -0.0554  0.7903  0.3250
  202MOL    H5428596   5.131   2.007   4.858  1.5089 -2.5814  0.2477
  202MOL    H5528597   5.256   2.137   4.871  1.2924  0.1238 -0.7614
  202MOL    H5628598   5.301   2.079   4.624  0.9975  0.2762  0.9570
  202MOL    H5728599   5.146   1.920   4.618  0.5853  0.8364 -1.8533
  202MOL    C5828600   5.133   2.227   4.646  0.5887 -0.1015 -0.4660
  202MOL    C5928601   5.210   2.356   4.671 -0.2616  0.1805  0.1194
  202MOL    O6028602   5.317   2.374   4.580 -0.0035 -0.0867  0.1328
  202MOL    H6128603   5.096   2.230   4.543 -1.2593  1.3225  0.1922
  202MOL    H6228604   5.043   2.220   4.707 -0.1618 -1.3163 -1.6778
  202MOL    H6328605   5.244   2.363   4.774 -0.5842  0.5948  0.1990
  202MOL    H6428606   5.336   2.466   4.577  3.7789 -0.8275 -2.7078
  202MOL    C6528607   5.119   2.481   4.662  0.8233  0.3299  0.2056
  202MOL    C6628608   5.184   2.611   4.701  0.3047  0.6525  0.6386
  202MOL    O6728609   5.279   2.658   4.607  0.0917 -0.1645  0.4892
  202MOL    H6828610   5.069   2.483   4.565 -3.3009 -4.4616  1.9794
  202MOL    H6928611   5.038   2.462   4.733  0.4699  3.3450  0.6700
  202MOL    H7028612   5.230   2.604   4.799  1.1316  1.1789  0.2916
  202MOL    H7128613   5.366   2.647   4.644  0.0089  0.2161  0.7933
  202MOL    C7228614   5.076   2.720   4.708 -0.2420 -0.1577  0.1628
  202MOL    C7328615   4.976   2.739   4.588 -0.8588  0.2064 -0.2776
  202MOL    O7428616   4.853   2.793   4.639 -0.0207 -0.0445  0.2092
  202MOL    H7528617   5.019   2.694   4.797 -0.5299 -1.0759 -0.2894
  202MOL    H7628618   5.121   2.816   4.734 -0.5309  0.6650 -2.3015
  202MOL    H7728619   4.935   2.652   4.537 -1.5034  0.7608 -0.7195
  202MOL    H7828620   4.785   2.792   4.573 -0.0096 -0.1575  0.1988
  202MOL    C7928621   5.046   2.838   4.482  0.2079  0.8437 -0.3734
  202MOL    C8028622   4.990   2.848   4.338 -0.4997  0.0803 -0.1590
  202MOL    O8128623   5.068   2.949   4.273  0.6101  0.3825  0.1021
  202MOL    H8228624   5.069   2.941   4.508 -3.1687  1.5983 -0.1849
  202MOL    H8328625   5.146   2.798   4.464 -0.1621 -0.2911  0.0446
  202MOL    H8428626   4.882   2.856   4.340 -0.8324 -3.0459 -2.2023
  202MOL    H8528627   5.044   3.030   4.313  2.1749  1.5956 -1.3201
  202MOL    C8628628   5.019   2.721   4.254  0.3108 -0.3564 -0.2909
  202MOL    C8728629   4.945   2.744   4.116  0.2305  0.3702  0.5758
  202MOL    O8828630   5.042   2.794   4.028  0.1734  0.0887  0.2347
  202MOL    H8928631   5.122   2.687   4.248  0.6847  1.1898 -3.3223
  202MOL    H9028632   4.961   2.640   4.300  1.0542 -1.8850 -1.9886
  202MOL    H9128633   4.857   2.808   4.117 -0.6649 -0.8343  0.9680
  202MOL    H9228634   5.080   2.865   4.077  0.0137  0.1237  0.3090
  202MOL    C9328635   4.895   2.608   4.058  0.3827  0.3113  0.2293
  202MOL    C9428636   4.849   2.596   3.906  0.5991  0.3583  0.1939
  202MOL    O9528637   4.817   2.459   3.886 -0.0651  0.6905 -0.4019
  202MOL    H9628638   4.981   2.542   4.066  0.8665  0.8027 -0.7291
  202MOL    H9728639   4.824   2.554   4.122 -0.3725  0.4001 -0.5142
  202MOL    H9828640   4.935   2.617   3.843  0.6787  1.2101  0.5774
  202MOL    H9928641   4.784   2.453   3.797 -1.8864 -3.0926  0.4460
  202MOL   C10028642   4.719   2.685   3.870  0.1262 -0.2960 -0.0645
  202MOL   C10128643   4.676   2.679   3.724 -0.5503 -0.6601  0.7191
  202MOL   O10228644   4.613   2.560   3.682 -0.3857 -0.1249 -0.4559
  202MOL   H10328645   4.636   2.664   3.937 -0.8115  0.0877 -1.0876
  202MOL   H10428646   4.754   2.784   3.899  0.6257 -0.9024  1.4567
  202MOL   H10528647   4.760   2.696   3.657 -2.0646  1.3829 -0.7131
  202MOL   H10628648   4.526   2.554   3.717  0.0497 -0.7601  0.5752
  202MOL   C10728649   4.576   2.789   3.688 -0.0173 -0.7792  0.1733
  202MOL   C10828650   4.627   2.939   3.725 -0.1855 -0.0541 -0.0505
  202MOL   O10928651   4.735   2.977   3.648 -0.1849  0.6164  0.0905
  202MOL   H11028652   4.562   2.789   3.580  2.8438 -1.9665 -0.2395
  202MOL   H11128653   4.482   2.776   3.742 -0.6506 -1.0987 -0.9909
  202MOL   H11228654   4.660   2.943   3.829  2.9335  2.1411 -1.0445
  202MOL   H11328655   4.817   2.948   3.684 -0.7753  0.2607  1.1532
  202MOL   C11428656   4.513   3.043   3.730  0.4234  0.3112  0.1795
  202MOL   C11528657   4.547   3.166   3.813  0.3428  0.1592 -0.0913
  202MOL   O11628658   4.450   3.263   3.770 -0.2733 -0.0905 -0.5119
  202MOL   H11728659   4.496   3.068   3.625  0.4201  0.6754  0.2677
  202MOL   H11828660   4.420   3.011   3.777  1.2963 -0.6749  1.2792
  202MOL   H11928661   4.653   3.187   3.798  0.6461 -2.2848 -1.6045
  202MOL   H12028662   4.471   3.346   3.811  1.8308 -2.5143  3.5729
  202MOL   C12128663   4.529   3.149   3.967  0.5693  0.6805 -0.2545
  202MOL   C12228664   4.629   3.069   4.060 -0.5463 -0.8142  0.6104
  202MOL   O12328665   4.766   3.083   4.012  0.1713  0.7199 -0.3129
  202MOL   H12428666   4.494   3.244   4.008  0.3594  0.5995 -0.2430
  202MOL   H12528667   4.433   3.097   3.973  0.4662  0.8592 -0.3289
  202MOL   H12628668   4.614   2.961   4.056  1.3136 -1.0135 -4.7180
  202MOL   H12728669   4.795   3.173   4.005  0.7188  0.4536 -1.4649
  202MOL   C12828670   4.624   3.108   4.209  0.0515  0.5058 -0.0893
  202MOL   C12928671   4.493   3.056   4.273  0.4779 -0.4702 -0.4786
  202MOL   O13028672   4.499   2.919   4.284 -0.2373 -0.2464 -0.1915
  202MOL   H13128673   4.705   3.074   4.273 -0.6451 -2.1583 -0.5402
  202MOL   H13228674   4.646   3.215   4.218  1.7050  0.4262 -2.5407
  202MOL   H13328675   4.405   3.068   4.210  0.2291  2.1563  0.3391
  202MOL   H13428676   4.414   2.878   4.287  1.0464 -3.0625 -1.5002
  202MOL   C13528677   4.460   3.114   4.415 -0.0697  0.2558  0.0320
  202MOL   C13628678   4.428   3.263   4.405 -0.6702  0.1657  0.1548
  202MOL   O13728679   4.293   3.291   4.379 -0.2778  0.2070 -0.1451
  202MOL   H13828680   4.374   3.072   4.467 -0.6629  1.9782  0.4485
  202MOL   H13928681   4.551   3.097   4.472  1.9480  1.1887 -2.7737
  202MOL   H14028682   4.493   3.323   4.341 -2.1004  3.4764  1.6561
  202MOL   H14128683   4.281   3.377   4.418  1.6906  0.5990 -0.3264
  202MOL   H14228684   4.448   3.306   4.503 -1.0614  1.0365 -0.1388
  203MOL     C128685   4.501   1.516   3.622  0.6287 -0.0139  0.4999
  203MOL     C228686   4.487   1.554   3.769  0.0282  0.4150 -0.2030
  203MOL     O328687   4.620   1.591   3.797  0.3017 -0.0684  0.7016
  203MOL     H428688   4.526   1.606   3.566  0.8035  0.4845  1.3717
  203MOL     H528689   4.409   1.470   3.587  0.7556  0.2038 -0.1153
  203MOL     H628690   4.469   1.463   3.826 -0.8668  0.4431 -0.4344
  203MOL     H728691   4.608   1.678   3.831  2.3501 -0.4342  2.4761
  203MOL     H828692   4.568   1.430   3.626  2.5611  1.4476  0.5234
  203MOL     C928693   4.386   1.671   3.796  0.1959  0.7882  0.2479
  203MOL    C1028694   4.231   1.632   3.779  0.4552 -0.3022 -0.4845
  203MOL    O1128695   4.191   1.581   3.908 -0.1839 -0.3551  0.3657
  203MOL    H1228696   4.398   1.708   3.897 -0.3861 -0.8416  0.9326
  203MOL    H1328697   4.422   1.747   3.727  1.4542  1.6030  1.7768
  203MOL    H1428698   4.218   1.544   3.716  3.0672 -0.6542 -0.5934
  203MOL    H1528699   4.184   1.650   3.973  0.2781  1.6492 -1.6456
  203MOL    C1628700   4.141   1.744   3.725 -0.2580  0.2937  0.1214
  203MOL    C1728701   3.999   1.698   3.698  0.0718 -0.4512  0.2656
  203MOL    O1828702   3.934   1.682   3.829  0.5776 -0.3759 -0.2307
  203MOL    H1928703   4.135   1.837   3.782  1.3846  2.1877 -2.6736
  203MOL    H2028704   4.189   1.774   3.632  0.2929 -0.5250  0.1358
  203MOL    H2128705   3.991   1.604   3.644  0.0939  1.3155 -2.9566
  203MOL    H2228706   3.995   1.717   3.893  2.8294 -2.1981 -1.2907
  203MOL    C2328707   3.919   1.800   3.610  0.0084 -0.3913  0.0138
  203MOL    C2428708   3.795   1.747   3.537 -0.0375  0.3112 -0.0130
  203MOL    O2528709   3.714   1.858   3.502 -0.2879 -0.2607 -0.0846
  203MOL    H2628710   3.886   1.885   3.669  2.4330 -1.0340  2.3860
  203MOL    H2728711   3.983   1.844   3.534 -1.6448  2.9045  0.4644
  203MOL    H2828712   3.749   1.685   3.613  0.9797  0.0365  0.3915
  203MOL    H2928713   3.660   1.880   3.576 -1.5363 -0.1088 -1.0167
  203MOL    C3028714   3.846   1.661   3.412 -0.2189  0.0089 -0.1362
  203MOL    C3128715   3.768   1.533   3.377  0.3036 -0.4906 -0.2684
  203MOL    O3228716   3.865   1.479   3.286 -0.2460 -0.0909 -0.5531
  203MOL    H3328717   3.841   1.723   3.323  0.3395 -0.3942 -0.4533
  203MOL    H3428718   3.953   1.650   3.429  0.0293  2.6742  0.2655
  203MOL    H3528719   3.669   1.546   3.333 -0.7964 -5.3432  0.4042
  203MOL    H3628720   3.942   1.469   3.339  0.2963  2.8301 -0.6658
  203MOL    C3728721   3.765   1.433   3.495 -0.2444  0.8035  0.2418
  203MOL    C3828722   3.630   1.426   3.554  0.7481  0.2098  0.4498
  203MOL    O3928723   3.538   1.350   3.474  0.4754 -0.5276 -0.0702
  203MOL    H4028724   3.778   1.335   3.449  0.7870  0.9502  0.1985
  203MOL    H4128725   3.855   1.434   3.556  0.4519  0.1362 -0.7581
  203MOL    H4228726   3.588   1.526   3.565 -1.7289 -0.5711 -1.3699
  203MOL    H4328727   3.581   1.273   3.440 -0.2159 -0.9161 -0.0930
  203MOL    C4428728   3.622   1.358   3.692 -0.2251  0.4674  0.3974
  203MOL    C4528729   3.707   1.431   3.806 -0.4813  0.2789 -0.7043
  203MOL    O4628730   3.664   1.560   3.829 -0.0232  0.1967  0.2681
  203MOL    H4728731   3.523   1.366   3.736  0.2871  0.6699  1.5350
  203MOL    H4828732   3.631   1.250   3.676  1.4822  0.5165  0.9225
  203MOL    H4928733   3.810   1.440   3.773 -0.3038 -1.1668 -0.6011
  203MOL    H5028734   3.740   1.611   3.853 -0.0961  1.2202 -1.5670
  203MOL    C5128735   3.701   1.357   3.947 -0.4567 -0.5580  0.8418
  203MOL    C5228736   3.833   1.363   4.027 -0.1019  0.8806  0.1422
  203MOL    O5328737   3.812   1.361   4.158  0.0742  0.6338 -0.1860
  203MOL    H5428738   3.628   1.409   4.010  0.6599  0.1502  1.5675
  203MOL    H5528739   3.667   1.254   3.943 -0.5747 -0.4653 -0.8563
  203MOL    H5628740   3.892   1.451   4.006  0.7210  0.4505  0.6073
  203MOL    H5728741   3.897   1.340   4.193  2.0750  0.7621 -4.6396
  203MOL    C5828742   3.936   1.250   3.989 -0.2589 -0.9967 -0.0807
  203MOL    C5928743   3.972   1.234   3.836  0.0436 -0.3813 -0.4860
  203MOL    O6028744   4.027   1.351   3.780 -0.3796 -0.2242 -0.3495
  203MOL    H6128745   4.026   1.271   4.047  0.5890  0.8336 -1.9965
  203MOL    H6228746   3.898   1.158   4.032  0.1302 -1.0215  0.2099
  203MOL    H6328747   3.878   1.222   3.782 -0.0116 -0.5620 -0.3498
  203MOL    H6428748   4.083   1.396   3.842 -0.8662  0.1662 -0.1869
  203MOL    C6528749   4.071   1.121   3.810 -0.0212 -0.2015  0.4030
  203MOL    C6628750   4.100   1.084   3.668  0.2735 -0.2023  0.1459
  203MOL    O6728751   4.209   0.991   3.657  0.1424  0.0512 -0.0451
  203MOL    H6828752   4.169   1.146   3.851 -0.2977 -0.9014  1.4954
  203MOL    H6928753   4.048   1.033   3.869  1.0151  1.2421  3.0519
  203MOL    H7028754   4.144   1.172   3.620 -1.6493  0.9954  0.5549
  203MOL    H7128755   4.222   0.974   3.564  2.2074 -1.3423  0.4351
  203MOL    C7228756   3.983   1.042   3.576 -0.6853 -0.1032 -0.3325
  203MOL    C7328757   3.878   0.946   3.646  0.2398 -0.0604  0.3540
  203MOL    O7428758   3.763   0.950   3.562  0.0536 -0.0535 -0.2229
  203MOL    H7528759   3.934   1.133   3.541 -0.0045  0.4765  0.2072
  203MOL    H7628760   4.018   1.004   3.480  0.4137  1.5166 -0.5937
  203MOL    H7728761   3.848   0.995   3.738 -1.4043  0.0127 -0.1991
  203MOL    H7828762   3.700   0.893   3.605 -0.2143  0.6623  0.3520
  203MOL    C7928763   3.918   0.803   3.677  0.9244  0.1062  0.6281
  203MOL    C8028764   3.981   0.714   3.575  0.2208 -0.2095 -0.0834
  203MOL    O8128765   3.991   0.584   3.638  0.5143  0.2436  0.3354
  203MOL    H8228766   3.994   0.827   3.752  0.2553 -1.0080  1.6933
  203MOL    H8328767   3.838   0.747   3.727 -0.9088  1.8339 -0.2914
  203MOL    H8428768   4.083   0.749   3.558  0.5138  0.9381  3.5544
  203MOL    H8528769   4.081   0.568   3.663  0.7062 -0.3819 -0.7263
  203MOL    C8628770   3.921   0.682   3.435  0.4505 -0.3985  0.2107
  203MOL    C8728771   4.008   0.656   3.322 -0.9506 -0.3894  0.2715
  203MOL    O8828772   3.919   0.641   3.211 -0.2498 -0.6714 -0.2407
  203MOL    H8928773   3.862   0.592   3.449  1.0458 -0.4415  2.4682
  203MOL    H9028774   3.857   0.765   3.403  2.3767  0.6341 -1.0733
  203MOL    H9128775   4.065   0.569   3.355 -0.1483  0.3312  0.7919
  203MOL    H9228776   3.855   0.710   3.223  1.5820  0.4748  4.0908
  203MOL    C9328777   4.093   0.784   3.278 -0.3406  0.8152 -0.0796
  203MOL    C9428778   4.204   0.762   3.166 -0.1894 -0.6626 -0.4742
  203MOL    O9528779   4.280   0.886   3.147 -0.2689  0.3854  0.0647
  203MOL    H9628780   4.024   0.858   3.240 -0.5934  0.9977  0.7339
  203MOL    H9728781   4.148   0.821   3.365  0.1859  0.1827 -0.1383
  203MOL    H9828782   4.142   0.729   3.083 -0.4247 -3.5037  0.7684
  203MOL    H9928783   4.308   0.892   3.057 -0.4756 -0.2217 -0.0448
  203MOL   C10028784   4.314   0.667   3.205 -0.5517  0.0528 -0.4662
  203MOL   C10128785   4.419   0.647   3.091  0.5633  0.3490 -0.1856
  203MOL   O10228786   4.534   0.591   3.149  0.4604 -0.1117 -0.3726
  203MOL   H10328787   4.372   0.718   3.281 -0.2607 -1.2225  0.1897
  203MOL   H10428788   4.282   0.564   3.222  1.1987 -0.6304 -1.1669
  203MOL   H10528789   4.448   0.743   3.049  1.7960  1.2528  2.6159
  203MOL   H10628790   4.608   0.620   3.098 -0.1660 -1.1343 -1.8950
  203MOL   C10728791   4.373   0.552   2.987 -0.1560  0.0564 -0.2189
  203MOL   C10828792   4.470   0.525   2.868  0.2017  0.4923 -0.3265
  203MOL   O10928793   4.425   0.405   2.809  0.0021 -0.7351  0.7890
  203MOL   H11028794   4.363   0.456   3.038 -2.0535  0.0405 -0.5833
  203MOL   H11128795   4.273   0.580   2.954 -0.1322 -0.8977 -1.1115
  203MOL   H11228796   4.571   0.497   2.896 -0.2344 -1.4201 -0.6064
  203MOL   H11328797   4.473   0.338   2.856 -1.7273 -2.2243  0.4909
  203MOL   C11428798   4.478   0.640   2.773  0.0973  0.1596  0.5368
  203MOL   C11528799   4.575   0.624   2.654 -0.2646 -0.0269  0.2565
  203MOL   O11628800   4.547   0.714   2.542 -0.0753 -0.4665 -0.3960
  203MOL   H11728801   4.378   0.659   2.732  0.0888 -0.5474  0.2291
  203MOL   H11828802   4.507   0.731   2.824 -1.4439  1.0398 -0.0987
  203MOL   H11928803   4.545   0.527   2.614 -1.7086  0.7901 -0.7137
  203MOL   H12028804   4.571   0.679   2.458  2.5512  1.1684 -0.4011
  203MOL   C12128805   4.729   0.629   2.679 -0.0452  0.3705  0.2362
  203MOL   C12228806   4.820   0.582   2.565 -0.6547 -0.2045  0.6473
  203MOL   O12328807   4.948   0.646   2.567 -0.6297 -0.5319  0.0774
  203MOL   H12428808   4.744   0.735   2.699  0.1479 -0.0831  2.6334
  203MOL   H12528809   4.758   0.588   2.776  1.6303  0.1418 -0.3484
  203MOL   H12628810   4.775   0.615   2.471  0.3378 -0.0409  0.2220
  203MOL   H12728811   4.966   0.678   2.480  1.8657 -0.4152  0.6084
  203MOL   C12828812   4.849   0.432   2.562  0.0698 -0.0443 -0.4254
  203MOL   C12928813   4.913   0.363   2.442 -0.0166  0.1817  1.2029
  203MOL   O13028814   4.928   0.223   2.488 -0.5521 -0.9784  0.0989
  203MOL   H13128815   4.885   0.407   2.661 -0.7913 -1.3763 -0.4250
  203MOL   H13228816   4.744   0.401   2.552  0.1281  0.0737 -1.5488
  203MOL   H13328817   5.011   0.404   2.418  0.7244 -2.8990 -1.3848
  203MOL   H13428818   4.842   0.192   2.512 -0.2109 -0.6924  1.7230
  203MOL   C13528819   4.839   0.360   2.304 -0.1178  0.4754  0.5707
  203MOL   C13628820   4.929   0.343   2.180  0.1851  0.6899  0.0047
  203MOL   O13728821   4.852   0.340   2.059  0.3161 -1.1410  0.0149
  203MOL   H13828822   4.754   0.291   2.308  0.0766  0.2603  1.1073
  203MOL   H13928823   4.794   0.456   2.277  1.1067  1.3622  1.5866
  203MOL   H14028824   4.992   0.254   2.180 -1.8673 -0.7959  1.8624
  203MOL   H14128825   4.871   0.256   2.020  2.0838 -0.6494 -0.2288
  203MOL   H14228826   4.993   0.431   2.191  0.3390  0.4539  1.0297
  204MOL     C128827   6.715   3.703   6.026 -0.4806 -0.6439  0.0335
  204MOL     C228828   6.619   3.579   6.024  0.2265  0.4068 -0.1019
  204MOL     O328829   6.688   3.452   6.016  0.6790  0.4527  0.3965
  204MOL     H428830   6.791   3.709   6.104 -0.6539 -1.0066  0.2279
  204MOL     H528831   6.658   3.796   6.028  1.2801  0.5613 -2.4775
  204MOL     H628832   6.554   3.591   5.937 -1.1816 -1.0325  0.7212
  204MOL     H728833   6.638   3.387   5.970  2.4587 -1.5136  1.1647
  204MOL     H828834   6.756   3.694   5.926 -1.4269  0.5461 -0.4725
  204MOL     C928835   6.512   3.556   6.134 -0.7822  0.3360  0.0402
  204MOL    C1028836   6.410   3.435   6.120  0.4425  0.3572 -0.0447
  204MOL    O1128837   6.318   3.463   6.228 -0.4272 -0.1366  0.1985
  204MOL    H1228838   6.561   3.535   6.229 -1.4528  0.4918  0.4188
  204MOL    H1328839   6.453   3.645   6.153  1.2550  1.7058  0.0675
  204MOL    H1428840   6.459   3.339   6.139  0.7468  0.4617 -0.2995
  204MOL    H1528841   6.248   3.519   6.198 -0.2450  0.3120  0.6080
  204MOL    C1628842   6.325   3.438   5.991  0.5550 -0.0932 -0.6184
  204MOL    C1728843   6.230   3.321   5.964 -0.2598  0.5524  0.4635
  204MOL    O1828844   6.132   3.343   5.869 -0.2066  0.1720 -0.1023
  204MOL    H1928845   6.276   3.535   5.984  0.1395 -0.3260 -0.9435
  204MOL    H2028846   6.399   3.452   5.912 -0.0946  1.0077 -1.0275
  204MOL    H2128847   6.177   3.301   6.058 -0.8985  0.8072  0.1581
  204MOL    H2228848   6.172   3.363   5.785 -1.0743  0.7090 -0.3993
  204MOL    C2328849   6.297   3.184   5.953  0.3962  0.2325 -0.4348
  204MOL    C2428850   6.387   3.158   5.832  0.0417 -0.7257  0.1978
  204MOL    O2528851   6.516   3.205   5.866  0.5967  0.0646 -0.0083
  204MOL    H2628852   6.354   3.155   6.042 -2.3231 -0.1653  1.2323
  204MOL    H2728853   6.222   3.105   5.951  2.0677 -1.3668 -1.1839
  204MOL    H2828854   6.358   3.203   5.737  0.7040 -0.5407  0.0787
  204MOL    H2928855   6.577   3.181   5.799  1.8843 -1.6203  1.6851
  204MOL    C3028856   6.399   3.003   5.802  0.2996 -0.0296  0.0086
  204MOL    C3128857   6.271   2.941   5.737  0.1105 -0.2316  0.1712
  204MOL    O3228858   6.266   2.963   5.597 -0.3814  0.3257 -0.2254
  204MOL    H3328859   6.480   2.993   5.730  0.6932 -0.1520  0.4682
  204MOL    H3428860   6.430   2.947   5.891  3.8591  0.3009 -0.9444
  204MOL    H3528861   6.189   3.001   5.774 -0.2434  0.7190 -2.0401
  204MOL    H3628862   6.181   2.994   5.570 -0.6663  0.2163  0.5379
  204MOL    C3728863   6.242   2.791   5.759 -0.0422 -0.2355  0.1428
  204MOL    C3828864   6.098   2.755   5.805  0.6372  0.0079  0.5081
  204MOL    O3928865   6.079   2.614   5.784  0.8470 -0.3731  0.0843
  204MOL    H4028866   6.267   2.737   5.668  0.9674  0.0543  0.2388
  204MOL    H4128867   6.302   2.747   5.839 -0.5375 -1.3665 -0.0925
  204MOL    H4228868   6.029   2.801   5.734  0.3317 -1.0231  0.1308
  204MOL    H4328869   6.146   2.564   5.829  0.5135  1.0902  2.2708
  204MOL    C4428870   6.068   2.783   5.956 -0.6565  0.7303  0.6114
  204MOL    C4528871   5.919   2.797   5.994 -0.1743 -0.0885  0.3103
  204MOL    O4628872   5.918   2.807   6.136  0.5268 -0.2425  0.5372
  204MOL    H4728873   6.104   2.693   6.006 -1.3563 -0.7738 -1.5374
  204MOL    H4828874   6.108   2.878   5.990  1.0045 -1.1125  4.1662
  204MOL    H4928875   5.862   2.708   5.967  1.8465 -1.9669  2.0369
  204MOL    H5028876   5.835   2.768   6.159 -0.3684  1.6404  0.5640
  204MOL    C5128877   5.843   2.922   5.936 -0.7057 -0.0798  0.0940
  204MOL    C5228878   5.719   2.899   5.842  0.1539 -0.3856  0.6515
  204MOL    O5328879   5.609   2.864   5.925  0.0308  0.0157 -0.0440
  204MOL    H5428880   5.803   2.981   6.018  0.1953  0.9447 -0.1927
  204MOL    H5528881   5.912   2.992   5.888 -0.0634 -1.2955 -0.7741
  204MOL    H5628882   5.733   2.814   5.776 -0.4384 -1.5043  1.9639
  204MOL    H5728883   5.537   2.830   5.874  1.6649 -1.8610 -1.1288
  204MOL    C5828884   5.671   3.028   5.777  0.0125 -0.0551  0.2720
  204MOL    C5928885   5.723   3.052   5.641  0.4570  1.4663  0.0758
  204MOL    O6028886   5.655   3.165   5.584 -0.0950  0.2410 -0.0953
  204MOL    H6128887   5.563   3.042   5.776  0.2994  2.2772 -1.4552
  204MOL    H6228888   5.709   3.108   5.841 -0.6016 -0.4057  1.0888
  204MOL    H6328889   5.703   2.959   5.588  2.2241  0.6856  0.7572
  204MOL    H6428890   5.596   3.206   5.645  0.6470  0.5449  0.4326
  204MOL    C6528891   5.874   3.080   5.636  0.2269 -0.2737  0.6560
  204MOL    C6628892   5.923   3.111   5.491 -0.6768 -0.1993  0.6555
  204MOL    O6728893   6.064   3.137   5.506 -0.6219  0.1560 -0.6684
  204MOL    H6828894   5.899   3.156   5.710  0.4772 -1.0459  1.3620
  204MOL    H6928895   5.929   2.995   5.676 -0.9027 -1.5269 -0.4404
  204MOL    H7028896   5.870   3.201   5.459 -0.8172  0.3548  2.3619
  204MOL    H7128897   6.091   3.201   5.441 -0.6981  0.8487 -0.0201
  204MOL    C7228898   5.913   2.987   5.386 -0.1648  0.0094 -0.3595
  204MOL    C7328899   5.950   3.032   5.246  0.0811  0.0962  0.4966
  204MOL    O7428900   6.010   2.923   5.179 -0.7049 -1.0056 -0.5513
  204MOL    H7528901   5.986   2.910   5.411  1.3119  1.2229 -0.8082
  204MOL    H7628902   5.818   2.934   5.383 -0.1056 -0.1049 -0.2224
  204MOL    H7728903   6.043   3.089   5.252  1.2634 -1.4749 -1.8123
  204MOL    H7828904   6.098   2.911   5.210 -0.7721  0.3121  0.1665
  204MOL    C7928905   5.837   3.092   5.164 -0.2246 -0.1216  0.6930
  204MOL    C8028906   5.767   3.218   5.219 -0.7664 -0.4384 -0.3830
  204MOL    O8128907   5.868   3.308   5.253 -0.0710 -0.1989  0.0295
  204MOL    H8228908   5.874   3.115   5.064 -2.2115 -3.0140 -0.7517
  204MOL    H8328909   5.754   3.023   5.150 -0.1538  0.2188 -1.4751
  204MOL    H8428910   5.715   3.183   5.308  1.6621 -0.2816  1.1389
  204MOL    H8528911   5.833   3.380   5.304  0.2673 -0.8696  1.2313
  204MOL    C8628912   5.676   3.277   5.108 -0.1643 -0.7603 -0.3912
  204MOL    C8728913   5.581   3.402   5.146 -0.2583 -0.3764  0.1567
  204MOL    O8828914   5.544   3.471   5.029  0.0124 -0.6375 -0.2158
  204MOL    H8928915   5.732   3.311   5.020  0.5498 -0.4194  0.1843
  204MOL    H9028916   5.605   3.209   5.063  0.0351 -0.4957 -1.1141
  204MOL    H9128917   5.627   3.481   5.207 -0.0005 -0.0474 -0.4649
  204MOL    H9228918   5.573   3.418   4.957  0.9036 -0.0557 -0.3075
  204MOL    C9328919   5.455   3.354   5.222 -0.2057 -0.6555 -0.0411
  204MOL    C9428920   5.359   3.471   5.263  0.3136  0.3651  0.0736
  204MOL    O9528921   5.253   3.405   5.325  0.4951 -0.8207  0.7191
  204MOL    H9628922   5.404   3.289   5.151 -0.3962  2.4870 -2.8826
  204MOL    H9728923   5.482   3.300   5.312  1.3719 -0.7426 -0.5569
  204MOL    H9828924   5.317   3.531   5.183 -0.0979 -2.0532 -1.5506
  204MOL    H9928925   5.280   3.375   5.410 -0.0364  1.8996  1.8993
  204MOL   C10028926   5.414   3.571   5.365  0.1301 -0.4480  0.4272
  204MOL   C10128927   5.324   3.682   5.407 -0.1218 -0.2821 -0.3096
  204MOL   O10228928   5.227   3.635   5.489  0.3605 -0.8256 -0.0085
  204MOL   H10328929   5.439   3.507   5.450 -0.6631 -0.7908  0.4071
  204MOL   H10428930   5.502   3.612   5.316 -0.5865 -0.3131 -0.7893
  204MOL   H10528931   5.279   3.723   5.316  0.3490  2.1762  0.5333
  204MOL   H10628932   5.214   3.548   5.453 -1.5990 -0.7584  0.4907
  204MOL   C10728933   5.400   3.796   5.488 -0.1508 -0.1875  0.0104
  204MOL   C10828934   5.324   3.927   5.522 -0.0349 -0.5803 -0.2122
  204MOL   O10928935   5.217   3.890   5.603  0.5167 -0.3102  0.3665
  204MOL   H11028936   5.433   3.749   5.580  0.1736 -1.4581 -0.7416
  204MOL   H11128937   5.490   3.831   5.438 -0.1258  1.3240  1.0939
  204MOL   H11228938   5.303   3.970   5.424 -1.9085  1.1930  0.9232
  204MOL   H11328939   5.193   3.803   5.574  1.9225  0.0034 -1.8448
  204MOL   C11428940   5.400   4.036   5.610  0.1295 -0.4799 -1.2195
  204MOL   C11528941   5.526   4.092   5.550  0.1503  0.7033  0.0768
  204MOL   O11628942   5.490   4.177   5.435 -0.4295 -0.0018 -0.1660
  204MOL   H11728943   5.342   4.129   5.617  0.2980 -0.3545 -1.4957
  204MOL   H11828944   5.404   4.000   5.713 -1.4866 -1.8742 -1.6048
  204MOL   H11928945   5.590   4.006   5.531 -0.6673  0.3537 -1.1742
  204MOL   H12028946   5.438   4.251   5.464 -0.7046 -0.2356 -0.0529
  204MOL   C12128947   5.599   4.187   5.631 -0.1401 -0.8307  0.3667
  204MOL   C12228948   5.734   4.246   5.568 -0.0971 -0.2467  0.3187
  204MOL   O12328949   5.798   4.326   5.665  0.1314  0.6739 -0.3074
  204MOL   H12428950   5.534   4.271   5.651  0.6078  0.3508 -2.0330
  204MOL   H12528951   5.616   4.141   5.729  0.2646 -0.6519  0.3814
  204MOL   H12628952   5.711   4.304   5.479 -0.6260  3.1843  2.5944
  204MOL   H12728953   5.732   4.379   5.707  0.0532 -0.0533  0.4914
  204MOL   C12828954   5.829   4.128   5.534 -0.2165  0.1582 -0.5810
  204MOL   C12928955   5.966   4.170   5.477 -0.1909  0.5753 -0.1063
  204MOL   O13028956   6.044   4.237   5.570  0.6571 -0.3128  0.2669
  204MOL   H13128957   5.843   4.066   5.623 -0.0416 -1.1196 -1.4845
  204MOL   H13228958   5.783   4.069   5.455 -1.0108  0.3039 -0.2290
  204MOL   H13328959   5.953   4.227   5.385 -1.7242 -0.0155 -0.2630
  204MOL   H13428960   5.990   4.302   5.611 -0.2915 -0.0246 -1.3641
  204MOL   C13528961   6.058   4.053   5.449  0.3302  0.2352  0.4658
  204MOL   C13628962   6.200   4.080   5.393 -0.0519  0.3291  0.6159
  204MOL   O13728963   6.253   3.952   5.341  0.2667  0.0048  0.0265
  204MOL   H13828964   6.067   4.003   5.545  0.3369  1.9110  1.3580
  204MOL   H13928965   6.002   3.982   5.388 -0.1245  1.8584 -1.0595
  204MOL   H14028966   6.272   4.122   5.462  1.5326 -2.3949  0.6977
  204MOL   H14128967   6.257   3.902   5.420  0.3937  0.0181  0.0281
  204MOL   H14228968   6.195   4.164   5.324  1.0082  0.5219  0.7781
  205MOL     C128969   6.852   1.130   2.671 -0.5013 -0.0060 -0.1389
  205MOL     C228970   6.833   1.155   2.519 -0.2900 -0.5511 -0.5348
  205MOL     O328971   6.837   1.292   2.494 -0.1987 -0.7134  0.4729
  205MOL     H428972   6.802   1.220   2.708 -1.5303 -1.4085  1.9400
  205MOL     H528973   6.956   1.143   2.701 -0.4109  0.6325 -0.7078
  205MOL     H628974   6.731   1.129   2.491 -0.8024  1.0990 -0.2671
  205MOL     H728975   6.770   1.335   2.545  1.2175  0.3841  1.4429
  205MOL     H828976   6.806   1.043   2.716 -0.5643  1.3191  2.4300
  205MOL     C928977   6.921   1.067   2.424  0.3065 -0.3502  0.1465
  205MOL    C1028978   6.932   0.920   2.457 -0.1076  0.1640  0.7291
  205MOL    O1128979   6.799   0.859   2.468 -0.4531 -0.3858 -0.3452
  205MOL    H1228980   6.883   1.072   2.322  0.9217 -1.3002 -0.1313
  205MOL    H1328981   7.022   1.106   2.432  0.4171 -0.7349  0.6638
  205MOL    H1428982   6.979   0.908   2.554  2.8324 -0.8982 -0.7710
  205MOL    H1528983   6.774   0.836   2.380 -2.4367  0.8656 -0.1552
  205MOL    C1628984   7.010   0.839   2.346  0.3169 -0.3490  0.5569
  205MOL    C1728985   7.155   0.871   2.360  0.9784 -0.5132  0.7282
  205MOL    O1828986   7.206   0.812   2.480 -0.0916  0.1929 -0.2949
  205MOL    H1928987   6.989   0.733   2.356 -0.8085 -0.2153 -0.3160
  205MOL    H2028988   6.969   0.883   2.255  1.8426  0.4087  0.2130
  205MOL    H2128989   7.180   0.977   2.353 -1.3036 -0.0810 -1.4010
  205MOL    H2228990   7.241   0.878   2.537 -1.7096  0.0771  0.8484
  205MOL    C2328991   7.254   0.810   2.254  0.7741  0.8325  0.2870
  205MOL    C2428992   7.249   0.870   2.111  0.4753  1.0284  0.8157
  205MOL    O2528993   7.331   0.989   2.118 -0.0148  0.6368 -0.1311
  205MOL    H2628994   7.350   0.812   2.306 -0.0909 -0.2214  2.0025
  205MOL    H2728995   7.228   0.704   2.254  0.5833  0.8751 -0.8283
  205MOL    H2828996   7.145   0.890   2.086 -0.7932 -0.9350  4.1388
  205MOL    H2928997   7.276   1.056   2.154 -0.4288  0.2941 -0.1231
  205MOL    C3028998   7.324   0.776   2.011 -0.6555 -0.4328  0.2666
  205MOL    C3128999   7.335   0.812   1.863  0.3166  0.1794  0.0775
  205MOL    O3229000   7.414   0.930   1.859  0.2386  0.1608  0.3141
  205MOL    H3329001   7.429   0.779   2.041 -1.0443  1.4731  1.5028
  205MOL    H3429002   7.299   0.672   2.033 -1.0432  0.0781  2.4078
  205MOL    H3529003   7.238   0.846   1.827  0.3877  1.6176  1.2150
  205MOL    H3629004   7.390   0.984   1.933  0.7472 -0.6736  1.1092
  205MOL    C3729005   7.393   0.695   1.779  0.2944 -0.1740  0.2198
  205MOL    C3829006   7.302   0.634   1.670  0.3164  0.0577  0.1068
  205MOL    O3929007   7.277   0.721   1.555  0.1859  0.2094  0.2559
  205MOL    H4029008   7.487   0.724   1.733 -0.0781  0.4261 -0.1717
  205MOL    H4129009   7.430   0.616   1.843 -0.5728 -1.8033 -1.2388
  205MOL    H4229010   7.201   0.616   1.707  0.2356 -0.2663 -0.2602
  205MOL    H4329011   7.186   0.747   1.555 -0.1557 -0.9695  0.2587
  205MOL    C4429012   7.357   0.502   1.624  0.4918  0.3800 -0.1692
  205MOL    C4529013   7.288   0.421   1.502 -0.3684 -0.5366 -0.5270
  205MOL    O4629014   7.377   0.312   1.463  0.0310  0.1263 -0.1878
  205MOL    H4729015   7.459   0.514   1.586  0.2956 -0.5437 -1.0224
  205MOL    H4829016   7.363   0.434   1.710 -1.2388  0.6502  0.1766
  205MOL    H4929017   7.295   0.479   1.409  2.1874 -1.4624 -0.9497
  205MOL    H5029018   7.367   0.298   1.370  0.1899 -2.1474  0.0955
  205MOL    C5129019   7.150   0.366   1.539 -0.5340  0.0986  0.1781
  205MOL    C5229020   7.048   0.352   1.425  0.2035  0.1942  0.4688
  205MOL    O5329021   6.943   0.273   1.477 -0.5095  0.4760 -0.0167
  205MOL    H5429022   7.166   0.273   1.594 -0.2087  0.7883  1.2619
  205MOL    H5529023   7.110   0.415   1.628  1.5349  0.6213  0.8676
  205MOL    H5629024   7.090   0.303   1.338 -1.5758 -1.6834  0.6381
  205MOL    H5729025   6.976   0.185   1.472 -0.0786  0.5187  1.5846
  205MOL    C5829026   7.001   0.495   1.397  0.3896 -0.0716 -0.1924
  205MOL    C5929027   6.885   0.512   1.299 -0.0342  0.2204 -0.1141
  205MOL    O6029028   6.776   0.474   1.378  0.2787 -0.0497  0.4319
  205MOL    H6129029   6.969   0.539   1.492  0.1044 -1.4998  0.3894
  205MOL    H6229030   7.087   0.551   1.360  0.1928 -1.1306 -2.3040
  205MOL    H6329031   6.895   0.454   1.208  0.5133 -0.7433  0.5430
  205MOL    H6429032   6.805   0.400   1.430 -0.6440 -0.4724  0.3645
  205MOL    C6529033   6.865   0.660   1.259 -0.1529  0.2534  0.7065
  205MOL    C6629034   6.739   0.681   1.171 -0.0091  0.3218 -0.0247
  205MOL    O6729035   6.615   0.664   1.243  0.3096  0.3930  0.0065
  205MOL    H6829036   6.860   0.726   1.346 -1.3449  1.1285 -0.0067
  205MOL    H6929037   6.958   0.686   1.208  0.3406 -1.0757  0.9215
  205MOL    H7029038   6.742   0.615   1.084  1.4717  0.8677 -0.3951
  205MOL    H7129039   6.628   0.604   1.314 -1.8917 -1.9499 -1.4828
  205MOL    C7229040   6.743   0.824   1.123 -0.6496  0.1535 -0.6040
  205MOL    C7329041   6.836   0.839   1.006 -0.4355  0.4858 -0.1100
  205MOL    O7429042   6.760   0.871   0.890 -0.2521  0.3947  0.5988
  205MOL    H7529043   6.647   0.861   1.086 -1.1026  0.2587  0.6815
  205MOL    H7629044   6.767   0.894   1.202 -1.3670 -0.9560  0.6250
  205MOL    H7729045   6.890   0.747   0.981 -2.1898  0.2524 -3.3133
  205MOL    H7829046   6.745   0.790   0.845  0.2030  0.8328 -0.3542
  205MOL    C7929047   6.934   0.960   1.021  1.0152  0.2730  0.0066
  205MOL    C8029048   7.059   0.944   1.113 -0.3549  0.4344 -0.0399
  205MOL    O8129049   7.156   1.031   1.065  0.0634 -0.1027  0.5223
  205MOL    H8229050   6.963   0.999   0.923  2.0902 -1.1734 -0.2593
  205MOL    H8329051   6.881   1.046   1.062 -1.2586 -1.3530  0.5317
  205MOL    H8429052   7.096   0.842   1.103  0.0075  0.6086 -0.4696
  205MOL    H8529053   7.227   1.034   1.128  1.8094 -2.6834 -1.2125
  205MOL    C8629054   7.027   0.997   1.255 -0.2185 -0.6763 -0.4234
  205MOL    C8729055   7.141   0.977   1.357 -0.2797 -0.0897 -0.8867
  205MOL    O8829056   7.257   1.049   1.320 -0.4824 -0.0605 -0.3505
  205MOL    H8929057   6.997   1.102   1.246 -2.0175 -1.0281  1.2289
  205MOL    H9029058   6.940   0.948   1.299  0.3833 -0.5182  0.9538
  205MOL    H9129059   7.158   0.870   1.363  0.0622  0.0104 -0.0789
  205MOL    H9229060   7.330   0.997   1.350 -0.6989 -1.0971 -1.6034
  205MOL    C9329061   7.101   1.033   1.497  0.5102 -0.2605  0.7667
  205MOL    C9429062   6.987   0.960   1.567 -0.4582 -0.1999 -0.5580
  205MOL    O9529063   7.009   0.823   1.576  0.6029 -0.0334 -0.0759
  205MOL    H9629064   7.182   1.031   1.569  0.3895  0.5151  0.9195
  205MOL    H9729065   7.084   1.140   1.484  1.4864 -0.3867 -1.9381
  205MOL    H9829066   6.890   0.969   1.517 -0.9890  0.6275  0.5855
  205MOL    H9929067   6.943   0.778   1.626  1.5940  0.7846  2.0217
  205MOL   C10029068   6.965   1.007   1.713  0.9622  0.2523 -0.0730
  205MOL   C10129069   6.914   1.151   1.724  0.3338  0.4131 -0.2826
  205MOL   O10229070   6.775   1.144   1.711  0.1554 -0.2842  0.3843
  205MOL   H10329071   6.897   0.938   1.762 -0.9160  1.8805 -0.3180
  205MOL   H10429072   7.068   1.004   1.749  1.9804  1.9889 -2.6887
  205MOL   H10529073   6.932   1.212   1.635  1.8721  2.5001  1.3946
  205MOL   H10629074   6.754   1.236   1.722  1.5342  0.0631  0.2367
  205MOL   C10729075   6.943   1.215   1.861 -0.2041  0.4763  0.0157
  205MOL   C10829076   7.093   1.230   1.896  0.6272 -0.3685 -0.5286
  205MOL   O10929077   7.143   1.292   1.776  0.3795 -0.6610  0.1084
  205MOL   H11029078   6.906   1.315   1.883 -0.2333  0.3117  0.7120
  205MOL   H11129079   6.892   1.149   1.931 -0.8333  1.9840  1.0029
  205MOL   H11229080   7.138   1.132   1.917 -2.0073 -1.6859 -0.9038
  205MOL   H11329081   7.237   1.288   1.779  0.5301  0.6798 -1.9227
  205MOL   C11429082   7.136   1.327   2.006  0.6672 -0.1119 -0.2663
  205MOL   C11529083   7.078   1.284   2.140  0.0808 -0.1607 -0.5817
  205MOL   O11629084   7.161   1.184   2.193  0.1693 -0.0097 -0.0879
  205MOL   H11729085   7.245   1.330   2.016  0.6245  1.2594 -0.0591
  205MOL   H11829086   7.115   1.432   1.985  0.5156  0.2646  1.6068
  205MOL   H11929087   6.976   1.249   2.128 -1.0681  2.4638  1.0120
  205MOL   H12029088   7.230   1.224   2.243  0.7084  0.0725 -0.8926
  205MOL   C12129089   7.072   1.398   2.239 -0.1478 -0.4676  0.7141
  205MOL   C12229090   6.950   1.487   2.209  0.0973  0.0117  0.1742
  205MOL   O12329091   6.837   1.412   2.238  0.3624 -0.2216  0.0782
  205MOL   H12429092   7.060   1.359   2.340 -0.6438  2.2119  1.7325
  205MOL   H12529093   7.165   1.455   2.235 -0.6220  0.3394  1.0906
  205MOL   H12629094   6.942   1.519   2.105  0.9201 -0.7456 -0.1242
  205MOL   H12729095   6.853   1.366   2.319 -0.3213 -1.0643 -0.2454
  205MOL   C12829096   6.948   1.613   2.288 -0.3652  0.4332 -0.2546
  205MOL   C12929097   6.835   1.721   2.278 -0.4188  0.1088 -1.2790
  205MOL   O13029098   6.875   1.841   2.356 -0.2470  0.2254  0.5008
  205MOL   H13129099   6.950   1.581   2.392  2.0494  2.2491  0.3031
  205MOL   H13229100   7.049   1.650   2.270  0.6405 -2.2026 -0.2900
  205MOL   H13329101   6.753   1.678   2.336  0.1800 -0.0243 -0.5149
  205MOL   H13429102   6.949   1.820   2.410  1.1604  0.7900 -1.1698
  205MOL   C13529103   6.782   1.763   2.140 -0.4885 -0.2313  0.0225
  205MOL   C13629104   6.667   1.864   2.148 -0.1893  0.0561 -0.3808
  205MOL   O13729105   6.630   1.902   2.025  0.2222 -0.2107  0.4650
  205MOL   H13829106   6.869   1.805   2.090 -1.2435  1.0750 -0.2257
  205MOL   H13929107   6.758   1.675   2.081  2.8283 -0.1849 -1.5289
  205MOL   H14029108   6.695   1.955   2.202 -1.5728 -0.0382  0.5271
  205MOL   H14129109   6.704   1.959   2.015 -0.2935  0.2986 -0.5652
  205MOL   H14229110   6.589   1.813   2.204 -0.7294 -0.9119 -1.9587
  206MOL     C129111   6.883   6.347   4.112  0.0107 -0.2381  0.7365
  206MOL     C229112   7.034   6.343   4.078  0.2383 -0.0443 -0.0716
  206MOL     O329113   7.044   6.381   3.943 -0.3736 -0.4320  0.0414
  206MOL     H429114   6.839   6.275   4.044  0.4591  0.5325 -0.3843
  206MOL     H529115   6.839   6.446   4.098  1.1351 -0.1308 -2.3492
  206MOL     H629116   7.058   6.237   4.089 -0.7318 -0.1899  0.7062
  206MOL     H729117   7.011   6.308   3.892  0.2648 -0.4941 -0.2854
  206MOL     H829118   6.867   6.318   4.216  2.3119  0.9514  1.4549
  206MOL     C929119   7.130   6.419   4.167  0.6303  0.0437 -0.4532
  206MOL    C1029120   7.279   6.425   4.116  0.2638 -0.0132 -0.3312
  206MOL    O1129121   7.338   6.503   4.217 -0.4909 -0.2022  0.3516
  206MOL    H1229122   7.090   6.520   4.180  0.6720 -0.4198  3.8608
  206MOL    H1329123   7.119   6.368   4.262 -0.4829  3.4755  1.3610
  206MOL    H1429124   7.273   6.476   4.020 -0.9192 -0.3998 -0.4662
  206MOL    H1529125   7.318   6.465   4.301 -0.5749 -0.6707  0.1220
  206MOL    C1629126   7.347   6.290   4.126  0.8475 -0.4914 -0.0444
  206MOL    C1729127   7.488   6.295   4.087  0.0881  0.1563 -0.2873
  206MOL    O1829128   0.025   6.171   4.117  0.1520  0.2074 -0.3101
  206MOL    H1929129   7.327   6.256   4.228  0.1193 -0.1923 -0.0810
  206MOL    H2029130   7.291   6.223   4.061  0.9322 -1.1724  0.5822
  206MOL    H2129131   0.014   6.365   4.158  0.2033 -0.0727 -0.1371
  206MOL    H2229132   0.057   6.177   4.206 -0.9143  0.5373  0.0612
  206MOL    C2329133   7.510   6.347   3.941  0.3666 -0.2745  0.7759
  206MOL    C2429134   0.137   6.362   3.918  0.0842 -0.1078  0.0716
  206MOL    O2529135   0.156   6.378   3.782  0.0591 -0.2057 -0.0809
  206MOL    H2629136   7.465   6.288   3.861  0.5565 -1.4185  1.5033
  206MOL    H2729137   7.453   6.439   3.927 -0.3138 -0.6439  1.0495
  206MOL    H2829138   0.186   6.269   3.948 -0.0284  0.0848  0.8721
  206MOL    H2929139   0.126   6.305   3.729  0.4456 -1.4321  1.3668
  206MOL    C3029140   0.197   6.488   3.983  0.5424 -0.3719  0.0944
  206MOL    C3129141   0.357   6.470   3.987  0.1064  0.0002  0.5969
  206MOL    O3229142   0.411   6.596   3.962 -0.0501 -0.3375 -0.3003
  206MOL    H3329143   0.149   6.573   3.935 -0.0599  0.8880  2.8198
  206MOL    H3429144   0.175   6.493   4.089 -1.8947  2.6481 -0.4927
  206MOL    H3529145   0.392   6.398   3.912  0.8702 -0.8755  1.7822
  206MOL    H3629146   0.353   6.647   3.907  0.6132  1.2712  0.4589
  206MOL    C3729147   0.422   6.421   4.118  0.2773 -0.3956  0.0361
  206MOL    C3829148   0.404   6.271   4.154 -0.9702  0.2656 -0.1686
  206MOL    O3929149   0.439   6.188   4.046  0.3084  0.2187  0.1604
  206MOL    H4029150   0.529   6.439   4.135 -0.0070  1.0717  0.3023
  206MOL    H4129151   0.363   6.476   4.192 -0.0648 -0.6824 -0.0213
  206MOL    H4229152   0.302   6.251   4.186 -1.0488  0.4447 -0.3091
  206MOL    H4329153   0.532   6.182   4.030  0.1212 -0.6656 -0.6202
  206MOL    C4429154   0.492   6.229   4.278 -0.1487 -0.0064  0.3805
  206MOL    C4529155   0.411   6.132   4.377 -0.1742 -0.2882 -0.1845
  206MOL    O4629156   0.510   6.051   4.433  0.0495 -0.1794 -0.4560
  206MOL    H4729157   0.578   6.178   4.236 -2.7077 -2.1369 -2.4351
  206MOL    H4829158   0.529   6.319   4.328 -1.8219  1.6511 -1.2968
  206MOL    H4929159   0.342   6.070   4.321  1.1355 -2.5735  0.6674
  206MOL    H5029160   0.464   5.976   4.467  1.0123 -1.2593 -1.4840
  206MOL    C5129161   0.337   6.202   4.492  0.4398 -0.5652  0.2494
  206MOL    C5229162   0.213   6.277   4.456 -0.1993 -0.0760  0.0934
  206MOL    O5329163   0.132   6.200   4.372 -0.1719 -0.3239 -0.6207
  206MOL    H5429164   0.309   6.125   4.564 -1.8815  0.5351  0.5701
  206MOL    H5529165   0.410   6.264   4.544 -0.3632  0.3876  0.2422
  206MOL    H5629166   0.250   6.360   4.394  0.9665 -1.2485 -0.8176
  206MOL    H5729167   0.111   6.117   4.413 -1.8883  0.3356 -0.1124
  206MOL    C5829168   0.127   6.337   4.578 -0.5056  0.4191 -0.4028
  206MOL    C5929169   0.202   6.419   4.685 -0.0820 -0.3988 -0.0460
  206MOL    O6029170   0.263   6.335   4.775 -0.4636 -0.2986  0.1201
  206MOL    H6129171   0.041   6.392   4.541 -2.5329 -3.1220 -1.2338
  206MOL    H6229172   0.089   6.247   4.627  0.5504  1.1453  1.8316
  206MOL    H6329173   0.137   6.468   4.756 -0.1648  0.7979 -0.9311
  206MOL    H6429174   0.203   6.272   4.814 -0.0883 -0.1900  0.8870
  206MOL    C6529175   0.289   6.536   4.632 -0.1481 -0.1070  0.2615
  206MOL    C6629176   0.338   6.630   4.744  0.0201 -0.0346 -0.8513
  206MOL    O6729177   0.443   6.711   4.701 -0.2587  0.0626 -0.2093
  206MOL    H6829178   0.366   6.485   4.575 -0.6408  0.7706 -1.2124
  206MOL    H6929179   0.235   6.595   4.558  2.1505 -0.6748 -1.9340
  206MOL    H7029180   0.378   6.575   4.829 -0.2930 -0.7266 -1.1495
  206MOL    H7129181   0.520   6.657   4.689 -0.4329 -0.5797  1.3628
  206MOL    C7229182   0.234   6.737   4.774 -0.1328 -0.2575  0.8213
  206MOL    C7329183   0.205   6.767   4.923  0.3763 -0.4421  0.2460
  206MOL    O7429184   0.119   6.881   4.942  0.6367  0.7703 -0.2746
  206MOL    H7529185   0.256   6.837   4.737 -4.3808  0.9523  1.3803
  206MOL    H7629186   0.140   6.712   4.726 -0.7094  2.1858  0.6207
  206MOL    H7729187   0.307   6.789   4.956 -0.1044  2.0487  0.1792
  206MOL    H7829188   0.155   6.937   5.008 -0.1145 -0.0190  0.8235
  206MOL    C7929189   0.140   6.650   4.995  0.4497 -0.0885 -0.1837
  206MOL    C8029190   0.153   6.648   5.152  0.1884 -0.0609  0.0541
  206MOL    O8129191   0.024   6.683   5.205 -1.3953  0.3841 -0.2032
  206MOL    H8229192   0.036   6.638   4.967  0.3615  1.7546 -0.7000
  206MOL    H8329193   0.180   6.560   4.947 -2.3441 -0.6393 -1.5957
  206MOL    H8429194   0.219   6.721   5.199 -1.3328 -0.1123  2.3411
  206MOL    H8529195   7.481   6.629   5.161 -1.2186 -0.2896  0.3557
  206MOL    C8629196   0.188   6.511   5.212 -0.3174  0.1208 -0.1208
  206MOL    C8729197   0.322   6.452   5.167 -0.4763 -0.4579 -0.0478
  206MOL    O8829198   0.426   6.538   5.204  0.2633 -0.0343  0.2514
  206MOL    H8929199   0.196   6.529   5.319  1.6829 -1.1899 -0.0239
  206MOL    H9029200   0.104   6.443   5.193  0.8501 -0.7818 -2.1944
  206MOL    H9129201   0.343   6.447   5.060  2.8335 -2.6379  0.6344
  206MOL    H9229202   0.505   6.497   5.172  0.0383  0.6406 -1.1789
  206MOL    C9329203   0.343   6.313   5.230 -0.7655 -0.5250 -0.7380
  206MOL    C9429204   0.467   6.230   5.183 -0.3130 -0.1792  0.2204
  206MOL    O9529205   0.465   6.101   5.238  0.4888 -0.1574  0.5801
  206MOL    H9629206   0.343   6.322   5.338  2.6773  0.1379 -0.7257
  206MOL    H9729207   0.250   6.266   5.199 -1.0395 -1.5972  1.6076
  206MOL    H9829208   0.558   6.277   5.219  0.1559 -0.1943 -0.9455
  206MOL    H9929209   0.415   6.091   5.317 -0.1052 -0.8698  0.1185
  206MOL   C10029210   0.497   6.217   5.032  0.3600 -0.3536 -0.1360
  206MOL   C10129211   0.616   6.132   4.993  0.4663  0.3154 -0.1870
  206MOL   O10229212   0.593   6.000   5.041  0.5738  0.0581  0.8547
  206MOL   H10329213   0.406   6.181   4.984  0.6201 -2.0506  0.6255
  206MOL   H10429214   0.511   6.314   4.983  1.4758  0.1979  1.2514
  206MOL   H10529215   0.704   6.179   5.037  1.2492 -2.2051  1.0641
  206MOL   H10629216   0.567   6.021   5.129  0.9526  0.2895  0.9119
  206MOL   C10729217   0.637   6.101   4.843  1.0762  0.0441 -0.2737
  206MOL   C10829218   0.717   6.200   4.756 -0.2323  0.0220 -0.5325
  206MOL   O10929219   0.718   6.140   4.629  0.4034 -0.2435  0.3983
  206MOL   H11029220   0.680   6.002   4.832 -1.7305 -1.2857  0.2202
  206MOL   H11129221   0.538   6.072   4.807  1.3109  3.3391 -3.8779
  206MOL   H11229222   0.820   6.197   4.791  0.1929  0.4122 -1.7336
  206MOL   H11329223   0.630   6.110   4.613  0.5999  0.0620 -1.3431
  206MOL   C11429224   0.658   6.345   4.741 -0.0898 -0.4445  0.4018
  206MOL   C11529225   0.725   6.433   4.643 -0.8372 -0.1202  0.0216
  206MOL   O11629226   0.663   6.559   4.642 -0.2586 -0.2566 -0.7187
  206MOL   H11729227   0.552   6.345   4.718 -0.0213  0.4735  0.0855
  206MOL   H11829228   0.668   6.381   4.843 -0.9604 -0.3576  0.4597
  206MOL   H11929229   0.711   6.386   4.545 -2.7626  1.0465 -0.2958
  206MOL   H12029230   0.681   6.606   4.561  1.3598  1.8100  0.7708
  206MOL   C12129231   0.880   6.440   4.645  0.0491  0.5462 -0.3822
  206MOL   C12229232   0.951   6.494   4.523 -0.1956 -0.0622 -0.2074
  206MOL   O12329233   1.084   6.538   4.559  0.1235  0.2264  0.3208
  206MOL   H12429234   0.910   6.510   4.723 -1.7276  1.3405 -0.4139
  206MOL   H12529235   0.919   6.342   4.675 -2.6835 -0.6227 -0.4885
  206MOL   H12629236   0.901   6.587   4.496  1.7236  1.1911  0.4425
  206MOL   H12729237   1.123   6.589   4.490 -0.7777  1.1906  0.5166
  206MOL   C12829238   0.958   6.387   4.411  0.6323 -0.0121  0.0724
  206MOL   C12929239   0.866   6.404   4.286 -0.1990  0.5519 -0.6206
  206MOL   O13029240   0.888   6.532   4.235 -0.2869 -0.7360 -0.4803
  206MOL   H13129241   1.058   6.384   4.366  1.4153  0.3338  1.7497
  206MOL   H13229242   0.954   6.285   4.451  1.3375  0.0101  0.2099
  206MOL   H13329243   0.769   6.390   4.334  1.0496  1.7477  2.3192
  206MOL   H13429244   0.965   6.529   4.180 -0.3444 -1.3057 -0.5392
  206MOL   C13529245   0.884   6.295   4.179  0.1552 -0.8204 -0.2119
  206MOL   C13629246   0.806   6.320   4.052 -0.2560 -0.3868  0.2923
  206MOL   O13729247   0.768   6.205   3.981  0.2761 -0.8253 -0.4021
  206MOL   H13829248   0.989   6.278   4.154 -0.3168 -2.5948 -1.0397
  206MOL   H13929249   0.847   6.200   4.217 -0.8765 -0.5780 -0.5899
  206MOL   H14029250   0.834   6.389   3.972  0.2385 -1.4978 -0.5063
  206MOL   H14129251   0.808   6.195   3.896 -0.7198 -1.0812 -0.8507
  206MOL   H14229252   0.709   6.356   4.085  0.5753  0.3224  2.0274
  207MOL     C129253   2.316   7.035   6.135 -0.2987 -0.2683 -0.4187
  207MOL     C229254   2.209   6.936   6.183  0.4133  0.0121 -0.5836
  207MOL     O329255   2.110   7.021   6.237  0.0091  0.3513  0.0279
  207MOL     H429256   2.350   7.082   6.228  0.2039  1.0553 -1.2549
  207MOL     H529257   2.280   7.111   6.065 -0.5239  1.2895  1.3377
  207MOL     H629258   2.251   6.866   6.255 -1.9728 -1.4015 -0.4957
  207MOL     H729259   2.070   7.070   6.168 -0.8731 -0.3351  0.0434
  207MOL     H829260   2.403   6.983   6.096 -2.4113 -3.6698 -0.8224
  207MOL     C929261   2.157   6.854   6.068 -0.1632  0.4797 -0.0979
  207MOL    C1029262   2.036   6.759   6.089  0.1969  0.3837  0.0692
  207MOL    O1129263   1.987   6.732   5.959 -0.4622 -0.7461 -0.3903
  207MOL    H1229264   2.125   6.914   5.983 -0.3517 -0.1158 -0.4553
  207MOL    H1329265   2.238   6.791   6.030  1.4407  2.0365  0.7176
  207MOL    H1429266   1.955   6.825   6.121 -1.1331 -0.2904 -1.7732
  207MOL    H1529267   1.951   6.812   5.925  2.3940 -0.2051 -2.3230
  207MOL    C1629268   2.046   6.633   6.177  0.0925 -0.0188  0.0640
  207MOL    C1729269   1.916   6.551   6.187  0.1761 -1.0964  0.2037
  207MOL    O1829270   1.882   6.501   6.060  0.3343 -0.2283  0.3348
  207MOL    H1929271   2.133   6.579   6.138 -0.7454 -1.0586 -0.3819
  207MOL    H2029272   2.072   6.679   6.273  2.6355 -0.0856 -0.5513
  207MOL    H2129273   1.834   6.612   6.223  0.2971  0.4870 -2.1193
  207MOL    H2229274   1.918   6.562   5.997  0.6386  0.7225  1.4255
  207MOL    C2329275   1.933   6.436   6.288 -0.2103  0.7143  0.1207
  207MOL    C2429276   1.799   6.370   6.325  0.1589 -0.2823 -0.0072
  207MOL    O2529277   1.745   6.311   6.212  0.4237  0.7572 -0.2443
  207MOL    H2629278   2.013   6.371   6.254  0.4198  1.5733 -0.0662
  207MOL    H2729279   1.983   6.485   6.372  0.5542 -0.4744  0.3632
  207MOL    H2829280   1.729   6.443   6.367  0.9456  0.8493 -0.6494
  207MOL    H2929281   1.773   6.357   6.134 -2.7405 -2.1254 -3.2326
  207MOL    C3029282   1.823   6.267   6.442 -0.1061  0.6785  0.4233
  207MOL    C3129283   1.694   6.184   6.480 -0.1598 -0.5469  0.0069
  207MOL    O3229284   1.729   6.065   6.543 -0.2395 -0.0997  0.0608
  207MOL    H3329285   1.888   6.188   6.403  1.2793  1.6138  0.8105
  207MOL    H3429286   1.878   6.301   6.530 -1.1557  0.1281  1.3007
  207MOL    H3529287   1.639   6.149   6.392  1.0584  1.6453 -1.6842
  207MOL    H3629288   1.790   6.086   6.612  0.7528  0.0590 -0.8502
  207MOL    C3729289   1.595   6.257   6.571 -0.2653 -0.0106 -0.2677
  207MOL    C3829290   1.446   6.191   6.587  0.3383  0.3071 -0.5197
  207MOL    O3929291   1.345   6.286   6.629  0.0102 -0.3181 -0.4067
  207MOL    H4029292   1.633   6.281   6.670  0.0962  0.6496 -0.5656
  207MOL    H4129293   1.571   6.349   6.518  0.0938  1.2476  1.6950
  207MOL    H4229294   1.462   6.110   6.659  1.1099  0.8765 -0.0388
  207MOL    H4329295   1.338   6.342   6.553 -0.0421 -1.9643 -1.6536
  207MOL    C4429296   1.380   6.132   6.459 -0.5049 -0.2602  0.1571
  207MOL    C4529297   1.410   5.984   6.429  0.0452 -0.2609 -0.7563
  207MOL    O4629298   1.341   5.889   6.508 -0.4710  0.0734 -0.3542
  207MOL    H4729299   1.272   6.139   6.472 -0.3706  1.0705  0.7323
  207MOL    H4829300   1.401   6.198   6.375 -1.0286  0.7640  0.8169
  207MOL    H4929301   1.514   5.960   6.453 -0.3002  0.6134  1.7853
  207MOL    H5029302   1.247   5.892   6.492 -0.5027  1.6029  0.0717
  207MOL    C5129303   1.402   5.947   6.283 -0.0781 -0.4560 -0.1121
  207MOL    C5229304   1.462   5.807   6.245  0.4546 -0.2835  0.4071
  207MOL    O5329305   1.365   5.718   6.286 -0.6319  0.4079  0.4348
  207MOL    H5429306   1.297   5.945   6.255  0.7722 -2.1031 -3.4179
  207MOL    H5529307   1.454   6.026   6.229  0.1229 -0.4864  0.0336
  207MOL    H5629308   1.560   5.796   6.291  0.4209  0.8893  0.7774
  207MOL    H5729309   1.366   5.702   6.379 -1.4991 -2.5118 -0.0250
  207MOL    C5829310   1.476   5.791   6.091 -0.2536  0.1021 -0.0616
  207MOL    C5929311   1.586   5.877   6.030 -0.6892  1.1423 -0.2565
  207MOL    O6029312   1.712   5.823   6.062  0.3212  0.1646  0.2814
  207MOL    H6129313   1.495   5.685   6.072 -1.0868 -0.0131 -0.2608
  207MOL    H6229314   1.380   5.807   6.042  1.2608  1.0933 -2.8735
  207MOL    H6329315   1.578   5.980   6.067 -1.1500  0.6865  0.9360
  207MOL    H6429316   1.781   5.855   6.005  0.7818  0.9627  1.2754
  207MOL    C6529317   1.580   5.885   5.880 -0.6607 -0.0451  0.2378
  207MOL    C6629318   1.667   6.004   5.822 -0.4112  0.2265  0.1272
  207MOL    O6729319   1.797   5.961   5.833 -0.2945  0.0187 -0.3550
  207MOL    H6829320   1.613   5.796   5.826 -0.2681  0.5157 -0.4511
  207MOL    H6929321   1.477   5.907   5.851  0.4250  0.2691 -3.7137
  207MOL    H7029322   1.655   6.098   5.876  1.2455  0.2814  0.4116
  207MOL    H7129323   1.855   6.028   5.800  2.1410 -1.6137  0.5330
  207MOL    C7229324   1.643   6.036   5.677 -0.5863  0.3046  0.0302
  207MOL    C7329325   1.495   6.070   5.634  0.0344  0.1129  0.1817
  207MOL    O7429326   1.447   6.164   5.729  0.4428 -0.7732  0.4169
  207MOL    H7529327   1.714   6.106   5.634  0.9359 -1.2299 -0.0404
  207MOL    H7629328   1.672   5.944   5.624  0.9896  0.6644  0.2530
  207MOL    H7729329   1.435   5.979   5.640 -0.8943  0.7430  0.4925
  207MOL    H7829330   1.511   6.230   5.748  0.3788 -0.3179 -0.9041
  207MOL    C7929331   1.484   6.125   5.489  0.0525  0.0568  0.1670
  207MOL    C8029332   1.513   6.020   5.376 -0.0290 -0.3500  0.9666
  207MOL    O8129333   1.390   5.955   5.362 -0.4865 -0.4844 -0.9941
  207MOL    H8229334   1.384   6.165   5.470  1.1758  2.5693 -0.7005
  207MOL    H8329335   1.541   6.217   5.478 -0.6490  0.5757  0.8845
  207MOL    H8429336   1.593   5.955   5.414 -0.0613 -0.3187  1.0862
  207MOL    H8529337   1.333   6.019   5.321  0.6651  0.2957 -1.3985
  207MOL    C8629338   1.571   6.077   5.247  1.0255 -0.1923 -0.7023
  207MOL    C8729339   1.727   6.097   5.239 -0.0430  0.4031 -0.1061
  207MOL    O8829340   1.789   5.969   5.210 -0.2143 -0.1626  0.4470
  207MOL    H8929341   1.537   6.020   5.160 -1.7609 -0.3442  0.4426
  207MOL    H9029342   1.527   6.177   5.245 -2.2382 -1.4889  1.6454
  207MOL    H9129343   1.749   6.116   5.344  0.1514 -2.8499  0.4870
  207MOL    H9229344   1.769   5.938   5.122 -1.4836  0.1237  0.6226
  207MOL    C9329345   1.771   6.214   5.145  0.4434  0.6518 -0.0742
  207MOL    C9429346   1.801   6.342   5.223  0.1864 -1.0562  0.3671
  207MOL    O9529347   1.939   6.354   5.252 -0.1407  0.2841 -0.0640
  207MOL    H9629348   1.859   6.197   5.083 -1.4682 -0.1799 -2.5968
  207MOL    H9729349   1.685   6.236   5.083  0.9709  0.5380 -0.8596
  207MOL    H9829350   1.753   6.349   5.320  2.2129  1.3026  1.2752
  207MOL    H9929351   1.938   6.407   5.330  0.6708  2.4095 -1.4456
  207MOL   C10029352   1.759   6.473   5.149  0.4816  0.5390  0.2323
  207MOL   C10129353   1.608   6.503   5.150 -0.4549  1.3435 -0.0275
  207MOL   O10229354   1.575   6.543   5.280 -0.1384  0.3101 -0.1073
  207MOL   H10329355   1.807   6.559   5.195 -0.0194  1.2263 -0.5129
  207MOL   H10429356   1.794   6.467   5.046 -1.0540 -1.0717 -0.2272
  207MOL   H10529357   1.559   6.408   5.131  1.5778  0.1236  0.7019
  207MOL   H10629358   1.484   6.519   5.287 -0.6379  0.8792 -3.6780
  207MOL   C10729359   1.564   6.605   5.043 -0.1322  0.5416 -0.0046
  207MOL   C10829360   1.418   6.598   4.991 -0.9182  0.0872 -0.3457
  207MOL   O10929361   1.389   6.719   4.916  0.7092  0.1002  0.5923
  207MOL   H11029362   1.577   6.710   5.069  0.5206  0.7674 -1.1658
  207MOL   H11129363   1.625   6.597   4.952 -0.5572 -3.3133 -0.0332
  207MOL   H11229364   1.344   6.605   5.071 -0.0464 -0.0338  0.4851
  207MOL   H11329365   1.407   6.698   4.826  2.3433 -1.5738  1.2581
  207MOL   C11429366   1.389   6.484   4.893 -0.4593 -0.0051 -0.1890
  207MOL   C11529367   1.237   6.448   4.886  0.2501 -0.1207 -0.0362
  207MOL   O11629368   1.227   6.380   4.763  0.3623 -0.3676 -0.4157
  207MOL   H11729369   1.437   6.500   4.796  3.2863 -1.4988  1.3142
  207MOL   H11829370   1.436   6.397   4.938 -0.8344 -0.1372 -0.0482
  207MOL   H11929371   1.179   6.539   4.867 -2.2873 -1.7992 -0.6041
  207MOL   H12029372   1.176   6.432   4.702 -2.2166 -2.3012  0.0027
  207MOL   C12129373   1.181   6.361   4.999 -0.2942 -0.1002  0.9233
  207MOL   C12229374   1.072   6.435   5.071 -0.0227  0.0083 -0.3360
  207MOL   O12329375   0.943   6.417   5.016  0.0837 -0.5365 -0.1349
  207MOL   H12429376   1.154   6.260   4.968 -2.1617  1.2605 -2.0916
  207MOL   H12529377   1.273   6.336   5.052  0.1304 -0.4941  0.0268
  207MOL   H12629378   1.088   6.543   5.068  0.6698 -0.1465 -2.6082
  207MOL   H12729379   0.890   6.489   5.045 -0.1850 -1.5528  2.0052
  207MOL   C12829380   1.060   6.393   5.222  0.5246 -1.1077 -0.1702
  207MOL   C12929381   1.189   6.416   5.300 -0.3646 -0.3447  0.4802
  207MOL   O13029382   1.243   6.545   5.294 -0.3468 -0.0917 -0.7075
  207MOL   H13129383   0.978   6.455   5.259  1.1380  0.2706 -1.0775
  207MOL   H13229384   1.023   6.291   5.234 -3.1037  0.3025  1.5121
  207MOL   H13329385   1.270   6.349   5.270 -1.4219 -1.2640 -0.4222
  207MOL   H13429386   1.178   6.610   5.316  0.5930  0.0175  1.9827
  207MOL   C13529387   1.159   6.384   5.451 -0.4032  0.1380  0.4938
  207MOL   C13629388   1.273   6.419   5.565  0.0100  0.0387  0.3316
  207MOL   O13729389   1.231   6.365   5.686  0.2005  0.1958  0.1953
  207MOL   H13829390   1.072   6.446   5.475  0.2286  0.6211  1.5747
  207MOL   H13929391   1.125   6.281   5.453 -1.5097  0.4483 -1.2155
  207MOL   H14029392   1.283   6.527   5.572 -3.0025  0.3191  1.0139
  207MOL   H14129393   1.239   6.272   5.678  1.6646  0.3019  0.2595
  207MOL   H14229394   1.374   6.383   5.546 -0.1537 -1.5228  2.2717
  208MOL     C129395   6.346   0.029   4.430 -0.1820 -0.1634 -0.0408
  208MOL     C229396   6.311   0.173   4.402 -0.4437 -0.1886  0.5825
  208MOL     O329397   6.297   0.227   4.527 -0.0867 -0.0626  0.2503
  208MOL     H429398   6.270   7.487   4.478  0.1714  1.7235  3.0976
  208MOL     H529399   6.435   0.019   4.492 -0.4879 -1.0774  0.2512
  208MOL     H629400   6.213   0.170   4.355  0.6881 -3.3989 -1.7292
  208MOL     H729401   6.206   0.207   4.543 -0.5002 -0.1400 -2.0325
  208MOL     H829402   6.372   7.494   4.340  1.2429 -0.5187  0.5758
  208MOL     C929403   6.421   0.258   4.330  1.2321 -0.2901  0.4206
  208MOL    C1029404   6.472   0.211   4.195  0.1710  0.3142 -0.1404
  208MOL    O1129405   6.366   0.167   4.107 -0.0523  0.5899 -0.2761
  208MOL    H1229406   6.376   0.357   4.319  0.3671 -0.7629 -0.3695
  208MOL    H1329407   6.507   0.285   4.392  0.4074 -2.0589  2.3784
  208MOL    H1429408   6.525   0.118   4.215 -0.3799  0.5341  2.6580
  208MOL    H1529409   6.339   0.080   4.134 -0.6425  0.2820 -1.7885
  208MOL    C1629410   6.554   0.313   4.112  0.4063  0.3130  0.1970
  208MOL    C1729411   6.689   0.358   4.174 -0.3907 -0.2154 -0.4241
  208MOL    O1829412   6.770   0.247   4.202  1.1034 -0.8766  0.1829
  208MOL    H1929413   6.554   0.278   4.009  0.0841 -0.5469  0.4851
  208MOL    H2029414   6.507   0.409   4.086 -0.7908 -0.6796 -1.4287
  208MOL    H2129415   6.666   0.413   4.265  1.6938 -3.2270  2.0323
  208MOL    H2229416   6.791   0.204   4.120 -0.5144  1.4742 -1.5480
  208MOL    C2329417   6.762   0.455   4.084 -0.1644 -0.1841  0.4090
  208MOL    C2429418   6.866   0.544   4.150 -0.0489  0.2847  0.2647
  208MOL    O2529419   6.931   0.478   4.258  0.0752 -0.1431 -0.3974
  208MOL    H2629420   6.810   0.400   4.004 -2.1124 -0.4092 -0.6513
  208MOL    H2729421   6.693   0.528   4.041 -0.9029 -1.7171 -1.0663
  208MOL    H2829422   6.810   0.630   4.189  1.7671  1.8170 -0.4328
  208MOL    H2929423   6.870   0.419   4.299  0.6111  0.1681  0.8806
  208MOL    C3029424   6.980   0.593   4.057 -0.0193  0.4712  0.1197
  208MOL    C3129425   6.955   0.696   3.950  0.0899  0.0852 -0.5590
  208MOL    O3229426   6.884   0.797   4.006  0.1586 -0.2674  0.0743
  208MOL    H3329427   7.054   0.635   4.126 -0.4528  2.0828 -0.3816
  208MOL    H3429428   7.024   0.501   4.017 -1.3473  0.5652 -1.5915
  208MOL    H3529429   6.890   0.653   3.873 -0.3629  0.8624 -0.6210
  208MOL    H3629430   6.794   0.786   3.979 -0.3610  3.8581 -0.1876
  208MOL    C3729431   7.089   0.757   3.896 -0.0116 -0.2349  1.2863
  208MOL    C3829432   7.070   0.840   3.759 -0.0762  0.3567 -0.2617
  208MOL    O3929433   7.200   0.889   3.718  0.0741 -0.4366  0.0369
  208MOL    H4029434   7.140   0.816   3.971  0.0035 -0.2512  1.2883
  208MOL    H4129435   7.160   0.676   3.874 -2.9128 -2.4797 -0.1791
  208MOL    H4229436   7.019   0.933   3.786  1.7972  1.2959  0.1650
  208MOL    H4329437   7.239   0.948   3.781  3.7674 -1.4997 -1.0812
  208MOL    C4429438   6.982   0.767   3.654 -0.3032 -0.5015 -0.2841
  208MOL    C4529439   6.962   0.839   3.512 -1.1768 -0.0085  0.1970
  208MOL    O4629440   6.895   0.763   3.421  0.4173 -0.3667 -0.3941
  208MOL    H4729441   7.015   0.665   3.632 -0.4329 -0.6764  0.3193
  208MOL    H4829442   6.879   0.758   3.690  0.5372  0.4637  2.4943
  208MOL    H4929443   7.065   0.826   3.476 -0.0897 -1.1698  3.5903
  208MOL    H5029444   6.803   0.781   3.433  0.8664  0.1079  2.5967
  208MOL    C5129445   6.916   0.987   3.522 -0.4377  0.4810  0.0368
  208MOL    C5229446   6.762   1.014   3.515  0.3695  0.0801 -0.2069
  208MOL    O5329447   6.686   0.952   3.614 -0.1468 -0.1371 -0.1039
  208MOL    H5429448   6.942   1.037   3.615 -0.3532 -1.1297  0.9005
  208MOL    H5529449   6.961   1.044   3.440  1.4613 -0.1877  0.6023
  208MOL    H5629450   6.729   0.978   3.417 -1.0256  0.5633  0.0799
  208MOL    H5729451   6.674   0.859   3.601  1.9976 -1.0094  3.3847
  208MOL    C5829452   6.729   1.165   3.531  0.7248 -0.3880  0.0206
  208MOL    C5929453   6.587   1.214   3.513  0.2055  0.9811  0.1361
  208MOL    O6029454   6.598   1.353   3.527  0.1052  0.1953  0.4234
  208MOL    H6129455   6.761   1.190   3.633 -1.0621 -0.4008  0.6108
  208MOL    H6229456   6.801   1.223   3.473  1.5267 -1.6548 -0.2608
  208MOL    H6329457   6.527   1.180   3.598 -0.3366  0.2776 -0.5221
  208MOL    H6429458   6.516   1.400   3.533  0.1529  0.6062 -1.7174
  208MOL    C6529459   6.518   1.189   3.382  0.3343 -0.1098 -0.5696
  208MOL    C6629460   6.370   1.235   3.364  0.4635  0.1910 -0.0352
  208MOL    O6729461   6.331   1.204   3.234 -0.2108 -0.4883  0.1748
  208MOL    H6829462   6.574   1.232   3.300 -1.8290  3.4043 -0.2835
  208MOL    H6929463   6.518   1.080   3.369 -1.3263 -0.0621 -1.1105
  208MOL    H7029464   6.352   1.343   3.368 -1.2810 -0.0959  0.0129
  208MOL    H7129465   6.359   1.275   3.179  0.1967 -0.3864  0.5136
  208MOL    C7229466   6.267   1.176   3.459 -0.2680 -0.0259 -0.4306
  208MOL    C7329467   6.122   1.220   3.440  0.7496  0.5290  1.1804
  208MOL    O7429468   6.060   1.157   3.547  0.8427 -0.0965 -0.5878
  208MOL    H7529469   6.276   1.068   3.455  0.8770  0.0392  0.0687
  208MOL    H7629470   6.301   1.201   3.560 -1.1106  1.8373 -0.5834
  208MOL    H7729471   6.097   1.188   3.338  4.2271  0.3708  0.3097
  208MOL    H7829472   6.088   1.068   3.554  1.4984  0.1007 -0.7231
  208MOL    C7929473   6.100   1.375   3.448 -0.2346  0.0804  0.1103
  208MOL    C8029474   5.956   1.415   3.422  0.2762 -1.0052  0.0845
  208MOL    O8129475   5.949   1.529   3.493  0.1638 -0.1913 -0.2983
  208MOL    H8229476   6.141   1.404   3.545 -0.7343 -1.1412  0.7093
  208MOL    H8329477   6.157   1.434   3.377  1.8642 -0.9761  0.8976
  208MOL    H8429478   5.898   1.344   3.482  2.7546 -1.3673  2.1384
  208MOL    H8529479   5.896   1.514   3.569 -2.3386  0.6539 -1.7877
  208MOL    C8629480   5.903   1.445   3.278  0.3937 -0.0113  0.5379
  208MOL    C8729481   5.777   1.526   3.253  0.1373 -1.1065 -1.0377
  208MOL    O8829482   5.760   1.532   3.119 -0.6318  0.1347 -0.4947
  208MOL    H8929483   5.975   1.494   3.211 -1.6534  0.4781 -1.3803
  208MOL    H9029484   5.913   1.352   3.221  2.6589  0.7666 -0.4175
  208MOL    H9129485   5.784   1.627   3.294 -0.0740 -1.2252 -0.7030
  208MOL    H9229486   5.749   1.622   3.090 -0.7199  0.5760  0.9002
  208MOL    C9329487   5.651   1.468   3.309 -0.1212  0.0247  0.3702
  208MOL    C9429488   5.532   1.561   3.318 -0.4495  0.0841 -0.2424
  208MOL    O9529489   5.469   1.551   3.190 -0.1047  0.1232  0.6091
  208MOL    H9629490   5.617   1.380   3.254 -0.3489 -0.6576  1.5870
  208MOL    H9729491   5.682   1.437   3.409  0.1748  1.9255  0.8993
  208MOL    H9829492   5.542   1.666   3.345 -3.3809 -0.0465  1.5662
  208MOL    H9929493   5.532   1.564   3.120 -0.5499 -0.3192  0.1233
  208MOL   C10029494   5.433   1.501   3.421 -0.3752  0.1379  0.2981
  208MOL   C10129495   5.472   1.532   3.570  0.6794  0.4899  0.4752
  208MOL   O10229496   5.432   1.666   3.583 -0.1698  0.0587  0.4028
  208MOL   H10329497   5.328   1.523   3.402 -0.8337 -0.1823  2.3621
  208MOL   H10429498   5.436   1.392   3.413 -1.6932  0.1533 -0.6049
  208MOL   H10529499   5.580   1.519   3.577  0.5832 -2.2603 -2.2346
  208MOL   H10629500   5.511   1.710   3.610  0.0455 -1.7935  2.9671
  208MOL   C10729501   5.395   1.450   3.674 -0.0358 -0.1923  1.1534
  208MOL   C10829502   5.426   1.470   3.824 -0.3426 -0.2685  0.2775
  208MOL   O10929503   5.313   1.422   3.899 -0.2981  0.0054  0.0379
  208MOL   H11029504   5.288   1.468   3.659 -0.0667  0.0142  1.6067
  208MOL   H11129505   5.393   1.341   3.672 -1.1873 -0.1555 -0.4391
  208MOL   H11229506   5.428   1.578   3.842  0.5518  0.0907 -1.8227
  208MOL   H11329507   5.249   1.477   3.858  0.1129  0.1389 -0.4361
  208MOL   C11429508   5.544   1.405   3.901  0.3804  0.6688  0.3099
  208MOL   C11529509   5.681   1.398   3.831  0.1025 -0.4377  0.3883
  208MOL   O11629510   5.728   1.524   3.791  0.2809  0.7650  0.0417
  208MOL   H11729511   5.557   1.462   3.993  0.7762  1.5139 -0.2680
  208MOL   H11829512   5.514   1.305   3.934  0.3838  1.0843  1.5925
  208MOL   H11929513   5.664   1.341   3.739 -1.4790  3.3781 -1.7839
  208MOL   H12029514   5.761   1.561   3.871  2.5576  0.8533 -0.8969
  208MOL   C12129515   5.792   1.317   3.911  0.2733  0.7140 -0.2878
  208MOL   C12229516   5.892   1.241   3.812 -0.1876 -0.5663 -0.6865
  208MOL   O12329517   5.982   1.331   3.752 -0.1029 -0.0868 -0.4413
  208MOL   H12429518   5.845   1.377   3.984 -0.6930  0.1115  0.9263
  208MOL   H12529519   5.742   1.246   3.977 -0.3025  0.0966 -1.3706
  208MOL   H12629520   5.839   1.197   3.728 -2.4422 -0.0123  0.4019
  208MOL   H12729521   6.034   1.282   3.691 -0.5748 -0.8144 -0.2677
  208MOL   C12829522   5.984   1.146   3.897 -0.3185  0.4067  0.1046
  208MOL   C12929523   5.922   1.012   3.925  0.6830 -0.2099 -0.6603
  208MOL   O13029524   5.902   0.928   3.815  0.0277  0.3679 -0.0965
  208MOL   H13129525   6.081   1.139   3.848 -0.9169 -0.5104 -0.9763
  208MOL   H13229526   6.008   1.196   3.991  1.5566  1.2727 -0.8153
  208MOL   H13329527   5.823   1.026   3.969  0.6302 -2.6990  0.0922
  208MOL   H13429528   5.809   0.913   3.802  0.1856 -0.5771 -0.1618
  208MOL   C13529529   5.999   0.924   4.031 -0.1307  0.3228  0.0413
  208MOL   C13629530   5.975   0.973   4.174  0.7443 -0.0360 -0.0881
  208MOL   O13729531   5.841   0.956   4.216 -0.3478 -0.0466  0.3146
  208MOL   H13829532   5.975   0.818   4.018 -1.0668  0.4784  0.4613
  208MOL   H13929533   6.106   0.919   4.010 -0.0833 -2.3489  0.6812
  208MOL   H14029534   5.991   1.079   4.190  0.9549 -0.1964  0.7968
  208MOL   H14129535   5.854   0.954   4.310 -1.5800  0.0995  0.4919
  208MOL   H14229536   6.029   0.909   4.245 -1.8139 -2.1416  0.0215
  209MOL     C129537   4.196   2.111   3.638 -0.5473 -0.3450 -1.1751
  209MOL     C229538   4.077   2.162   3.722  0.2318  0.1689  0.2759
  209MOL     O329539   4.100   2.131   3.859 -0.1908  0.0868 -0.2436
  209MOL     H429540   4.290   2.161   3.662 -1.0455  0.2563 -0.4697
  209MOL     H529541   4.180   2.142   3.535  0.7021  2.2849 -0.6333
  209MOL     H629542   3.984   2.123   3.680  0.1286  0.3242  0.3590
  209MOL     H729543   4.113   2.037   3.862  1.0773  0.2951  2.9660
  209MOL     H829544   4.201   2.002   3.638 -3.6183 -0.5509  1.4548
  209MOL     C929545   4.069   2.318   3.709  0.3535  0.4976 -0.4697
  209MOL    C1029546   3.937   2.392   3.753  0.3121  0.5154  0.0577
  209MOL    O1129547   3.965   2.535   3.755 -0.1381 -0.0546 -0.5836
  209MOL    H1229548   4.161   2.357   3.752  0.4769 -0.7811  0.4616
  209MOL    H1329549   4.073   2.342   3.602  1.1106 -0.4601 -0.6686
  209MOL    H1429550   3.921   2.376   3.859  0.0656  2.6464  0.3674
  209MOL    H1529551   3.930   2.563   3.838  0.4974 -2.1643  0.4106
  209MOL    C1629552   3.806   2.370   3.668 -0.2635  0.4807 -0.3145
  209MOL    C1729553   3.693   2.469   3.690  0.1085 -0.8574  0.2350
  209MOL    O1829554   3.588   2.477   3.589 -0.2181  0.1117  0.0596
  209MOL    H1929555   3.828   2.363   3.562 -1.2473  0.5200 -0.5290
  209MOL    H2029556   3.768   2.272   3.699 -1.4620  1.9902  3.2416
  209MOL    H2129557   3.724   2.573   3.687  1.0413 -1.1354  0.1172
  209MOL    H2229558   3.619   2.552   3.541  2.3781 -0.7239  0.3334
  209MOL    C2329559   3.613   2.448   3.821 -0.6186  0.0303 -0.4787
  209MOL    C2429560   3.496   2.551   3.847 -0.0641  0.5802  0.4796
  209MOL    O2529561   3.383   2.503   3.773 -0.2882  0.4953 -0.0266
  209MOL    H2629562   3.574   2.347   3.838 -1.9736  0.7860  1.0479
  209MOL    H2729563   3.684   2.464   3.902 -0.6250  0.7009 -0.6015
  209MOL    H2829564   3.528   2.639   3.791 -2.5264  1.4301  0.3487
  209MOL    H2929565   3.430   2.484   3.692  1.3676  2.4658  0.4272
  209MOL    C3029566   3.448   2.592   3.988  0.1385  0.3117 -0.6399
  209MOL    C3129567   3.549   2.674   4.060  0.7644 -0.2013  0.6030
  209MOL    O3229568   3.554   2.806   3.993  0.6447  0.3843 -0.3672
  209MOL    H3329569   3.353   2.642   3.967  0.1365 -0.0294 -1.5013
  209MOL    H3429570   3.421   2.501   4.041  0.5580 -0.5616 -1.8898
  209MOL    H3529571   3.648   2.631   4.045  0.8761  1.0817 -2.9971
  209MOL    H3629572   3.467   2.841   3.978 -1.3669 -2.4749  3.5705
  209MOL    C3729573   3.519   2.694   4.208 -0.1262  0.0127 -0.6123
  209MOL    C3829574   3.617   2.610   4.295 -0.8736  0.2616  0.8601
  209MOL    O3929575   3.604   2.657   4.428  0.4261  0.2598  0.3379
  209MOL    H4029576   3.541   2.799   4.228  0.7366 -0.6357  1.9150
  209MOL    H4129577   3.413   2.683   4.232 -0.4714 -1.3927 -2.6685
  209MOL    H4229578   3.719   2.632   4.263 -1.7705 -0.1685 -2.4023
  209MOL    H4329579   3.527   2.625   4.473 -0.6648 -0.0355 -1.6864
  209MOL    C4429580   3.602   2.455   4.294 -0.0293 -0.7277  0.2235
  209MOL    C4529581   3.728   2.387   4.353 -0.1528  0.1949  0.8543
  209MOL    O4629582   3.702   2.250   4.356  0.7972 -0.3013  0.2667
  209MOL    H4729583   3.513   2.435   4.354 -0.7176  0.1320 -0.4984
  209MOL    H4829584   3.589   2.414   4.194 -1.2689 -0.4161  0.2454
  209MOL    H4929585   3.748   2.430   4.451  0.6669  4.6546 -1.1575
  209MOL    H5029586   3.633   2.237   4.419  0.3430  1.1444  0.0665
  209MOL    C5129587   3.856   2.396   4.266  0.4006  0.3794 -0.3895
  209MOL    C5229588   3.993   2.316   4.289  0.7682  0.3917 -0.0868
  209MOL    O5329589   4.060   2.328   4.163  1.1943 -0.3042  0.4125
  209MOL    H5429590   3.816   2.383   4.165  1.3603  1.2876 -0.9045
  209MOL    H5529591   3.878   2.503   4.266  0.2842  0.4130 -1.4582
  209MOL    H5629592   3.973   2.211   4.310  1.5131  0.5085  1.2389
  209MOL    H5729593   4.128   2.263   4.171  0.2165 -1.2338  1.2045
  209MOL    C5829594   4.089   2.377   4.397  0.9157 -0.0541  0.3922
  209MOL    C5929595   4.043   2.371   4.549  0.1274 -0.1311 -0.0502
  209MOL    O6029596   4.154   2.313   4.622 -0.4167 -0.3480 -0.1046
  209MOL    H6129597   4.178   2.314   4.393  1.6207  0.9232  0.2510
  209MOL    H6229598   4.132   2.475   4.374  2.4681 -0.7200  0.3677
  209MOL    H6329599   3.965   2.296   4.547  0.1065 -0.1640  1.2437
  209MOL    H6429600   4.120   2.265   4.697 -0.0912 -0.4284 -0.0084
  209MOL    C6529601   3.980   2.498   4.614 -0.3534  0.6123 -1.0265
  209MOL    C6629602   4.074   2.612   4.661  0.0944  0.9205  0.5328
  209MOL    O6729603   4.159   2.654   4.555 -0.4209  0.0747  0.0746
  209MOL    H6829604   3.897   2.536   4.555 -1.5694 -2.2176 -1.2148
  209MOL    H6929605   3.923   2.465   4.701 -1.5349  2.3816 -1.1013
  209MOL    H7029606   4.144   2.570   4.733 -2.5279 -2.0685  1.4834
  209MOL    H7129607   4.228   2.590   4.553 -0.6020 -0.1128 -0.1440
  209MOL    C7229608   3.993   2.725   4.714 -0.1273 -0.3148  0.6547
  209MOL    C7329609   4.067   2.857   4.740  0.7325 -0.3066 -0.1769
  209MOL    O7429610   3.961   2.953   4.740 -0.5970  0.1879 -0.2571
  209MOL    H7529611   3.925   2.729   4.628  0.2837 -1.8355  0.2403
  209MOL    H7629612   3.942   2.692   4.804 -1.5918  0.0456 -0.0204
  209MOL    H7729613   4.134   2.881   4.658  1.0225  0.2720  0.2249
  209MOL    H7829614   3.917   2.954   4.656  0.2016 -1.0650 -0.7051
  209MOL    C7929615   4.139   2.851   4.868  0.3605 -0.3326  0.0736
  209MOL    C8029616   4.223   2.977   4.893  0.9025 -0.1914 -0.6275
  209MOL    O8129617   4.242   2.981   5.029 -1.0387 -0.3383 -0.6505
  209MOL    H8229618   4.063   2.838   4.944  0.7265 -1.7880  0.2031
  209MOL    H8329619   4.206   2.765   4.871  0.8036 -0.0790 -1.7885
  209MOL    H8429620   4.161   3.064   4.868  0.0299 -0.4634  0.5602
  209MOL    H8529621   4.161   3.018   5.060 -0.4307  1.6257 -1.3213
  209MOL    C8629622   4.357   2.977   4.821 -0.2627  0.2203 -0.3740
  209MOL    C8729623   4.474   3.069   4.877 -0.2242 -0.1857 -0.0159
  209MOL    O8829624   4.590   3.070   4.787 -0.3177  0.2877 -0.6907
  209MOL    H8929625   4.396   2.876   4.811 -1.4052 -0.5940  2.8674
  209MOL    H9029626   4.340   3.016   4.720 -0.5959  3.5231  0.8914
  209MOL    H9129627   4.499   3.019   4.971 -0.2847  0.3980  0.3123
  209MOL    H9229628   4.617   2.979   4.782 -0.7591  0.0703  0.7414
  209MOL    C9329629   4.439   3.221   4.900  0.0968 -0.2066 -0.5790
  209MOL    C9429630   4.541   3.296   4.994  0.7862  0.9542  0.3284
  209MOL    O9529631   4.558   3.422   4.948 -0.2297  0.0288  0.1763
  209MOL    H9629632   4.438   3.257   4.797 -0.0702 -1.1665 -0.9123
  209MOL    H9729633   4.341   3.234   4.945  0.5048  2.2477 -0.3356
  209MOL    H9829634   4.634   3.241   4.984 -0.6489 -1.6244  0.6053
  209MOL    H9929635   4.607   3.416   4.867 -0.1002 -2.0799  0.3792
  209MOL   C10029636   4.488   3.287   5.145 -0.3816 -0.1551  0.4399
  209MOL   C10129637   4.480   3.155   5.226 -0.4452 -0.3622 -0.0306
  209MOL   O10229638   4.603   3.097   5.255 -0.0600 -0.3733  0.6784
  209MOL   H10329639   4.548   3.360   5.199 -2.6228  2.8819 -1.0467
  209MOL   H10429640   4.391   3.336   5.145 -0.9563 -1.2456  1.7451
  209MOL   H10529641   4.430   3.080   5.165 -0.7508 -1.6681  1.8016
  209MOL   H10629642   4.591   3.046   5.333 -0.0055  0.7632  1.4330
  209MOL   C10729643   4.405   3.173   5.355  1.1025  0.4686 -0.4836
  209MOL   C10829644   4.350   3.046   5.427  0.3450  0.5057 -0.7777
  209MOL   O10929645   4.444   2.949   5.465  0.0536 -0.3655 -0.2794
  209MOL   H11029646   4.464   3.239   5.419 -0.4597 -0.2599  1.7479
  209MOL   H11129647   4.318   3.232   5.325 -0.8114 -0.5650  2.8215
  209MOL   H11229648   4.289   2.995   5.353  0.8136 -1.8533  0.4225
  209MOL   H11329649   4.404   2.913   5.543  1.5274 -0.1778  0.5869
  209MOL   C11429650   4.248   3.086   5.541  0.1447 -0.4907  0.9047
  209MOL   C11529651   4.306   3.125   5.677  0.2221  0.2106 -0.1382
  209MOL   O11629652   4.392   3.237   5.659 -0.5564  0.1599  0.3760
  209MOL   H11729653   4.182   3.162   5.499 -1.4781 -2.6944 -0.6682
  209MOL   H11829654   4.192   2.995   5.562  1.3759 -1.2515  0.9396
  209MOL   H11929655   4.354   3.041   5.725  0.5538 -2.2409 -4.5460
  209MOL   H12029656   4.454   3.232   5.731 -0.9556 -0.5952  0.6793
  209MOL   C12129657   4.192   3.176   5.770  0.1983 -0.0054  0.7590
  209MOL   C12229658   4.099   3.063   5.825 -0.6189 -0.0110  0.3496
  209MOL   O12329659   4.177   2.978   5.910  0.5030 -0.8581 -0.3032
  209MOL   H12429660   4.248   3.232   5.845  0.5538  0.8381 -0.1205
  209MOL   H12529661   4.128   3.249   5.721  1.3216  0.1922 -0.4272
  209MOL   H12629662   4.068   2.992   5.749  0.2071  0.1558 -0.1508
  209MOL   H12729663   4.220   2.915   5.854 -3.6779 -2.8502 -1.5288
  209MOL   C12829664   3.975   3.110   5.903 -0.2159  0.0417 -0.4025
  209MOL   C12929665   3.892   2.994   5.973  0.0926  0.4649  0.0608
  209MOL   O13029666   3.809   3.073   6.063  0.0551  0.4525  0.1459
  209MOL   H13129667   4.014   3.174   5.983 -0.2010 -1.0697  0.4812
  209MOL   H13229668   3.906   3.177   5.851  0.8040  1.9178  0.5867
  209MOL   H13329669   3.954   2.924   6.029 -1.8538 -0.0187  1.6339
  209MOL   H13429670   3.738   3.021   6.097  0.3410  0.4082  0.6757
  209MOL   C13529671   3.803   2.928   5.871  0.4850  0.7883  0.0955
  209MOL   C13629672   3.713   2.815   5.928  1.0454  0.1852 -0.1525
  209MOL   O13729673   3.646   2.753   5.816 -0.1852 -0.0340 -0.1416
  209MOL   H13829674   3.749   2.997   5.807 -1.4579  0.6657  1.5448
  209MOL   H13929675   3.867   2.888   5.793 -1.2808 -0.7970 -0.5667
  209MOL   H14029676   3.639   2.842   6.003  0.9382  1.4368 -0.6997
  209MOL   H14129677   3.627   2.666   5.848 -0.3224 -0.2767 -0.8629
  209MOL   H14229678   3.774   2.742   5.981 -0.5690 -1.2603 -0.2675
  210MOL     C129679   7.446   5.686   1.496  0.3520  0.0272 -0.2994
  210MOL     C229680   7.453   5.596   1.620  0.1199 -0.1864 -0.4274
  210MOL     O329681   7.407   5.666   1.736  0.0529 -0.5508 -0.7021
  210MOL     H429682   7.344   5.710   1.466 -0.1835  0.6971  1.9243
  210MOL     H529683   7.493   5.660   1.401  1.7470  3.1320 -0.5151
  210MOL     H629684   0.034   5.558   1.640  0.0244 -0.4274 -0.4069
  210MOL     H729685   7.464   5.739   1.755  0.7263 -0.7484 -1.9072
  210MOL     H829686   7.493   5.780   1.525  0.0730  0.4073 -1.0611
  210MOL     C929687   7.362   5.474   1.605 -0.2168  0.1401  0.1015
  210MOL    C1029688   7.405   5.375   1.495  0.2216  0.5462  0.4736
  210MOL    O1129689   0.006   5.298   1.534  0.0710 -0.5519 -0.4440
  210MOL    H1229690   7.348   5.430   1.704 -0.8308  0.3212  0.0997
  210MOL    H1329691   7.260   5.503   1.580 -0.2940  1.2925  1.6252
  210MOL    H1429692   7.420   5.433   1.404  0.0093  1.5453  1.0709
  210MOL    H1529693   0.070   5.343   1.481 -0.7932 -0.5874 -1.5506
  210MOL    C1629694   7.301   5.263   1.463 -0.0594  0.2644 -0.2939
  210MOL    C1729695   7.162   5.311   1.412  0.4491  0.3058  0.7363
  210MOL    O1829696   7.184   5.380   1.287  1.1185  0.3023 -0.2927
  210MOL    H1929697   7.333   5.200   1.380 -1.3976 -0.9242  0.0658
  210MOL    H2029698   7.277   5.190   1.541  1.0510  0.9284  0.6891
  210MOL    H2129699   7.117   5.375   1.488 -1.3001  0.6954 -0.5903
  210MOL    H2229700   7.101   5.388   1.244 -0.6045  0.8231  3.0107
  210MOL    C2329701   7.067   5.196   1.393 -0.2610 -0.0489  0.6541
  210MOL    C2429702   7.013   5.130   1.527 -0.5474  0.2986  0.8061
  210MOL    O2529703   6.915   5.220   1.570  0.0488  0.0548  0.2113
  210MOL    H2629704   6.990   5.231   1.324  0.1674  0.2692  0.3309
  210MOL    H2729705   7.116   5.126   1.325  2.8771  2.5500  0.0877
  210MOL    H2829706   7.091   5.123   1.603  1.1338 -1.4701 -1.0229
  210MOL    H2929707   6.848   5.219   1.503 -0.7876 -0.4661  1.0308
  210MOL    C3029708   6.948   4.989   1.512 -0.4579  0.3280 -0.3339
  210MOL    C3129709   7.014   4.885   1.423  0.1714  0.4703 -0.5132
  210MOL    O3229710   7.150   4.875   1.473 -0.2459  0.0010 -0.1290
  210MOL    H3329711   6.941   4.951   1.614 -2.0875  1.0748 -0.1473
  210MOL    H3429712   6.843   5.002   1.485 -0.5698  1.3038  0.5248
  210MOL    H3529713   7.010   4.920   1.319 -2.7085  0.0021 -0.5850
  210MOL    H3629714   7.204   4.851   1.399 -1.2082 -1.2287 -0.4431
  210MOL    C3729715   6.946   4.749   1.428 -0.5822  0.0734  0.4958
  210MOL    C3829716   6.799   4.740   1.411  0.3546  0.8502 -0.2865
  210MOL    O3929717   6.756   4.824   1.304 -0.5413  0.6739  0.3653
  210MOL    H4029718   6.987   4.686   1.349 -1.1273  1.5594 -1.0148
  210MOL    H4129719   6.976   4.708   1.525  2.4344  1.6895  0.3124
  210MOL    H4229720   6.750   4.792   1.493  0.5003  0.7754 -0.1523
  210MOL    H4329721   6.663   4.812   1.312 -0.3212 -2.7351 -1.5061
  210MOL    C4429722   6.747   4.594   1.392 -0.2681 -0.0968  0.5600
  210MOL    C4529723   6.784   4.495   1.499 -0.6876  0.1930  0.7067
  210MOL    O4629724   6.726   4.537   1.618  0.5603 -0.2785 -0.3564
  210MOL    H4729725   6.639   4.588   1.386 -0.1649 -1.5195  0.0899
  210MOL    H4829726   6.785   4.570   1.293  1.2809  2.5925  0.4533
  210MOL    H4929727   6.892   4.495   1.516 -0.2551 -0.4121 -1.8943
  210MOL    H5029728   6.779   4.499   1.686 -0.1937 -1.5090 -0.4400
  210MOL    C5129729   6.752   4.349   1.457 -0.6497  0.4429  0.2785
  210MOL    C5229730   6.857   4.288   1.360  0.2745 -0.5657 -0.4077
  210MOL    O5329731   6.980   4.274   1.436  0.6831 -0.4475 -0.0736
  210MOL    H5429732   6.737   4.280   1.540 -0.7462  0.9156  0.6576
  210MOL    H5529733   6.654   4.347   1.410 -0.6954 -1.1766  0.4015
  210MOL    H5629734   6.875   4.362   1.282  0.4328  3.6792  3.4364
  210MOL    H5729735   7.034   4.217   1.384 -1.6677  0.2418 -3.4212
  210MOL    C5829736   6.810   4.145   1.316  0.2851 -0.1032  0.1881
  210MOL    C5929737   6.889   4.086   1.199  0.1709 -0.1249  0.3350
  210MOL    O6029738   7.009   4.052   1.256 -0.1371 -0.2665 -0.2534
  210MOL    H6129739   6.813   4.080   1.403  0.2124 -1.0470 -0.5112
  210MOL    H6229740   6.709   4.162   1.278 -0.3519 -0.5496  1.6224
  210MOL    H6329741   6.894   4.157   1.117 -1.4519 -1.4046 -0.9047
  210MOL    H6429742   7.065   4.127   1.244 -0.2699  0.6248  3.7997
  210MOL    C6529743   6.837   3.952   1.151 -0.1577  0.5107  0.2645
  210MOL    C6629744   6.937   3.874   1.066  0.0807 -0.5272  0.1556
  210MOL    O6729745   6.873   3.753   1.046 -0.4515  0.6369  0.0280
  210MOL    H6829746   6.810   3.889   1.236 -0.5241  0.7477  0.3274
  210MOL    H6929747   6.752   3.981   1.089 -1.8434  0.9782  2.7058
  210MOL    H7029748   7.030   3.850   1.117  0.6090  1.4013  0.1341
  210MOL    H7129749   6.784   3.779   1.027 -1.0619 -1.6011 -0.2685
  210MOL    C7229750   6.958   3.929   0.924 -0.5054 -0.3251 -0.2100
  210MOL    C7329751   7.059   4.045   0.897 -0.0210 -0.5008 -0.0831
  210MOL    O7429752   7.195   4.007   0.909  0.8258  0.5128  0.1168
  210MOL    H7529753   6.992   3.855   0.852 -0.6905 -1.2913  0.6718
  210MOL    H7629754   6.859   3.958   0.889  0.5684 -0.1380 -3.2299
  210MOL    H7729755   7.046   4.121   0.974  2.0997 -0.8057  0.6006
  210MOL    H7829756   7.251   4.075   0.873  0.1271  1.4744  0.8168
  210MOL    C7929757   7.031   4.108   0.760 -0.1893  0.2618  0.2386
  210MOL    C8029758   6.890   4.166   0.730  0.2904  0.1986 -0.4236
  210MOL    O8129759   6.867   4.245   0.844  0.3027  0.0705 -0.4403
  210MOL    H8229760   7.104   4.187   0.742  0.4626 -0.0124  1.5876
  210MOL    H8329761   7.060   4.031   0.688 -1.6424  1.2873 -1.4789
  210MOL    H8429762   6.808   4.093   0.724 -0.5702  1.1722 -0.6448
  210MOL    H8529763   6.773   4.248   0.855  0.1658  1.1646 -1.7329
  210MOL    C8629764   6.889   4.269   0.615 -0.4715  1.0798  0.3814
  210MOL    C8729765   6.945   4.227   0.482 -0.2229  0.2352  1.1391
  210MOL    O8829766   6.885   4.101   0.440 -0.1783  0.2933  0.2695
  210MOL    H8929767   6.786   4.302   0.601 -0.1272  2.3233  0.7091
  210MOL    H9029768   6.952   4.348   0.655  0.4641  1.5455 -1.9138
  210MOL    H9129769   7.052   4.210   0.486 -0.0750  0.8595 -0.0458
  210MOL    H9229770   6.904   4.034   0.504 -0.6430 -2.7156 -2.5448
  210MOL    C9329771   6.913   4.334   0.370 -0.5752  0.4187  0.2131
  210MOL    C9429772   6.942   4.480   0.402  0.5135 -0.7880  0.1405
  210MOL    O9529773   7.078   4.486   0.423  0.4958  0.4349  0.4282
  210MOL    H9629774   6.964   4.310   0.276 -0.9834 -2.8380  0.7370
  210MOL    H9729775   6.807   4.329   0.347 -0.1765  3.5802 -2.6262
  210MOL    H9829776   6.879   4.500   0.489 -0.9500  0.3188 -1.1444
  210MOL    H9929777   7.091   4.478   0.516 -1.1699 -2.1457  0.4895
  210MOL   C10029778   6.903   4.582   0.290  0.3534 -0.5944 -0.2324
  210MOL   C10129779   6.924   4.732   0.330  0.3416 -0.3599 -0.6805
  210MOL   O10229780   7.063   4.762   0.350  0.4244 -0.4146 -0.0568
  210MOL   H10329781   6.968   4.559   0.205  0.3023 -1.7548  0.0220
  210MOL   H10429782   6.803   4.556   0.255  1.1615  1.1374 -4.1523
  210MOL   H10529783   6.861   4.744   0.418  2.8894  1.4408  0.9646
  210MOL   H10629784   7.104   4.708   0.415  2.4180  1.4156  0.2458
  210MOL   C10729785   6.856   4.827   0.226 -0.5900  0.1744  0.1776
  210MOL   C10829786   6.858   4.975   0.264 -0.8643  0.2174 -0.1534
  210MOL   O10929787   6.850   5.049   0.148  0.2109  0.5427  0.1336
  210MOL   H11029788   6.903   4.810   0.129  0.5623 -0.6840  0.8751
  210MOL   H11129789   6.754   4.793   0.207 -0.1648 -0.6814 -0.6412
  210MOL   H11229790   6.957   4.986   0.307  0.9432 -1.8817 -3.5224
  210MOL   H11329791   6.849   5.137   0.182  0.7289  0.6422 -0.1038
  210MOL   C11429792   6.740   5.018   0.355 -0.2915 -0.0991 -0.1831
  210MOL   C11529793   6.756   5.164   0.420 -0.8576  0.1423 -0.0264
  210MOL   O11629794   6.817   5.264   0.334 -0.0229 -0.2260  0.0279
  210MOL   H11729795   6.656   5.004   0.287  0.2449 -0.4712 -0.7676
  210MOL   H11829796   6.722   4.946   0.434  1.6722  1.1340  1.4369
  210MOL   H11929797   6.825   5.155   0.504  0.7582 -0.5748 -1.3885
  210MOL   H12029798   6.869   5.319   0.390 -0.5530  1.1834 -0.8220
  210MOL   C12129799   6.610   5.219   0.459  0.1483  0.0544 -1.2004
  210MOL   C12229800   6.547   5.146   0.585 -0.2764  0.1689 -0.2261
  210MOL   O12329801   6.641   5.147   0.694 -0.5298 -0.3209 -0.7033
  210MOL   H12429802   6.614   5.322   0.496 -0.5286 -0.5412  0.5412
  210MOL   H12529803   6.538   5.210   0.378  0.3986  0.8732 -1.5235
  210MOL   H12629804   6.536   5.041   0.561 -0.7005 -0.1758  1.4664
  210MOL   H12729805   6.625   5.066   0.741 -1.7219  1.1905  1.6398
  210MOL   C12829806   6.403   5.184   0.635 -0.9338  0.5665 -0.1386
  210MOL   C12929807   6.292   5.169   0.532 -0.1141  0.1197 -0.4943
  210MOL   O13029808   6.274   5.039   0.484  0.2478 -0.6560 -0.4203
  210MOL   H13129809   6.395   5.146   0.737 -0.3128 -0.1899 -0.3690
  210MOL   H13229810   6.417   5.292   0.638  0.4539  0.4249 -1.0384
  210MOL   H13329811   6.330   5.220   0.443 -2.2078  3.9418  0.6647
  210MOL   H13429812   6.248   5.049   0.394  1.0482 -0.0834 -0.5955
  210MOL   C13529813   6.166   5.253   0.562  0.4042  0.0448  0.2912
  210MOL   C13629814   6.071   5.262   0.438 -0.2599 -0.8470  0.3532
  210MOL   O13729815   5.956   5.328   0.463  0.5805  0.0019  0.2234
  210MOL   H13829816   6.111   5.234   0.654 -0.0463 -2.9329 -0.5339
  210MOL   H13929817   6.203   5.354   0.582  0.2732 -0.0624  1.1121
  210MOL   H14029818   6.058   5.162   0.395  0.4468 -0.1991 -1.4307
  210MOL   H14129819   5.956   5.407   0.410 -0.9685 -1.0474 -1.4289
  210MOL   H14229820   6.127   5.318   0.363  1.2169  2.0289  3.4825
  211MOL     C129821   5.967   4.192   5.064  0.1910  0.2262 -0.4004
  211MOL     C229822   5.823   4.215   5.049 -0.6915 -0.4913  0.4597
  211MOL     O329823   5.764   4.100   5.008 -0.4423  0.1874 -0.4884
  211MOL     H429824   5.981   4.117   5.141  0.4102 -0.5776 -1.2032
  211MOL     H529825   6.015   4.283   5.099 -0.9627  0.9541 -0.6953
  211MOL     H629826   5.812   4.288   4.969  1.7227  0.9470  1.3850
  211MOL     H729827   5.678   4.110   4.970  0.4069  0.4115 -2.4246
  211MOL     H829828   6.018   4.149   4.977 -0.0507 -0.6648 -0.1048
  211MOL     C929829   5.756   4.281   5.173  0.4814 -0.6446 -0.4731
  211MOL    C1029830   5.645   4.371   5.133  0.5258 -0.9023  0.0129
  211MOL    O1129831   5.568   4.394   5.251  0.2134 -0.1474 -0.1791
  211MOL    H1229832   5.719   4.199   5.234  1.8526  0.3776  1.8273
  211MOL    H1329833   5.829   4.329   5.239 -0.8598  0.3165  0.3438
  211MOL    H1429834   5.591   4.320   5.054 -0.1614 -2.8757  1.6819
  211MOL    H1529835   5.534   4.314   5.287 -1.0737  0.0797 -0.8745
  211MOL    C1629836   5.693   4.511   5.070  0.2234  0.2340 -0.1703
  211MOL    C1729837   5.618   4.552   4.946  0.3326  0.5606  0.0407
  211MOL    O1829838   5.617   4.696   4.940  0.2525  0.1320 -0.0250
  211MOL    H1929839   5.687   4.588   5.147  1.5009  0.0058  0.1687
  211MOL    H2029840   5.798   4.494   5.047 -0.0500 -1.2235 -0.3582
  211MOL    H2129841   5.518   4.515   4.966  0.5441 -0.8305 -1.3282
  211MOL    H2229842   5.699   4.730   4.906  0.3695  1.0276  1.1430
  211MOL    C2329843   5.678   4.497   4.809  0.1609  0.2218  0.4049
  211MOL    C2429844   5.592   4.542   4.692 -0.0205 -1.2695  0.1818
  211MOL    O2529845   5.653   4.490   4.578 -0.1689  0.2762  0.0620
  211MOL    H2629846   5.784   4.519   4.794  0.1333  0.8326  1.0971
  211MOL    H2729847   5.678   4.388   4.814 -2.4276  0.2060  0.5278
  211MOL    H2829848   5.598   4.650   4.681  0.7180 -1.3270 -0.0242
  211MOL    H2929849   5.588   4.519   4.516 -0.6387 -1.5975 -0.3622
  211MOL    C3029850   5.441   4.517   4.693  0.3024 -0.1041 -0.2594
  211MOL    C3129851   5.359   4.570   4.571  0.9469  1.0122  0.0864
  211MOL    O3229852   5.398   4.503   4.458  0.0560 -0.1576  0.2691
  211MOL    H3329853   5.435   4.408   4.698  0.3578 -0.0162  1.9693
  211MOL    H3429854   5.419   4.569   4.786  0.5389 -0.3770 -0.0468
  211MOL    H3529855   5.372   4.677   4.551 -0.7920  1.3787  0.8108
  211MOL    H3629856   5.334   4.509   4.388  0.4764  3.0063  0.0846
  211MOL    C3729857   5.208   4.546   4.593  0.7980 -0.0431 -0.2785
  211MOL    C3829858   5.133   4.641   4.688 -0.0133 -0.4650  0.3751
  211MOL    O3929859   5.107   4.766   4.623  0.5533 -0.6651  0.2385
  211MOL    H4029860   5.154   4.537   4.499  1.8155 -2.9034 -0.6420
  211MOL    H4129861   5.199   4.446   4.635 -2.0592  0.5763  0.7431
  211MOL    H4229862   5.189   4.666   4.778 -0.6226 -1.7576  1.1291
  211MOL    H4329863   5.023   4.799   4.650  0.9400 -0.8558  1.7052
  211MOL    C4429864   4.988   4.599   4.725  0.3115 -0.1732 -0.4712
  211MOL    C4529865   4.971   4.467   4.817 -0.5861 -1.0660  0.4899
  211MOL    O4629866   5.069   4.479   4.922 -0.1625 -0.0895 -0.4869
  211MOL    H4729867   4.937   4.677   4.781 -0.0190 -1.0163  0.4138
  211MOL    H4829868   4.940   4.583   4.628  1.0310 -1.7950 -0.5741
  211MOL    H4929869   4.980   4.375   4.760 -2.6853 -1.2931  0.4744
  211MOL    H5029870   5.075   4.397   4.970  1.3487  0.5126  0.4068
  211MOL    C5129871   4.834   4.463   4.885 -0.0139 -0.1572 -0.2947
  211MOL    C5229872   4.714   4.432   4.796  0.0023 -0.1981 -0.0124
  211MOL    O5329873   4.693   4.294   4.779  0.2486 -0.1349 -0.2399
  211MOL    H5429874   4.835   4.389   4.965  3.5184  0.4258  0.2872
  211MOL    H5529875   4.830   4.562   4.931 -1.9676  0.6950 -2.2212
  211MOL    H5629876   4.745   4.471   4.700  0.9710  0.2108  0.4613
  211MOL    H5729877   4.762   4.257   4.725  3.2951  2.7979  1.4320
  211MOL    C5829878   4.591   4.507   4.859  0.2766 -0.0026 -0.4505
  211MOL    C5929879   4.582   4.650   4.831  0.1858 -0.3622  0.1428
  211MOL    O6029880   4.511   4.654   4.707 -0.4628 -0.0329 -0.4302
  211MOL    H6129881   4.498   4.466   4.819  0.6214 -0.8675 -0.3780
  211MOL    H6229882   4.609   4.501   4.966  1.0880 -1.4717 -0.6522
  211MOL    H6329883   4.677   4.704   4.831  0.8303 -1.4700 -0.4777
  211MOL    H6429884   4.578   4.690   4.651  0.7146 -0.6755  0.5253
  211MOL    C6529885   4.479   4.725   4.922  0.4416 -0.1055  0.1608
  211MOL    C6629886   4.515   4.775   5.059 -0.1527  0.3633  0.0447
  211MOL    O6729887   4.577   4.895   5.049 -0.3237 -0.4840 -0.0389
  211MOL    H6829888   4.442   4.812   4.867  2.0075  0.7736  0.4557
  211MOL    H6929889   4.396   4.656   4.936  0.5290 -0.2187  0.1149
  211MOL    H7029890   4.588   4.705   5.100  3.2316  1.8798 -3.1631
  211MOL    H7129891   4.667   4.881   5.025  0.5274  3.1870  0.7269
  211MOL    C7229892   4.387   4.775   5.149  0.2713 -0.7656  0.0649
  211MOL    C7329893   4.387   4.654   5.247 -0.1689 -0.4677  0.6425
  211MOL    O7429894   4.286   4.683   5.341 -0.3106 -0.0634  0.0629
  211MOL    H7529895   4.399   4.858   5.218 -0.2818  0.9288 -1.8090
  211MOL    H7629896   4.291   4.782   5.098 -0.8074 -0.6575  2.0599
  211MOL    H7729897   4.490   4.652   5.283  0.5958 -0.1869 -1.3977
  211MOL    H7829898   4.213   4.728   5.301 -0.8636 -0.5423  0.5226
  211MOL    C7929899   4.374   4.523   5.170 -0.1219 -0.1708 -0.4656
  211MOL    C8029900   4.408   4.401   5.264 -0.3354 -0.1195  0.2202
  211MOL    O8129901   4.308   4.390   5.361  0.1474  0.2840 -0.2499
  211MOL    H8229902   4.271   4.504   5.139 -0.6348  1.9744 -0.2158
  211MOL    H8329903   4.425   4.514   5.075 -3.3212 -1.1252 -2.1626
  211MOL    H8429904   4.499   4.437   5.313 -0.1676 -1.5888  1.0468
  211MOL    H8529905   4.300   4.475   5.401  3.0464  0.0792  0.9056
  211MOL    C8629906   4.444   4.280   5.185 -0.2435  0.4302 -0.0075
  211MOL    C8729907   4.509   4.165   5.261  0.3045  0.0036  0.3660
  211MOL    O8829908   4.516   4.053   5.180 -0.0889  1.0086  0.4673
  211MOL    H8929909   4.359   4.243   5.127  0.6304 -1.6228 -0.0423
  211MOL    H9029910   4.517   4.310   5.110  0.9056 -0.7494  0.6286
  211MOL    H9129911   4.445   4.128   5.342  2.1232  0.3612  2.0244
  211MOL    H9229912   4.515   3.970   5.225 -1.2140  0.5692 -0.3407
  211MOL    C9329913   4.653   4.187   5.319  0.2509  0.7026 -0.5298
  211MOL    C9429914   4.710   4.074   5.416  0.1468  0.3829  0.2291
  211MOL    O9529915   4.827   4.012   5.361  0.2559 -0.1274  0.1464
  211MOL    H9629916   4.725   4.219   5.244  2.2466  1.1443  1.5005
  211MOL    H9729917   4.648   4.275   5.383 -0.2467 -0.6831  1.3928
  211MOL    H9829918   4.636   3.994   5.423  0.4206  0.1109  0.0485
  211MOL    H9929919   4.895   4.073   5.383  0.2644  0.2230 -0.8211
  211MOL   C10029920   4.746   4.124   5.558 -0.1245 -0.0518  0.3140
  211MOL   C10129921   4.630   4.124   5.656 -0.2080 -0.3771 -1.0149
  211MOL   O10229922   4.692   4.118   5.785  0.9691  0.2561  0.4104
  211MOL   H10329923   4.818   4.058   5.606 -1.6106 -1.6431  0.4022
  211MOL   H10429924   4.800   4.218   5.555 -0.4784  0.1484  0.2429
  211MOL   H10529925   4.574   4.032   5.642  2.8336 -2.4152 -0.2413
  211MOL   H10629926   4.700   4.025   5.796 -1.9917 -0.0733  0.2567
  211MOL   C10729927   4.554   4.260   5.654  0.2912 -0.3938  0.7451
  211MOL   C10829928   4.451   4.267   5.764  0.0948  0.3827  0.1466
  211MOL   O10929929   4.381   4.393   5.747 -0.3760  0.2066 -0.2809
  211MOL   H11029930   4.627   4.341   5.655  0.2728 -0.3782  1.4429
  211MOL   H11129931   4.510   4.268   5.555 -0.0239 -0.0372  0.9136
  211MOL   H11229932   4.492   4.274   5.865  0.0189  1.0888  0.1310
  211MOL   H11329933   4.441   4.463   5.726  1.6032 -0.9656  1.2589
  211MOL   C11429934   4.342   4.148   5.768 -0.5476 -0.0451  0.6939
  211MOL   C11529935   4.263   4.144   5.901  0.0596  0.3963 -0.5233
  211MOL   O11629936   4.142   4.069   5.884  0.0526 -0.2447 -0.0599
  211MOL   H11729937   4.268   4.158   5.689  0.5861  2.6634 -0.0825
  211MOL   H11829938   4.378   4.046   5.756 -1.2097  0.0008 -2.2235
  211MOL   H11929939   4.233   4.247   5.923 -1.1749  0.0901 -0.6970
  211MOL   H12029940   4.113   4.077   5.974  0.3969  1.6060 -0.0967
  211MOL   C12129941   4.333   4.097   6.031 -0.1002 -0.0807 -0.6909
  211MOL   C12229942   4.257   4.127   6.167  0.9581  0.3591  0.2422
  211MOL   O12329943   4.112   4.139   6.158  0.0328  0.3753 -0.3424
  211MOL   H12429944   4.341   3.989   6.020  1.3680 -0.2997  2.0643
  211MOL   H12529945   4.436   4.133   6.033 -0.3481  0.5795  0.4974
  211MOL   H12629946   4.287   4.228   6.197  1.2052  0.4039 -0.1509
  211MOL   H12729947   4.084   4.189   6.234  1.7661 -0.0234  0.5693
  211MOL   C12829948   4.299   4.035   6.281 -0.1992  0.0407 -0.0133
  211MOL   C12929949   4.444   4.036   6.324 -0.6402 -0.3729  0.5994
  211MOL   O13029950   4.458   4.145   6.413 -0.1283  0.2044  0.3797
  211MOL   H13129951   4.233   4.052   6.366  0.0428 -0.4421  0.2699
  211MOL   H13229952   4.265   3.934   6.256  1.0658  0.1121 -2.1968
  211MOL   H13329953   4.506   4.055   6.236 -1.9740  2.8247  0.2784
  211MOL   H13429954   4.431   4.225   6.372 -0.0791  1.0745  2.0245
  211MOL   C13529955   4.481   3.912   6.398  0.0432 -0.2850  0.9923
  211MOL   C13629956   4.501   3.788   6.305  0.0023  0.5501  0.0727
  211MOL   O13729957   4.571   3.684   6.367 -0.0506 -0.0487  0.2244
  211MOL   H13829958   4.577   3.926   6.448  0.2706  2.6753 -0.1456
  211MOL   H13929959   4.414   3.898   6.482 -0.3145  2.9479  1.3170
  211MOL   H14029960   4.557   3.813   6.214 -1.4028  2.9948 -0.1678
  211MOL   H14129961   4.555   3.610   6.310 -1.4481  1.2294 -1.0978
  211MOL   H14229962   4.408   3.752   6.262  0.5548  0.4918 -1.1116
  212MOL     C129963   7.329   5.244   2.025  0.2467 -0.2024  0.1797
  212MOL     C229964   7.189   5.274   2.009  0.1168 -0.0826  0.7028
  212MOL     O329965   7.155   5.233   1.877  0.1074  0.1328  0.5770
  212MOL     H429966   7.390   5.276   1.941  0.2613  0.3317  0.3900
  212MOL     H529967   7.348   5.137   2.031  3.3843  0.2380 -0.8015
  212MOL     H629968   7.187   5.383   1.996 -0.8991 -0.1579  0.1952
  212MOL     H729969   7.081   5.280   1.841  2.9217  0.4841 -5.1907
  212MOL     H829970   7.372   5.283   2.118 -0.9619  0.5059  0.4494
  212MOL     C929971   7.091   5.205   2.099 -0.0515  0.1396 -0.4168
  212MOL    C1029972   7.100   5.227   2.250 -0.9164 -0.2158 -0.2949
  212MOL    O1129973   7.110   5.369   2.275  0.8417 -0.0890  0.1971
  212MOL    H1229974   6.990   5.222   2.061 -0.0489  1.0959 -0.0052
  212MOL    H1329975   7.098   5.097   2.081  1.2612 -0.0393  1.1156
  212MOL    H1429976   7.194   5.182   2.282 -0.7495  0.8458  0.7652
  212MOL    H1529977   7.199   5.398   2.283  1.0473 -0.6285 -0.0707
  212MOL    C1629978   6.977   5.176   2.325 -0.1732  0.8763 -0.2780
  212MOL    C1729979   6.981   5.175   2.479 -0.0929  0.4769 -0.6237
  212MOL    O1829980   6.984   5.304   2.525  0.2521 -0.7868  0.1970
  212MOL    H1929981   6.893   5.234   2.287  0.5381  1.4097 -1.0652
  212MOL    H2029982   6.968   5.071   2.299 -1.7790 -0.0013  3.5002
  212MOL    H2129983   7.074   5.121   2.497 -1.3625 -2.2331 -1.9628
  212MOL    H2229984   7.069   5.334   2.497  0.0378 -2.2990 -2.1450
  212MOL    C2329985   6.873   5.099   2.561 -0.1616 -0.3323  0.4133
  212MOL    C2429986   6.731   5.113   2.509  0.2276  0.6831  0.1773
  212MOL    O2529987   6.661   4.989   2.530 -0.4718 -0.3644  0.3055
  212MOL    H2629988   6.903   4.995   2.572 -0.1327 -0.2283  1.3910
  212MOL    H2729989   6.874   5.132   2.665 -1.6178 -0.9876  0.6473
  212MOL    H2829990   6.719   5.134   2.403  0.0391  2.6288  0.5478
  212MOL    H2929991   6.568   5.003   2.534 -0.7116 -2.1839  1.6395
  212MOL    C3029992   6.651   5.234   2.586  0.0895  0.2979 -0.4118
  212MOL    C3129993   6.511   5.259   2.522  0.6682 -0.6211 -0.2256
  212MOL    O3229994   6.427   5.151   2.560 -0.9881  0.4115 -1.1939
  212MOL    H3329995   6.644   5.199   2.689 -1.5756 -1.3528 -1.0771
  212MOL    H3429996   6.713   5.324   2.586  0.7381 -0.1395  0.5407
  212MOL    H3529997   6.516   5.245   2.414 -0.2990 -1.0264 -0.2316
  212MOL    H3629998   6.412   5.159   2.653  2.4215  0.7608 -0.5842
  212MOL    C3729999   6.448   5.402   2.554  0.3251  0.2186 -0.9303
  212MOL    C3830000   6.310   5.431   2.486 -1.2418  0.6342  0.6990
  212MOL    O3930001   6.206   5.359   2.544 -0.1890 -0.4814 -0.4781
  212MOL    H4030002   6.439   5.401   2.662 -1.4750  0.3587 -1.0697
  212MOL    H4130003   6.525   5.479   2.541  0.2309  0.5331  0.3637
  212MOL    H4230004   6.321   5.412   2.379  0.5624  1.2135  0.7528
  212MOL    H4330005   6.209   5.269   2.516  0.2193 -0.1218 -1.6369
  212MOL    C4430006   6.272   5.582   2.479  0.1412 -0.3319 -0.0015
  212MOL    C4530007   6.363   5.668   2.381  0.2133 -0.5355  0.7444
  212MOL    O4630008   6.339   5.636   2.246 -0.1518  0.6693  0.4787
  212MOL    H4730009   6.172   5.594   2.437 -0.2165  0.9654  1.1684
  212MOL    H4830010   6.272   5.629   2.577  1.4006  0.1622 -0.2396
  212MOL    H4930011   6.469   5.667   2.408  0.8122  1.8022 -1.3935
  212MOL    H5030012   6.347   5.542   2.238  2.6073  0.7512  1.6374
  212MOL    C5130013   6.339   5.818   2.414  0.1974 -0.3294  0.4984
  212MOL    C5230014   6.425   5.918   2.336 -0.0164 -0.1660 -0.7276
  212MOL    O5330015   6.404   5.898   2.202 -0.2116  0.7595 -0.3016
  212MOL    H5430016   6.235   5.839   2.391 -0.2593 -3.4292 -0.5660
  212MOL    H5530017   6.363   5.827   2.520 -1.5337 -4.1736  1.3146
  212MOL    H5630018   6.530   5.902   2.358  0.7407  3.2401 -1.7120
  212MOL    H5730019   6.375   5.810   2.187 -0.2834  0.5888  0.8667
  212MOL    C5830020   6.393   6.063   2.367  0.0537 -0.4179  0.0490
  212MOL    C5930021   6.351   6.100   2.513  0.2083  0.6229 -0.0874
  212MOL    O6030022   6.468   6.094   2.583  0.5071 -0.1642  0.3755
  212MOL    H6130023   6.470   6.129   2.326  2.7824 -3.7956 -0.5314
  212MOL    H6230024   6.306   6.078   2.303  0.2008 -2.6333 -0.7112
  212MOL    H6330025   6.281   6.027   2.554  1.2441 -0.7186 -0.6460
  212MOL    H6430026   6.531   6.123   2.518 -1.5802 -0.9222 -2.0669
  212MOL    C6530027   6.292   6.242   2.514 -0.0885  0.3357  0.1902
  212MOL    C6630028   6.241   6.298   2.651 -0.1906 -0.2357  0.4739
  212MOL    O6730029   6.188   6.421   2.622 -0.3312 -0.3027 -0.6661
  212MOL    H6830030   6.365   6.305   2.463  0.3049 -1.2224 -1.2375
  212MOL    H6930031   6.211   6.239   2.441 -0.1391  1.8576  0.1779
  212MOL    H7030032   6.329   6.308   2.715  0.2281 -3.1424  0.4455
  212MOL    H7130033   6.123   6.432   2.690 -0.6836 -0.0186 -1.0515
  212MOL    C7230034   6.125   6.221   2.726 -0.0528 -0.7514  0.3749
  212MOL    C7330035   6.091   6.271   2.866 -0.0785 -0.2848  0.8994
  212MOL    O7430036   6.052   6.408   2.857  0.2617  0.7119  0.3295
  212MOL    H7530037   6.031   6.228   2.671  1.0873  2.7465 -1.2272
  212MOL    H7630038   6.133   6.112   2.728 -0.0707 -0.8044 -1.5937
  212MOL    H7730039   6.182   6.278   2.926  1.6168 -0.6237 -1.5873
  212MOL    H7830040   6.047   6.444   2.945  3.4373  2.6488 -0.2113
  212MOL    C7930041   5.976   6.191   2.932 -0.5315 -0.5411  0.9324
  212MOL    C8030042   6.011   6.081   3.022 -0.1079  0.7259  0.3864
  212MOL    O8130043   5.903   5.991   3.046 -0.2182  0.4234 -0.0256
  212MOL    H8230044   5.911   6.254   2.992 -0.5034  0.4911 -0.0930
  212MOL    H8330045   5.923   6.150   2.846  4.5248  0.5885 -3.0222
  212MOL    H8430046   6.032   6.121   3.122 -1.2482  1.5880  0.2982
  212MOL    H8530047   5.840   6.043   3.093  1.0813  0.7731  1.3647
  212MOL    C8630048   6.119   5.991   2.966 -0.7734 -0.6357  0.2082
  212MOL    C8730049   6.178   5.887   3.062 -0.1300 -0.2563  0.2818
  212MOL    O8830050   6.247   5.804   2.980 -0.0756  0.1785  0.2595
  212MOL    H8930051   6.075   5.937   2.882  0.8164 -0.5474 -0.7020
  212MOL    H9030052   6.195   6.056   2.923 -2.3275 -0.5958 -2.5551
  212MOL    H9130053   6.093   5.841   3.113  1.8148 -1.7009  2.3311
  212MOL    H9230054   6.180   5.750   2.941  0.7122 -1.2267  0.7833
  212MOL    C9330055   6.282   5.934   3.174 -0.4047 -0.5589  0.2423
  212MOL    C9430056   6.338   5.817   3.262  0.0700 -0.1909  0.0928
  212MOL    O9530057   6.453   5.876   3.318 -0.2907 -0.0126  0.4673
  212MOL    H9630058   6.357   5.999   3.129 -0.1919 -1.9027 -1.4110
  212MOL    H9730059   6.239   5.999   3.250  0.0118  0.7014 -0.5873
  212MOL    H9830060   6.359   5.728   3.202  0.5671  0.0134 -0.0358
  212MOL    H9930061   6.499   5.806   3.362  1.1566  0.7153  0.1430
  212MOL   C10030062   6.242   5.750   3.359  0.4644 -0.6160 -0.8156
  212MOL   C10130063   6.262   5.601   3.399 -0.0468 -0.7068 -0.4728
  212MOL   O10230064   6.319   5.610   3.529 -0.1341 -0.2320 -0.1560
  212MOL   H10330065   6.211   5.813   3.442  0.4725  0.7262 -1.7931
  212MOL   H10430066   6.152   5.741   3.298 -0.4978 -0.0400  0.4931
  212MOL   H10530067   6.332   5.547   3.335 -0.1870 -0.0716 -1.1723
  212MOL   H10630068   6.290   5.538   3.583  0.2460  0.7770  1.4360
  212MOL   C10730069   6.129   5.520   3.398  0.3469 -0.2167  0.2595
  212MOL   C10830070   6.150   5.372   3.438  0.0319 -0.4489  0.1574
  212MOL   O10930071   6.170   5.379   3.576  0.0264  0.4869 -0.3664
  212MOL   H11030072   6.063   5.564   3.473 -1.1826  0.6172 -1.5413
  212MOL   H11130073   6.086   5.532   3.298  1.1712 -0.5430 -0.1373
  212MOL   H11230074   6.235   5.314   3.401  0.8819 -0.7309  2.4508
  212MOL   H11330075   6.195   5.296   3.613 -1.9283  0.9794  2.2521
  212MOL   C11430076   6.021   5.294   3.413 -0.2559 -0.1546 -0.0975
  212MOL   C11530077   6.012   5.139   3.425  0.1513  0.0654 -0.0259
  212MOL   O11630078   5.870   5.125   3.399 -0.3838 -0.0513 -0.1800
  212MOL   H11730079   5.929   5.336   3.452 -2.0169 -2.3511 -1.7452
  212MOL   H11830080   5.996   5.315   3.310  0.4347 -0.4017 -0.3193
  212MOL   H11930081   6.032   5.100   3.525 -0.6598  1.1024  0.5448
  212MOL   H12030082   5.857   5.033   3.418  3.9932 -1.0057 -1.2868
  212MOL   C12130083   6.088   5.062   3.319  0.2075  0.0589  0.2986
  212MOL   C12230084   6.109   4.905   3.335 -0.0443  0.0865  0.3284
  212MOL   O12330085   6.164   4.861   3.212  0.2970 -0.1257  0.4532
  212MOL   H12430086   6.025   5.083   3.233 -2.7648  1.5625  2.7432
  212MOL   H12530087   6.182   5.114   3.298  0.6066 -0.6190  0.3601
  212MOL   H12630088   6.016   4.853   3.358  0.9218 -1.1112  1.7088
  212MOL   H12730089   6.093   4.838   3.155 -0.8662 -0.0116  1.8407
  212MOL   C12830090   6.202   4.872   3.455 -0.3189 -0.0694 -0.4473
  212MOL   C12930091   6.203   4.722   3.497  0.7079  0.1125  0.1678
  212MOL   O13030092   6.328   4.703   3.568  0.3021 -0.0026 -0.2586
  212MOL   H13130093   6.304   4.901   3.430  0.0078 -0.3783  0.5072
  212MOL   H13230094   6.189   4.937   3.542 -1.5338  0.4480 -0.9975
  212MOL   H13330095   6.202   4.658   3.409 -0.6646  2.1827 -1.3707
  212MOL   H13430096   6.333   4.768   3.636 -0.7641 -1.0239  0.8168
  212MOL   C13530097   6.090   4.698   3.596  0.0708  0.0229  0.5212
  212MOL   C13630098   6.085   4.552   3.652 -0.3287  0.2055  1.0392
  212MOL   O13730099   5.965   4.532   3.718  0.5014  0.3964  0.2089
  212MOL   H13830100   6.100   4.775   3.673 -1.3974  0.8220 -0.0622
  212MOL   H13930101   5.993   4.726   3.555  0.4540  0.4759 -0.0962
  212MOL   H14030102   6.162   4.526   3.725 -2.1359 -6.7413  0.8858
  212MOL   H14130103   5.957   4.604   3.779 -2.2715 -0.5726  1.0753
  212MOL   H14230104   6.083   4.468   3.581 -0.2516  0.0973  1.1639
  213MOL     C130105   2.260   5.663   4.390 -0.5394 -0.8712  0.1002
  213MOL     C230106   2.240   5.532   4.317  0.0611  0.4113  0.5052
  213MOL     O330107   2.305   5.550   4.192 -0.1792  0.1801 -0.0659
  213MOL     H430108   2.232   5.740   4.318  1.2559 -1.7922 -1.6487
  213MOL     H530109   2.367   5.676   4.406 -0.6771  0.1897  0.2034
  213MOL     H630110   2.136   5.508   4.295  0.5647  1.1320 -2.8979
  213MOL     H730111   2.296   5.642   4.172 -2.1626 -0.3366 -1.7729
  213MOL     H830112   2.204   5.663   4.483  1.9093 -0.9735  1.6002
  213MOL     C930113   2.293   5.406   4.390 -0.2897 -0.4607 -0.8836
  213MOL    C1030114   2.231   5.374   4.534  0.4455  0.4769  0.0730
  213MOL    O1130115   2.090   5.356   4.528  0.0213  0.0879  0.3940
  213MOL    H1230116   2.288   5.318   4.326 -1.5946  1.8423 -4.0467
  213MOL    H1330117   2.394   5.439   4.415 -1.4224  2.5319  0.0315
  213MOL    H1430118   2.245   5.459   4.601 -0.4733  1.4958 -1.0078
  213MOL    H1530119   2.072   5.272   4.489 -1.0336 -0.6010  2.3293
  213MOL    C1630120   2.285   5.245   4.606  0.8068 -0.5068  0.1132
  213MOL    C1730121   2.438   5.239   4.624  0.4657  0.4831 -0.0253
  213MOL    O1830122   2.466   5.165   4.750 -0.4277 -0.1009 -0.1525
  213MOL    H1930123   2.238   5.232   4.704  0.0852  1.2129  0.0167
  213MOL    H2030124   2.265   5.158   4.544  0.1169  0.6915 -1.3541
  213MOL    H2130125   2.481   5.340   4.627  3.4111 -0.7266  0.5687
  213MOL    H2230126   2.549   5.124   4.732 -0.2778  1.1391 -2.6217
  213MOL    C2330127   2.500   5.160   4.504  0.5430 -0.1396  0.0348
  213MOL    C2430128   2.650   5.135   4.518 -0.3416 -0.2064  0.5599
  213MOL    O2530129   2.696   5.056   4.627 -0.1729 -0.3560 -0.5246
  213MOL    H2630130   2.446   5.066   4.491  2.7877 -1.3832 -0.4885
  213MOL    H2730131   2.477   5.213   4.411  1.2165  0.7285  0.3535
  213MOL    H2830132   2.698   5.232   4.532  0.2253 -0.2376 -0.9641
  213MOL    H2930133   2.771   5.100   4.665  0.5866 -1.8144 -0.3169
  213MOL    C3030134   2.700   5.068   4.387  0.3540  0.0443 -0.1501
  213MOL    C3130135   2.814   5.148   4.318  0.4156  0.0549  1.0245
  213MOL    O3230136   2.918   5.064   4.274 -0.0994  0.1248 -0.3947
  213MOL    H3330137   2.736   4.967   4.405 -1.7130 -0.7673 -0.4023
  213MOL    H3430138   2.616   5.060   4.318 -0.0761 -0.9447  0.4856
  213MOL    H3530139   2.865   5.205   4.396 -0.7892  1.9066  0.4903
  213MOL    H3630140   2.932   4.997   4.339  0.2118  1.0139  0.4579
  213MOL    C3730141   2.770   5.247   4.203  0.1032  0.4463 -1.3823
  213MOL    C3830142   2.661   5.355   4.232 -0.1814 -0.1764 -0.3692
  213MOL    O3930143   2.682   5.427   4.356 -0.5009  0.0185 -0.1707
  213MOL    H4030144   2.860   5.299   4.170 -0.0620  2.1884  0.8100
  213MOL    H4130145   2.734   5.190   4.117  2.2526 -1.5329 -1.0049
  213MOL    H4230146   2.560   5.324   4.256 -0.5857  1.4568  0.1193
  213MOL    H4330147   2.776   5.432   4.362 -0.6192  1.7139  0.3792
  213MOL    C4430148   2.654   5.463   4.122  0.2224 -0.3308  0.1004
  213MOL    C4530149   2.611   5.428   3.977  0.3962 -0.2355 -0.4808
  213MOL    O4630150   2.471   5.394   3.966 -0.0863 -0.2197 -0.1980
  213MOL    H4730151   2.591   5.548   4.145 -0.2930 -0.7886  0.3917
  213MOL    H4830152   2.755   5.503   4.119  0.2838 -0.4054  0.9798
  213MOL    H4930153   2.661   5.336   3.948 -0.1336 -1.8358  3.3056
  213MOL    H5030154   2.424   5.445   4.030 -0.8801 -1.2091  0.0215
  213MOL    C5130155   2.651   5.545   3.881  0.0041 -0.0043  0.5801
  213MOL    C5230156   2.662   5.530   3.721  0.2805  0.1324 -1.2228
  213MOL    O5330157   2.531   5.558   3.665  0.0550  0.2169  0.2962
  213MOL    H5430158   2.586   5.630   3.903  1.2428  1.2664 -0.5406
  213MOL    H5530159   2.754   5.565   3.911 -0.3128  0.3103  1.4582
  213MOL    H5630160   2.686   5.426   3.702 -1.8472 -0.3298 -1.4754
  213MOL    H5730161   2.530   5.519   3.579  2.1078  1.3413 -0.2472
  213MOL    C5830162   2.768   5.624   3.660  0.2456  0.5147  0.0153
  213MOL    C5930163   2.785   5.596   3.513 -0.8438 -0.0742  0.3208
  213MOL    O6030164   2.787   5.717   3.446  0.2505 -0.1757 -0.6786
  213MOL    H6130165   2.748   5.728   3.686 -2.3071  0.8143 -2.8284
  213MOL    H6230166   2.860   5.598   3.713  0.2543  1.3757  0.4362
  213MOL    H6330167   2.699   5.535   3.486  0.2482 -0.5957 -2.0823
  213MOL    H6430168   2.875   5.753   3.447  0.3685 -0.4778  0.1399
  213MOL    C6530169   2.918   5.527   3.465  0.1153 -0.1292 -0.0690
  213MOL    C6630170   2.936   5.385   3.524 -0.3923  0.7720 -0.3276
  213MOL    O6730171   2.856   5.294   3.458  0.4754 -0.3372 -0.0430
  213MOL    H6830172   2.915   5.517   3.356  1.5415  1.2096 -0.2522
  213MOL    H6930173   3.006   5.588   3.480  0.6345 -1.0624  0.6925
  213MOL    H7030174   2.905   5.373   3.628  4.8355  1.0507  1.4331
  213MOL    H7130175   2.865   5.207   3.496  4.5800 -0.7784 -1.8426
  213MOL    C7230176   3.083   5.336   3.523 -0.1075  0.2651  1.1853
  213MOL    C7330177   3.167   5.338   3.393  0.6309  0.2364  0.5918
  213MOL    O7430178   3.308   5.362   3.414 -0.4187  0.0194  0.1132
  213MOL    H7530179   3.135   5.419   3.571 -0.3090  0.7485  0.5663
  213MOL    H7630180   3.093   5.235   3.564  0.9905 -1.1365 -2.4104
  213MOL    H7730181   3.134   5.423   3.334 -1.7838  0.2161  1.8575
  213MOL    H7830182   3.355   5.283   3.433  1.1667  1.2543  1.5594
  213MOL    C7930183   3.156   5.212   3.309  0.8048  0.3387  0.7939
  213MOL    C8030184   3.173   5.234   3.159 -0.5678 -0.4219  0.0907
  213MOL    O8130185   3.164   5.107   3.097 -0.3331  0.2986 -0.1989
  213MOL    H8230186   3.223   5.139   3.354 -1.8492 -1.3229  2.1463
  213MOL    H8330187   3.054   5.175   3.316 -0.8286  4.0512 -1.6498
  213MOL    H8430188   3.273   5.271   3.135 -0.1688 -1.2766  0.4228
  213MOL    H8530189   3.253   5.076   3.087 -0.0822  0.9248  0.1123
  213MOL    C8630190   3.072   5.331   3.093 -0.4750 -0.1955 -0.5604
  213MOL    C8730191   3.070   5.335   2.946 -0.4630  0.4549 -0.5837
  213MOL    O8830192   2.966   5.420   2.918  0.5069 -0.3976  0.5265
  213MOL    H8930193   2.973   5.299   3.127  0.1209 -1.1443  0.2925
  213MOL    H9030194   3.075   5.429   3.141  0.3783 -1.1597  1.4024
  213MOL    H9130195   3.034   5.237   2.915 -1.5245  0.4451  0.6427
  213MOL    H9230196   2.880   5.382   2.926  0.5622 -0.4547  0.8627
  213MOL    C9330197   3.197   5.356   2.867 -0.3381  0.3066  0.4841
  213MOL    C9430198   3.172   5.363   2.713 -0.5425 -0.1182 -0.0762
  213MOL    O9530199   3.233   5.477   2.666  0.2157  0.4038  0.9224
  213MOL    H9630200   3.259   5.443   2.891  0.3575  0.0740 -0.4262
  213MOL    H9730201   3.270   5.277   2.884 -0.8770 -0.1018  0.8920
  213MOL    H9830202   3.067   5.374   2.686  0.0474  1.4746 -1.8593
  213MOL    H9930203   3.208   5.481   2.575  0.9938 -0.1106  0.6749
  213MOL   C10030204   3.222   5.238   2.637  0.7511 -0.7044  0.4075
  213MOL   C10130205   3.172   5.102   2.691 -0.0895 -0.1218 -0.5501
  213MOL   O10230206   3.034   5.088   2.693 -0.1794 -0.3224 -0.2747
  213MOL   H10330207   3.181   5.245   2.537 -1.5462 -0.7141  1.3153
  213MOL   H10430208   3.330   5.233   2.625  0.5058 -0.6060 -2.0958
  213MOL   H10530209   3.208   5.090   2.794 -0.7347  1.8348 -0.0752
  213MOL   H10630210   3.008   5.049   2.775 -2.5875  0.1083 -0.8149
  213MOL   C10730211   3.219   4.975   2.608 -0.2364  0.0687 -0.6013
  213MOL   C10830212   3.367   4.951   2.624 -0.4254  0.5333  0.6784
  213MOL   O10930213   3.397   4.894   2.752 -0.5023 -1.3050 -0.6430
  213MOL   H11030214   3.175   4.884   2.647  1.5839 -0.9541 -0.8694
  213MOL   H11130215   3.195   4.972   2.501 -1.1840 -2.0825 -0.3508
  213MOL   H11230216   3.424   5.043   2.618 -1.1557  0.8843 -1.2175
  213MOL   H11330217   3.348   4.814   2.759 -0.8303 -1.1619 -1.2587
  213MOL   C11430218   3.431   4.872   2.503  0.4705 -0.1561 -0.7807
  213MOL   C11530219   3.365   4.732   2.461  0.4449 -0.3575 -0.0834
  213MOL   O11630220   3.336   4.726   2.319  0.7063 -0.3754  0.1973
  213MOL   H11730221   3.426   4.946   2.423 -1.7336  0.8736  0.2737
  213MOL   H11830222   3.532   4.844   2.532  0.0256 -0.4707  0.4782
  213MOL   H11930223   3.266   4.731   2.505  1.1120 -0.7232  1.4218
  213MOL   H12030224   3.379   4.791   2.266 -0.3561 -1.7108 -2.4136
  213MOL   C12130225   3.443   4.614   2.512  0.1237  0.0888 -0.4757
  213MOL   C12230226   3.361   4.481   2.527  0.4677  0.1116 -0.1991
  213MOL   O12330227   3.455   4.381   2.552  0.2178  0.0709  0.3842
  213MOL   H12430228   3.522   4.596   2.439  0.1465  0.4140 -0.5314
  213MOL   H12530229   3.502   4.623   2.603 -1.1215 -0.7850  0.4273
  213MOL   H12630230   3.323   4.452   2.428  1.3541 -1.5006 -0.0898
  213MOL   H12730231   3.501   4.403   2.632  1.4148 -0.8685 -0.0332
  213MOL   C12830232   3.235   4.479   2.618  0.1034 -0.4060 -0.0610
  213MOL   C12930233   3.272   4.476   2.770 -0.5219 -0.5466  0.5713
  213MOL   O13030234   3.325   4.610   2.808 -0.4340  0.1168 -0.0804
  213MOL   H13130235   3.175   4.565   2.590  0.4879 -0.1565 -0.1165
  213MOL   H13230236   3.180   4.387   2.598  2.1470 -1.6673  0.0209
  213MOL   H13330237   3.340   4.394   2.794  3.4412  1.3445 -3.5615
  213MOL   H13430238   3.407   4.599   2.853 -0.9426 -1.7784  0.3934
  213MOL   C13530239   3.142   4.459   2.852  0.3398 -0.8206  0.1441
  213MOL   C13630240   3.162   4.470   3.003  0.5617  0.0871 -0.0401
  213MOL   O13730241   3.044   4.429   3.071  0.1949 -0.7007 -0.8296
  213MOL   H13830242   3.064   4.529   2.821  1.5791  0.4472 -0.1683
  213MOL   H13930243   3.111   4.356   2.834 -0.9057 -0.2756 -0.9910
  213MOL   H14030244   3.188   4.571   3.034 -3.0211  1.4898 -1.4323
  213MOL   H14130245   2.983   4.501   3.066  1.9293  0.8840  0.0035
  213MOL   H14230246   3.239   4.399   3.034  1.9979 -0.3037 -4.2576
  214MOL     C130247   3.168   2.818   7.026  0.7235 -0.0321  0.2039
  214MOL     C230248   3.294   2.783   7.104 -0.4113  0.3493 -0.2135
  214MOL     O330249   3.409   2.796   7.017  0.2419 -0.0227 -0.4022
  214MOL     H430250   3.078   2.823   7.087 -0.9393  0.7177 -2.2343
  214MOL     H530251   3.157   2.764   6.931  0.1214 -0.8645  0.7417
  214MOL     H630252   3.284   2.682   7.143 -0.8367  0.3749 -0.2540
  214MOL     H730253   3.383   2.738   6.947 -0.6380 -3.0288  2.2821
  214MOL     H830254   3.175   2.921   6.991  0.5760 -0.8251 -2.3042
  214MOL     C930255   3.311   2.883   7.224  0.4997  0.2018  0.5441
  214MOL    C1030256   3.427   2.847   7.312 -0.5992  0.3370 -0.0482
  214MOL    O1130257   3.548   2.875   7.249 -0.6764  0.1054 -0.7189
  214MOL    H1230258   3.335   2.984   7.193  1.7177  0.4288  2.1420
  214MOL    H1330259   3.218   2.875   7.281  0.5687 -2.0141  0.3991
  214MOL    H1430260   3.417   2.740   7.328  1.0559  0.4219  1.7667
  214MOL    H1530261   3.528   2.861   7.158  0.7431  0.5898 -1.1122
  214MOL    C1630262   3.427   2.921   7.451 -0.1146 -0.2915 -0.1287
  214MOL    C1730263   3.507   2.865   0.044 -0.1095 -0.1481  0.3487
  214MOL    O1830264   3.546   2.732   0.014 -0.2823 -0.4432 -0.3053
  214MOL    H1930265   3.446   3.027   7.437 -1.0483 -0.2728 -1.3674
  214MOL    H2030266   3.324   2.918   7.489 -0.1043 -2.9238 -0.1990
  214MOL    H2130267   3.441   2.848   0.128  0.6492 -0.6565  0.8487
  214MOL    H2230268   3.471   2.676   0.019 -0.8966  0.4721  1.1744
  214MOL    C2330269   3.621   2.950   0.101  0.1953 -0.1497 -0.1183
  214MOL    C2430270   3.752   2.964   0.028  0.1045 -0.0110  0.0387
  214MOL    O2530271   3.729   3.015   7.414 -0.7228 -0.2805  0.4594
  214MOL    H2630272   3.582   3.048   0.128  1.8373  0.3022  0.7049
  214MOL    H2730273   3.645   2.897   0.193 -0.3039 -0.6048 -0.2507
  214MOL    H2830274   3.806   2.869   0.034  0.7131  0.3734  0.8305
  214MOL    H2930275   3.675   2.952   7.369 -1.6559  0.4078  0.6303
  214MOL    C3030276   3.846   3.064   0.099 -0.1233 -0.0175  0.3170
  214MOL    C3130277   3.990   3.084   0.048 -0.8774  0.3011  0.2211
  214MOL    O3230278   4.052   3.206   0.093 -0.2110 -0.3271 -0.1972
  214MOL    H3330279   3.794   3.159   0.085 -1.3108 -0.9368 -1.9633
  214MOL    H3430280   3.847   3.038   0.205  1.1678 -0.7617  0.1338
  214MOL    H3530281   3.987   3.094   7.459 -1.4187  0.1521  0.2182
  214MOL    H3630282   4.044   3.203   0.187  1.8858 -1.1749 -0.0420
  214MOL    C3730283   4.090   2.978   0.098  0.2841  0.3696  0.9078
  214MOL    C3830284   4.224   2.971   0.020 -0.3188 -0.9365 -0.3579
  214MOL    O3930285   4.308   3.076   0.067  0.3755 -0.8489  0.0623
  214MOL    H4030286   4.114   2.979   0.205  0.4418  0.8932  0.8703
  214MOL    H4130287   4.027   2.892   0.078 -0.3813  1.0401  0.0966
  214MOL    H4230288   4.202   2.985   7.433  2.5650 -2.2912 -1.1839
  214MOL    H4330289   4.251   3.151   0.072  3.3584  1.6620 -1.6741
  214MOL    C4430290   4.288   2.835   0.034 -0.4832  0.0500 -0.1594
  214MOL    C4530291   4.231   2.726   7.459 -0.9996 -0.8400 -0.4056
  214MOL    O4630292   4.261   2.767   7.321  0.1260  0.2497 -0.5245
  214MOL    H4730293   4.396   2.844   0.020 -0.5798 -1.5670 -2.2465
  214MOL    H4830294   4.290   2.813   0.140 -0.4825 -0.4407 -0.2594
  214MOL    H4930295   4.123   2.720   7.469 -1.0184 -0.5753 -0.4634
  214MOL    H5030296   4.265   2.692   7.264 -1.1574  0.4902 -0.9540
  214MOL    C5130297   4.300   2.586   7.480 -0.4029  0.6353  0.4078
  214MOL    C5230298   4.227   2.459   7.427 -0.2124 -0.9880  0.5581
  214MOL    O5330299   4.241   2.447   7.288 -0.4856  0.0007 -0.2454
  214MOL    H5430300   4.408   2.574   7.466 -0.3586  0.1305  1.1369
  214MOL    H5530301   4.298   2.573   0.069  0.3083  0.3114  0.3897
  214MOL    H5630302   4.123   2.469   7.461  0.7738  0.9017  3.2102
  214MOL    H5730303   4.200   2.362   7.278  1.1454 -0.8544  0.2444
  214MOL    C5830304   4.276   2.329   7.495  0.1696 -0.4066 -0.7589
  214MOL    C5930305   4.206   2.195   7.459  0.3382 -0.2033  0.2356
  214MOL    O6030306   4.228   2.171   7.325 -0.3815  0.4710 -0.3627
  214MOL    H6130307   4.381   2.312   7.470 -0.0757 -1.1158 -1.3295
  214MOL    H6230308   4.266   2.344   0.083  0.1063  1.3713 -0.9949
  214MOL    H6330309   4.100   2.217   7.472 -0.0061 -0.1359 -2.4659
  214MOL    H6430310   4.155   2.115   7.303 -0.4492  1.2316 -2.1891
  214MOL    C6530311   4.241   2.064   0.016  0.1727 -0.6135 -0.6764
  214MOL    C6630312   4.175   2.047   0.155  0.0055 -0.0650 -0.2414
  214MOL    O6730313   4.036   2.027   0.131  0.0764  0.1595 -0.2463
  214MOL    H6830314   4.206   1.978   7.479  0.0650 -1.6796  0.9856
  214MOL    H6930315   4.350   2.053   0.020  0.1642  0.0094  2.0466
  214MOL    H7030316   4.197   2.135   0.216 -1.8451 -0.3303  0.8716
  214MOL    H7130317   3.976   2.049   0.201  0.6787  1.7980 -0.2379
  214MOL    C7230318   4.220   1.917   0.230  0.4451 -0.1162 -1.0287
  214MOL    C7330319   4.374   1.902   0.250 -0.1523  0.3857 -0.3818
  214MOL    O7430320   4.439   2.023   0.296  0.0113 -0.4159  0.3040
  214MOL    H7530321   4.167   1.927   0.325  1.7112 -1.1808 -0.1738
  214MOL    H7630322   4.188   1.827   0.177 -1.4963 -1.1831  1.7897
  214MOL    H7730323   4.406   1.891   0.146 -1.8718 -1.9529 -0.7305
  214MOL    H7830324   4.384   2.060   0.363 -0.0820 -0.2072  0.1129
  214MOL    C7930325   4.411   1.783   0.337  0.1344 -0.7009 -0.5983
  214MOL    C8030326   4.352   1.644   0.290 -0.0409 -0.0066  0.3981
  214MOL    O8130327   4.463   1.560   0.321 -0.4911 -0.2700 -0.4518
  214MOL    H8230328   4.520   1.777   0.340  0.1946  0.4414  0.2623
  214MOL    H8330329   4.380   1.805   0.439  4.2839 -1.3684  0.9188
  214MOL    H8430330   4.334   1.643   0.182 -0.1739  2.5306  0.3448
  214MOL    H8530331   4.442   1.528   0.408  0.1072 -1.8718 -0.8726
  214MOL    C8630332   4.220   1.607   0.348 -0.2352  0.1728  0.5338
  214MOL    C8730333   4.167   1.458   0.320  0.8198 -0.5334 -0.6786
  214MOL    O8830334   4.063   1.439   0.414 -0.1160 -0.3779  0.0037
  214MOL    H8930335   4.228   1.607   0.457  0.2011  0.7100  0.5061
  214MOL    H9030336   4.131   1.664   0.321  0.9952  1.6950 -0.3651
  214MOL    H9130337   4.240   1.383   0.348 -2.7423 -3.5015  1.0687
  214MOL    H9230338   4.101   1.378   0.476  0.7323  0.4421  0.2865
  214MOL    C9330339   4.127   1.436   0.174  0.0795 -0.9971  0.1352
  214MOL    C9430340   4.147   1.291   0.120  0.3059  0.1156  0.0547
  214MOL    O9530341   4.283   1.247   0.100  0.8350  0.1562 -0.5347
  214MOL    H9630342   4.025   1.464   0.150  0.8928 -0.5342 -2.9036
  214MOL    H9730343   4.191   1.492   0.106  1.2990 -0.9962  1.2656
  214MOL    H9830344   4.097   1.287   0.024 -1.9047  0.4340  1.1728
  214MOL    H9930345   4.328   1.307   0.043 -0.0918  1.9111  0.5249
  214MOL   C10030346   4.074   1.187   0.211 -0.9985  0.4567 -0.3958
  214MOL   C10130347   3.923   1.199   0.223 -1.0290  0.3640  0.0351
  214MOL   O10230348   3.873   1.262   0.108 -0.2609  0.6551  0.1500
  214MOL   H10330349   4.088   1.091   0.161 -0.0606 -0.9300  2.4311
  214MOL   H10430350   4.128   1.187   0.306  0.4567  0.6395 -1.2151
  214MOL   H10530351   3.904   1.246   0.319  0.6713  0.1421  0.4863
  214MOL   H10630352   3.853   1.199   0.040  2.5039 -1.3975  1.1717
  214MOL   C10730353   3.850   1.060   0.230 -0.6364  0.5704  0.5676
  214MOL   C10830354   3.896   0.964   0.346  0.2050 -0.0339  0.4919
  214MOL   O10930355   3.818   0.976   0.470  0.4878  0.2337  0.7689
  214MOL   H11030356   3.743   1.077   0.226 -0.7672 -0.4056 -0.1544
  214MOL   H11130357   3.871   1.009   0.136 -0.8849 -0.5719  1.1310
  214MOL   H11230358   4.004   0.965   0.362  0.1218  0.1534  1.0271
  214MOL   H11330359   3.813   0.886   0.497 -1.5126  0.5996  1.7227
  214MOL   C11430360   3.860   0.814   0.314 -0.0877 -0.1648  0.1073
  214MOL   C11530361   3.916   0.710   0.418  0.3867 -0.2299  0.5228
  214MOL   O11630362   3.838   0.707   0.540  0.1210  0.3408 -0.4185
  214MOL   H11730363   3.757   0.785   0.296  0.2442 -2.3280  1.5211
  214MOL   H11830364   3.911   0.789   0.222  0.8045  0.0261  0.5404
  214MOL   H11930365   4.013   0.739   0.458 -0.1283 -0.7084  2.1204
  214MOL   H12030366   3.752   0.675   0.519  0.3713 -1.9869  1.9051
  214MOL   C12130367   3.926   0.573   0.355  0.3159  0.4509  0.2333
  214MOL   C12230368   3.968   0.446   0.439 -0.8032 -0.5795 -0.1927
  214MOL   O12330369   3.938   0.341   0.351  0.6132 -0.3584 -0.0844
  214MOL   H12430370   3.828   0.544   0.318  1.0189 -0.6563 -0.8140
  214MOL   H12530371   3.996   0.574   0.270  1.5882  0.2607  1.2636
  214MOL   H12630372   3.914   0.443   0.534  2.4074  2.2089  1.8699
  214MOL   H12730373   3.960   0.265   0.402  0.0689  0.4954  1.4814
  214MOL   C12830374   4.119   0.441   0.466 -0.3181 -0.2150  0.1505
  214MOL   C12930375   4.169   0.355   0.584  0.0881  0.9546  0.6242
  214MOL   O13030376   4.137   0.221   0.553 -0.8938 -0.2847 -0.3049
  214MOL   H13130377   4.168   0.426   0.370 -0.9429  1.5698 -0.4879
  214MOL   H13230378   4.156   0.543   0.483  0.2640 -0.6010  1.2429
  214MOL   H13330379   4.117   0.384   0.676  0.8625 -0.3774  1.4975
  214MOL   H13430380   4.198   0.185   0.491 -0.6254 -0.7231  0.2178
  214MOL   C13530381   4.319   0.359   0.596  0.2536 -0.1043 -0.0001
  214MOL   C13630382   4.374   0.253   0.694 -0.6208 -0.5430  0.4349
  214MOL   O13730383   4.512   0.257   0.713 -0.1378 -0.2846  0.1335
  214MOL   H13830384   4.373   0.341   0.503 -2.3639  0.2663 -1.6391
  214MOL   H13930385   4.354   0.455   0.632 -2.6436  0.4669  1.3915
  214MOL   H14030386   4.364   0.152   0.656 -0.2532 -0.3119 -0.2890
  214MOL   H14130387   4.533   0.335   0.762 -0.6623  1.1658 -1.8859
  214MOL   H14230388   4.324   0.262   0.790  1.2638 -1.1284  1.5022
  215MOL     C130389   6.127   5.309   3.079  0.5735 -0.1796 -0.4524
  215MOL     C230390   6.202   5.420   2.998  0.0562 -0.0130 -0.0851
  215MOL     O330391   6.337   5.384   2.990 -0.4521 -0.4360 -0.1986
  215MOL     H430392   6.117   5.210   3.034 -2.6140  0.2484 -0.8015
  215MOL     H530393   6.031   5.351   3.109  1.8649  3.4931 -1.2453
  215MOL     H630394   6.191   5.513   3.054 -0.1623 -0.2874  0.3320
  215MOL     H730395   6.362   5.449   2.926  0.4990 -0.2810  0.3250
  215MOL     H830396   6.182   5.297   3.173  1.0744  0.4239 -0.6628
  215MOL     C930397   6.134   5.444   2.862  0.0857 -0.4138  0.5390
  215MOL    C1030398   5.997   5.524   2.863  0.9668  0.0692  0.4798
  215MOL    O1130399   6.033   5.648   2.925 -0.0288 -0.4699  1.0311
  215MOL    H1230400   6.206   5.485   2.791 -2.7861 -0.1692 -2.3255
  215MOL    H1330401   6.102   5.344   2.832 -2.6248  0.3741  0.6821
  215MOL    H1430402   5.923   5.486   2.934 -1.8209 -2.4664 -3.5283
  215MOL    H1530403   5.953   5.697   2.941  0.6778  0.8699  0.5024
  215MOL    C1630404   5.921   5.552   2.732  0.2350 -0.2029  0.3876
  215MOL    C1730405   5.883   5.433   2.645  0.4086 -0.3728 -0.4177
  215MOL    O1830406   5.762   5.376   2.692 -0.2775  0.0513  0.3027
  215MOL    H1930407   5.833   5.614   2.748  0.5891  0.4755 -0.2762
  215MOL    H2030408   5.983   5.621   2.675  1.0863 -0.1121  1.3976
  215MOL    H2130409   5.953   5.349   2.655  1.4004  0.3534 -1.1071
  215MOL    H2230410   5.793   5.306   2.748  2.2472  0.6847 -0.2246
  215MOL    C2330411   5.870   5.489   2.502 -0.5808  0.4749 -0.1962
  215MOL    C2430412   5.829   5.398   2.384 -0.1638  0.6360 -0.3868
  215MOL    O2530413   5.832   5.461   2.260 -0.1866  0.0495 -0.0976
  215MOL    H2630414   5.803   5.575   2.501 -0.4400  0.5868  0.0869
  215MOL    H2730415   5.966   5.532   2.472 -0.4795 -0.5179 -1.3413
  215MOL    H2830416   5.723   5.375   2.396  0.1656 -0.1647  1.1634
  215MOL    H2930417   5.785   5.543   2.258 -0.0274  0.1120 -2.9582
  215MOL    C3030418   5.911   5.268   2.359 -0.8682  0.4773  0.0696
  215MOL    C3130419   5.864   5.190   2.235 -0.5942  0.3310  0.3926
  215MOL    O3230420   5.929   5.243   2.123  0.5669  0.6639  0.0518
  215MOL    H3330421   6.017   5.292   2.348 -0.7383  0.3689  1.0330
  215MOL    H3430422   5.907   5.207   2.450 -0.1744 -0.9238 -0.8145
  215MOL    H3530423   5.759   5.202   2.209 -0.6370 -2.1643 -0.7484
  215MOL    H3630424   5.895   5.331   2.114 -0.1738  0.5609  1.7330
  215MOL    C3730425   5.886   5.040   2.228 -0.0159  0.0641  0.8343
  215MOL    C3830426   5.852   4.963   2.092  0.1899  0.5634  0.2271
  215MOL    O3930427   5.887   4.834   2.126  0.1595 -0.4040  0.3331
  215MOL    H4030428   5.986   5.002   2.251  0.0807 -0.1017  0.1625
  215MOL    H4130429   5.823   4.988   2.300 -0.8341  0.0473  0.1099
  215MOL    H4230430   5.918   4.983   2.008  1.1598  1.9431  1.2877
  215MOL    H4330431   5.976   4.820   2.095  0.4461  1.6934  0.1819
  215MOL    C4430432   5.705   4.955   2.040 -0.3088 -0.4182 -0.7167
  215MOL    C4530433   5.656   5.072   1.954  0.4634  0.4626 -0.6386
  215MOL    O4630434   5.731   5.088   1.835  0.0015 -0.4872  0.1092
  215MOL    H4730435   5.714   4.867   1.976  0.3393  0.3721 -1.7457
  215MOL    H4830436   5.626   4.944   2.115 -0.6631  0.5390 -0.9420
  215MOL    H4930437   5.663   5.160   2.017  0.3385 -0.1751  0.2761
  215MOL    H5030438   5.798   5.152   1.855 -0.9712  0.1364  1.4487
  215MOL    C5130439   5.504   5.053   1.908 -0.4249 -0.2141  0.0958
  215MOL    C5230440   5.397   5.049   2.023  0.7754 -0.1798  0.2778
  215MOL    O5330441   5.383   5.179   2.069  0.0652 -0.8783  0.4080
  215MOL    H5430442   5.478   5.113   1.821 -2.0162  1.4016  1.6451
  215MOL    H5530443   5.500   4.959   1.853 -2.0169  0.1957 -0.5164
  215MOL    H5630444   5.433   4.987   2.106 -0.0505  0.6661  1.2807
  215MOL    H5730445   5.313   5.187   2.131 -2.2950 -0.2490 -2.2511
  215MOL    C5830446   5.268   4.988   1.971  0.3076 -0.4154  0.2517
  215MOL    C5930447   5.170   4.950   2.089  0.0028  0.2876 -0.0117
  215MOL    O6030448   5.064   4.892   2.017  0.3431  0.1716  0.4682
  215MOL    H6130449   5.219   5.045   1.893  1.2668  1.5169  1.0301
  215MOL    H6230450   5.299   4.894   1.925 -1.4144 -1.0877  0.4495
  215MOL    H6330451   5.136   5.038   2.144 -1.9635  0.1828 -1.0160
  215MOL    H6430452   4.993   4.869   2.075  1.5201 -2.7710  0.8050
  215MOL    C6530453   5.218   4.833   2.185  0.1463 -0.1028 -0.2320
  215MOL    C6630454   5.105   4.745   2.263 -0.6117 -0.2848 -0.9361
  215MOL    O6730455   5.158   4.619   2.307  0.1593 -1.1039  0.5673
  215MOL    H6830456   5.282   4.771   2.122 -0.8045 -0.2550 -1.0568
  215MOL    H6930457   5.286   4.859   2.267  2.0249 -2.4791 -0.9533
  215MOL    H7030458   5.028   4.718   2.191 -1.9383  1.3481 -0.1778
  215MOL    H7130459   5.241   4.634   2.350  0.5559 -0.9362 -0.2539
  215MOL    C7230460   5.030   4.815   2.381  0.3787 -0.2944  0.3599
  215MOL    C7330461   4.936   4.936   2.347 -0.5916  0.1224  0.0757
  215MOL    O7430462   4.848   4.892   2.246 -0.2331 -0.5804  0.5026
  215MOL    H7530463   4.971   4.735   2.426  1.8208 -1.6335 -0.1081
  215MOL    H7630464   5.098   4.850   2.459  0.1794  1.3291 -0.1644
  215MOL    H7730465   4.998   5.018   2.311 -1.0103 -0.1390 -1.2911
  215MOL    H7830466   4.806   4.970   2.215  0.3518  0.2410  1.7318
  215MOL    C7930467   4.836   4.986   2.456 -0.3777  0.1383 -0.4125
  215MOL    C8030468   4.898   5.006   2.592  0.5572 -0.3701  0.1236
  215MOL    O8130469   4.993   5.107   2.593 -0.3637  0.5186  0.3247
  215MOL    H8230470   4.794   5.080   2.421 -0.2991 -0.1115 -1.1925
  215MOL    H8330471   4.757   4.911   2.468 -0.3046  0.3354  1.2914
  215MOL    H8430472   4.961   4.921   2.619  1.1364 -0.3546 -1.1452
  215MOL    H8530473   5.059   5.081   2.655  2.3410  2.0520 -1.7744
  215MOL    C8630474   4.799   5.023   2.711 -0.3002  0.6203 -0.0001
  215MOL    C8730475   4.712   5.147   2.712 -0.2773  0.5283  0.0614
  215MOL    O8830476   4.590   5.128   2.647 -0.2126 -0.4222  0.0261
  215MOL    H8930477   4.728   4.941   2.720 -0.6756  0.9876  0.3727
  215MOL    H9030478   4.855   5.012   2.804  2.3475 -3.2197 -1.9275
  215MOL    H9130479   4.762   5.230   2.661 -2.3167  2.0451  0.4599
  215MOL    H9230480   4.607   5.142   2.555 -0.7634  0.2841  0.0282
  215MOL    C9330481   4.688   5.200   2.850  0.0368 -0.3242 -0.3433
  215MOL    C9430482   4.633   5.345   2.846  0.1328 -0.8466  0.4267
  215MOL    O9530483   4.507   5.348   2.788 -0.0745 -0.2579 -0.0644
  215MOL    H9630484   4.622   5.136   2.909  1.5256 -2.0920 -0.5464
  215MOL    H9730485   4.780   5.209   2.907 -0.3805  1.8902  0.0325
  215MOL    H9830486   4.698   5.421   2.803  0.3703 -1.4872 -0.3493
  215MOL    H9930487   4.500   5.268   2.739  2.2562 -0.8798  0.5586
  215MOL   C10030488   4.602   5.391   2.989 -0.4624 -0.1672 -0.3603
  215MOL   C10130489   4.529   5.532   3.013 -0.5172 -0.4048 -0.1482
  215MOL   O10230490   4.472   5.555   3.143 -0.3269  0.2365  0.7595
  215MOL   H10330491   4.548   5.313   3.041 -0.9216  0.4702  0.1329
  215MOL   H10430492   4.697   5.391   3.043 -0.7146 -0.5581  0.0791
  215MOL   H10530493   4.444   5.519   2.946 -0.7842  0.2174  0.0645
  215MOL   H10630494   4.543   5.538   3.203  0.4659 -2.7001 -0.9344
  215MOL   C10730495   4.610   5.659   2.980 -0.0779 -0.7929  0.2725
  215MOL   C10830496   4.530   5.789   2.989  0.1751 -0.5511  0.2070
  215MOL   O10930497   4.497   5.826   3.119 -0.0286 -0.3268 -0.1749
  215MOL   H11030498   4.688   5.672   3.054  1.7241 -0.9195 -1.5742
  215MOL   H11130499   4.660   5.645   2.884 -0.0993 -2.3693  0.4809
  215MOL   H11230500   4.438   5.765   2.935  0.1598 -1.0463  0.4540
  215MOL   H11330501   4.484   5.745   3.168  0.3226 -0.4169 -0.2297
  215MOL   C11430502   4.593   5.908   2.918  0.3132  0.0950  0.1704
  215MOL   C11530503   4.489   6.015   2.866 -0.5418 -0.1893  0.3435
  215MOL   O11630504   4.544   6.137   2.903  0.0355 -0.0790 -0.4917
  215MOL   H11730505   4.668   5.948   2.986  1.1747 -1.4342  0.1558
  215MOL   H11830506   4.661   5.881   2.838 -0.4039  1.0412 -0.7698
  215MOL   H11930507   4.390   6.016   2.912 -0.9511 -0.2958 -0.5244
  215MOL   H12030508   4.496   6.203   2.856  1.0571  1.1780  0.2207
  215MOL   C12130509   4.474   6.008   2.710 -0.0559  0.4082 -0.4563
  215MOL   C12230510   4.412   5.873   2.662  0.7444  0.6441  0.3566
  215MOL   O12330511   4.269   5.881   2.665  0.5139  0.5171 -0.1060
  215MOL   H12430512   4.415   6.092   2.673 -0.6815 -0.7489 -2.1562
  215MOL   H12530513   4.573   6.012   2.663  0.1700 -0.4820 -0.0648
  215MOL   H12630514   4.439   5.781   2.715  0.8165  1.1510  1.2084
  215MOL   H12730515   4.237   5.954   2.614 -0.8488 -0.1195 -0.1954
  215MOL   C12830516   4.448   5.848   2.516  0.0084 -0.4051 -0.0942
  215MOL   C12930517   4.593   5.804   2.495 -1.0378  0.1169 -0.2623
  215MOL   O13030518   4.610   5.669   2.462  0.1630  0.2547 -0.1335
  215MOL   H13130519   4.376   5.771   2.487 -0.2125 -0.2749  0.1064
  215MOL   H13230520   4.422   5.927   2.447  1.6127 -1.5288 -2.0321
  215MOL   H13330521   4.654   5.828   2.582  0.1447  0.0685 -1.0631
  215MOL   H13430522   4.566   5.667   2.379 -1.0107  2.0167  0.4217
  215MOL   C13530523   4.666   5.867   2.374  0.1511 -0.2839  0.2450
  215MOL   C13630524   4.691   6.019   2.390  0.7251  0.1318 -0.2773
  215MOL   O13730525   4.767   6.076   2.285  0.5220  0.0259 -0.0966
  215MOL   H13830526   4.762   5.823   2.349 -0.1326 -0.4155 -0.6075
  215MOL   H13930527   4.599   5.861   2.288 -0.8117  0.9911  0.8737
  215MOL   H14030528   4.741   6.048   2.483 -1.0731  0.6756  0.5515
  215MOL   H14130529   4.856   6.096   2.308 -0.1073  2.3827  0.3548
  215MOL   H14230530   4.605   6.086   2.396  0.6456  0.0029  0.0299
  216MOL     C130531   4.706   0.226   4.602 -0.0313 -0.5750 -0.8751
  216MOL     C230532   4.719   0.351   4.688  0.5321  0.7376  0.2088
  216MOL     O330533   4.834   0.427   4.652 -0.3369  0.5761 -0.0147
  216MOL     H430534   4.660   0.251   4.507 -1.6062 -0.5982 -0.1229
  216MOL     H530535   4.634   0.157   4.645 -1.4521  0.5713 -1.3664
  216MOL     H630536   4.738   0.311   4.788  0.8166  0.4964  0.0612
  216MOL     H730537   4.917   0.391   4.679  0.0967  1.3161 -0.3378
  216MOL     H830538   4.795   0.167   4.578  0.1862 -0.3906 -0.5348
  216MOL     C930539   4.591   0.429   4.690  0.0538  0.3057  0.4638
  216MOL    C1030540   4.470   0.395   4.774  0.3512  0.2552 -0.0359
  216MOL    O1130541   4.517   0.382   4.907  0.1114  0.5220  0.2851
  216MOL    H1230542   4.627   0.527   4.721  3.5958  0.0518 -2.5292
  216MOL    H1330543   4.567   0.454   4.586 -1.3907 -2.9527 -0.0521
  216MOL    H1430544   4.440   0.298   4.734 -3.5286  1.2923  0.1897
  216MOL    H1530545   4.555   0.299   4.927 -0.1975  0.0001 -1.2338
  216MOL    C1630546   4.356   0.495   4.784  0.0330 -0.1528 -0.8767
  216MOL    C1730547   4.283   0.517   4.648 -0.1368 -0.2458 -0.1240
  216MOL    O1830548   4.185   0.418   4.626  0.0619  0.6966  0.1802
  216MOL    H1930549   4.284   0.462   4.859  0.3705 -2.1377 -1.3977
  216MOL    H2030550   4.399   0.588   4.820 -0.1313 -0.1864 -0.5923
  216MOL    H2130551   4.351   0.523   4.563 -1.8032 -0.0411 -1.4691
  216MOL    H2230552   4.139   0.441   4.547  1.4844  2.6125 -0.1029
  216MOL    C2330553   4.196   0.645   4.658 -0.0639 -0.2201  0.0506
  216MOL    C2430554   4.160   0.719   4.522 -0.4371  0.0916 -0.4888
  216MOL    O2530555   4.020   0.771   4.527  0.2984  0.0527  0.1649
  216MOL    H2630556   4.099   0.624   4.703 -0.4997 -2.1314 -1.6800
  216MOL    H2730557   4.252   0.720   4.714  0.9662 -0.2488 -0.9114
  216MOL    H2830558   4.164   0.651   4.437 -2.0898  0.9495 -1.2721
  216MOL    H2930559   3.969   0.697   4.495 -1.1291  0.5182  1.3302
  216MOL    C3030560   4.253   0.837   4.496 -0.2413 -0.0442 -0.1690
  216MOL    C3130561   4.402   0.796   4.481  0.4233  0.8394  0.2479
  216MOL    O3230562   4.414   0.728   4.353  0.2638  0.1337 -0.2882
  216MOL    H3330563   4.214   0.912   4.427  1.2554  1.9107  1.0742
  216MOL    H3430564   4.257   0.896   4.588 -1.7217  1.1379 -0.8417
  216MOL    H3530565   4.438   0.730   4.560 -2.0097 -0.1885  0.5690
  216MOL    H3630566   4.346   0.757   4.294 -0.6698  2.0313  1.6620
  216MOL    C3730567   4.490   0.918   4.489  0.1450  0.2688 -0.2658
  216MOL    C3830568   4.642   0.902   4.495 -0.5066 -0.3851 -0.1057
  216MOL    O3930569   4.693   1.028   4.453 -1.0319  0.0032 -0.2958
  216MOL    H4030570   4.457   0.995   4.420 -1.1415  0.6445  0.7457
  216MOL    H4130571   4.457   0.971   4.578 -0.4855 -2.3859  1.1651
  216MOL    H4230572   4.675   0.834   4.417  0.5549  0.8710 -0.7740
  216MOL    H4330573   4.694   1.023   4.358 -1.7289  0.1835 -0.3142
  216MOL    C4430574   4.686   0.871   4.642  0.4974  0.5387  0.2848
  216MOL    C4530575   4.832   0.848   4.660 -0.7236 -0.0479  0.1117
  216MOL    O4630576   4.912   0.961   4.621 -0.3093 -0.1737 -0.1677
  216MOL    H4730577   4.644   0.944   4.711 -0.7956 -0.6452  0.7678
  216MOL    H4830578   4.643   0.774   4.666  0.7369 -0.8495 -4.3950
  216MOL    H4930579   4.858   0.769   4.590  1.4371 -0.5825  1.4964
  216MOL    H5030580   4.841   1.018   4.596 -0.4840  0.4136  1.5711
  216MOL    C5130581   4.866   0.805   4.802  0.2378  0.0580 -0.2292
  216MOL    C5230582   4.813   0.892   4.917  0.2988  0.7577  0.2046
  216MOL    O5330583   4.682   0.847   4.933 -0.1243  0.7359 -0.0021
  216MOL    H5430584   4.839   0.700   4.795 -2.3262  0.5034  2.2260
  216MOL    H5530585   4.974   0.790   4.810  0.2365 -1.2765 -2.4141
  216MOL    H5630586   4.808   0.990   4.871 -0.3555  0.6625  0.0609
  216MOL    H5730587   4.627   0.923   4.942  0.0033  0.9928 -1.2384
  216MOL    C5830588   4.882   0.891   5.056 -0.4946 -0.6969 -0.2638
  216MOL    C5930589   5.007   0.977   5.062  0.1419  0.7405 -0.3238
  216MOL    O6030590   4.981   1.108   5.021  0.1893  0.6252  0.5288
  216MOL    H6130591   4.815   0.935   5.129 -3.0106  1.5274 -3.7066
  216MOL    H6230592   4.902   0.789   5.088 -3.2442 -1.2640 -0.2237
  216MOL    H6330593   5.083   0.933   4.997  0.5518 -1.5999  1.6692
  216MOL    H6430594   5.031   1.123   4.942  1.4361 -0.4792  1.0846
  216MOL    C6530595   5.057   0.980   5.210  0.4410 -0.5247  0.6497
  216MOL    C6630596   5.206   1.017   5.233 -0.2461  0.2480 -0.4570
  216MOL    O6730597   5.281   0.910   5.184 -0.1368  0.0150  0.2288
  216MOL    H6830598   4.990   1.044   5.267 -0.2130 -0.1720 -0.5104
  216MOL    H6930599   5.053   0.876   5.244  1.1755 -1.1405 -1.0666
  216MOL    H7030600   5.219   1.027   5.340  2.0667 -1.2926 -0.5375
  216MOL    H7130601   5.371   0.928   5.207  0.0968  0.7168 -1.1901
  216MOL    C7230602   5.251   1.148   5.179 -0.1737 -0.4804 -1.2721
  216MOL    C7330603   5.181   1.270   5.252  0.2920 -0.2339  0.6313
  216MOL    O7430604   5.255   1.287   5.372 -0.6060 -0.4462 -0.2130
  216MOL    H7530605   5.360   1.151   5.184 -0.1732 -0.1183 -1.5038
  216MOL    H7630606   5.226   1.144   5.073 -0.9185 -0.8404 -1.0859
  216MOL    H7730607   5.077   1.252   5.278  0.0256  1.6584  0.9529
  216MOL    H7830608   5.206   1.344   5.429  0.1790  1.0930 -1.0593
  216MOL    C7930609   5.179   1.410   5.184  0.0194  0.2815  0.1103
  216MOL    C8030610   5.119   1.417   5.045 -0.6423  0.3892 -0.2392
  216MOL    O8130611   4.978   1.375   5.054 -0.4065 -0.0150  0.9601
  216MOL    H8230612   5.139   1.491   5.244  0.6547  1.1035 -0.5612
  216MOL    H8330613   5.280   1.443   5.161 -0.2183  0.6551 -0.3967
  216MOL    H8430614   5.175   1.351   4.978 -2.6997 -2.3560  0.6400
  216MOL    H8530615   4.973   1.282   5.067 -3.5382 -0.0359  0.1085
  216MOL    C8630616   5.131   1.561   4.991  0.0856 -0.4495  0.0535
  216MOL    C8730617   5.054   1.597   4.864  0.7161 -0.0690  0.1947
  216MOL    O8830618   5.061   1.738   4.850  0.1070 -0.5751 -0.3364
  216MOL    H8930619   5.105   1.640   5.063  1.8616  0.2548 -0.0356
  216MOL    H9030620   5.237   1.585   4.978  0.5094 -1.2712  1.8012
  216MOL    H9130621   4.948   1.580   4.878  0.7859 -2.4702 -1.8490
  216MOL    H9230622   5.143   1.761   4.809 -0.3825  0.1132 -0.9368
  216MOL    C9330623   5.099   1.524   4.729 -0.7025  0.1778  0.2164
  216MOL    C9430624   5.012   1.408   4.683 -0.5988 -0.2110  0.3142
  216MOL    O9530625   4.904   1.457   4.599  0.2667  0.6707 -0.4801
  216MOL    H9630626   5.105   1.604   4.655 -1.3777 -0.2191 -0.2772
  216MOL    H9730627   5.206   1.505   4.742 -0.8371 -0.7507  0.0189
  216MOL    H9830628   4.966   1.352   4.765 -1.4954 -1.4650 -1.0098
  216MOL    H9930629   4.846   1.382   4.597 -0.2842  1.0618  0.5438
  216MOL   C10030630   5.084   1.296   4.603  0.3735  0.6662 -0.1993
  216MOL   C10130631   5.189   1.209   4.681 -0.1827 -0.5048 -0.1038
  216MOL   O10230632   5.124   1.139   4.777 -0.7033  0.0777  0.1453
  216MOL   H10330633   5.016   1.225   4.556 -1.5675  1.3759  1.5096
  216MOL   H10430634   5.143   1.347   4.526 -0.9060  1.0172 -0.9524
  216MOL   H10530635   5.257   1.266   4.745  3.2639 -1.6506 -2.5875
  216MOL   H10630636   5.062   1.085   4.730 -1.8131  0.1837  1.4667
  216MOL   C10730637   5.283   1.125   4.581 -0.1909 -0.2868 -0.0232
  216MOL   C10830638   5.385   1.198   4.488 -0.5659 -0.2619  0.1510
  216MOL   O10930639   5.327   1.242   4.367  0.1867 -0.1407 -0.7374
  216MOL   H11030640   5.341   1.061   4.647 -1.4653 -0.7134  0.7043
  216MOL   H11130641   5.219   1.058   4.524 -2.2758  0.0239  1.8393
  216MOL   H11230642   5.452   1.120   4.453  0.8245  1.5407 -1.3257
  216MOL   H11330643   5.365   1.181   4.306  1.2904  0.4967 -0.6972
  216MOL   C11430644   5.475   1.314   4.541 -0.3055  0.4896 -0.1299
  216MOL   C11530645   5.604   1.355   4.447 -0.0585  0.5653 -0.5076
  216MOL   O11630646   5.673   1.469   4.484 -0.2527 -0.4860  0.0225
  216MOL   H11730647   5.413   1.402   4.559  0.9754  1.4646 -0.4230
  216MOL   H11830648   5.514   1.292   4.640 -0.1019  1.2685 -0.0294
  216MOL   H11930649   5.565   1.370   4.346 -1.7775  0.5986  0.1504
  216MOL   H12030650   5.624   1.537   4.440  1.2249  0.7780  0.3286
  216MOL   C12130651   5.698   1.233   4.413 -0.2904 -0.1822  0.3050
  216MOL   C12230652   5.762   1.152   4.525 -0.5503  0.4102  0.2759
  216MOL   O12330653   5.833   1.042   4.477 -0.5248  0.1522 -0.0668
  216MOL   H12430654   5.665   1.158   4.341  2.1844 -0.0010 -1.0578
  216MOL   H12530655   5.777   1.278   4.353  0.3107  1.7191  2.4460
  216MOL   H12630656   5.677   1.123   4.586 -1.4399 -0.0542 -1.1733
  216MOL   H12730657   5.795   0.966   4.518 -2.0481  0.4474 -0.9145
  216MOL   C12830658   5.865   1.242   4.611  0.0010  0.4590 -0.0151
  216MOL   C12930659   5.874   1.223   4.760  0.1033  0.0712 -0.3042
  216MOL   O13030660   5.886   1.088   4.795 -0.1384  0.1850 -0.0669
  216MOL   H13130661   5.958   1.234   4.555  0.4792  2.0650  0.5243
  216MOL   H13230662   5.843   1.347   4.591  2.5415  1.2662  1.2355
  216MOL   H13330663   5.785   1.266   4.807  0.4862  1.5556 -0.8981
  216MOL   H13430664   5.974   1.068   4.767  0.8554  0.6846  2.5665
  216MOL   C13530665   6.004   1.296   4.820  0.3458  0.0845  0.4547
  216MOL   C13630666   5.988   1.307   4.972  0.3243 -0.5576 -0.2971
  216MOL   O13730667   6.072   1.423   5.000  0.1933 -0.7160 -0.2588
  216MOL   H13830668   6.096   1.258   4.777  0.3540 -0.7011  1.1418
  216MOL   H13930669   6.010   1.396   4.777  2.6495 -0.3799 -0.3762
  216MOL   H14030670   6.041   1.229   5.027 -0.0763 -0.6465 -0.0347
  216MOL   H14130671   6.068   1.444   5.092 -0.0455  0.7800 -0.5904
  216MOL   H14230672   5.885   1.306   5.007  0.0060 -0.0485 -1.1897
  217MOL     C130673   1.704   1.722   4.057 -0.1670  0.7685  0.3045
  217MOL     C230674   1.799   1.755   3.935 -0.0607 -0.3606  0.5514
  217MOL     O330675   1.926   1.709   3.960 -0.5234 -0.3771  0.1776
  217MOL     H430676   1.684   1.616   4.074  1.2759  0.5301  0.5595
  217MOL     H530677   1.615   1.785   4.050 -1.4922 -0.7475  2.8046
  217MOL     H630678   1.806   1.863   3.939  0.7218 -0.3341 -1.3802
  217MOL     H730679   1.951   1.731   4.049 -1.2415  1.4949 -0.0467
  217MOL     H830680   1.748   1.755   4.151 -0.1321  0.1468  0.5033
  217MOL     C930681   1.748   1.705   3.797  0.4587  0.5213 -0.3716
  217MOL    C1030682   1.832   1.730   3.674 -0.2173  0.2443 -0.2597
  217MOL    O1130683   1.941   1.636   3.689  0.3117  0.1237 -0.1041
  217MOL    H1230684   1.717   1.601   3.802  0.7642  0.5066  1.5777
  217MOL    H1330685   1.652   1.757   3.791  0.1539  0.4428  2.6137
  217MOL    H1430686   1.868   1.833   3.671 -0.0005  0.2010  0.9661
  217MOL    H1530687   1.977   1.662   3.772 -1.5865  1.1022  0.4539
  217MOL    C1630688   1.755   1.694   3.546 -0.4042 -0.4515  1.1086
  217MOL    C1730689   1.836   1.705   3.412 -0.3225 -0.5771 -0.1056
  217MOL    O1830690   1.747   1.662   3.314  0.0892  0.3969 -0.0610
  217MOL    H1930691   1.707   1.597   3.560  0.7873 -1.0870  0.8258
  217MOL    H2030692   1.669   1.761   3.547 -1.2204 -1.3801 -1.6685
  217MOL    H2130693   1.903   1.620   3.414  1.4440  0.7363 -1.6991
  217MOL    H2230694   1.755   1.569   3.298 -2.3740  0.4105 -1.6528
  217MOL    C2330695   1.915   1.836   3.382 -0.5818  0.3368 -0.4225
  217MOL    C2430696   1.982   1.843   3.237 -0.8302 -0.4077 -0.1431
  217MOL    O2530697   2.045   1.972   3.241  0.4443 -0.1289  0.6729
  217MOL    H2630698   1.860   1.928   3.400  0.2982  0.7282  0.3080
  217MOL    H2730699   1.999   1.844   3.450 -0.5409 -1.5486 -0.2139
  217MOL    H2830700   1.908   1.838   3.157 -0.5871  1.3460 -0.4935
  217MOL    H2930701   2.106   1.956   3.170 -2.0097 -0.7107 -1.3871
  217MOL    C3030702   2.082   1.727   3.203  0.0281  0.7796 -0.0632
  217MOL    C3130703   2.022   1.596   3.146  0.8458  1.0414  0.5973
  217MOL    O3230704   1.976   1.622   3.020  0.1652 -0.0295  0.3804
  217MOL    H3330705   2.162   1.759   3.138 -2.3528  3.3893 -1.8071
  217MOL    H3430706   2.133   1.702   3.296 -0.5020 -1.1922 -0.2796
  217MOL    H3530707   1.938   1.564   3.207  1.0879 -0.7599  0.0148
  217MOL    H3630708   1.926   1.547   2.993  1.3436  0.0039 -2.1400
  217MOL    C3730709   2.124   1.478   3.130  0.0987 -0.1050  0.5288
  217MOL    C3830710   2.161   1.406   3.265  0.3921 -0.5154  0.3193
  217MOL    O3930711   2.047   1.339   3.303 -0.3018  0.2456 -0.0267
  217MOL    H4030712   2.082   1.401   3.065  2.4319 -1.8877  1.0538
  217MOL    H4130713   2.222   1.495   3.086  0.7640 -0.2562  1.9072
  217MOL    H4230714   2.178   1.483   3.340 -0.2133 -0.7808  0.7277
  217MOL    H4330715   2.080   1.252   3.319 -1.9267 -0.5315 -0.8246
  217MOL    C4430716   2.284   1.317   3.282 -0.0206  0.0006  0.5980
  217MOL    C4530717   2.415   1.395   3.262 -1.1115  0.1887  0.2105
  217MOL    O4630718   2.449   1.455   3.377  0.0585  0.2176  0.4438
  217MOL    H4730719   2.284   1.257   3.373 -1.1194 -1.9882 -0.6840
  217MOL    H4830720   2.281   1.243   3.203  0.1105  1.0548 -0.4087
  217MOL    H4930721   2.400   1.474   3.188 -1.3262 -0.8408 -0.8764
  217MOL    H5030722   2.522   1.507   3.347  0.1283 -0.2229 -0.1578
  217MOL    C5130723   2.535   1.301   3.219  0.1421 -0.3003 -0.6060
  217MOL    C5230724   2.520   1.236   3.083  0.1906  0.2964  0.3617
  217MOL    O5330725   2.469   1.317   2.980  0.0129  0.5064  0.1598
  217MOL    H5430726   2.623   1.361   3.238 -0.8931  0.1024  3.5369
  217MOL    H5530727   2.535   1.228   3.301  1.1542 -0.5897 -0.8626
  217MOL    H5630728   2.445   1.158   3.092  1.1038 -0.4984  1.1614
  217MOL    H5730729   2.547   1.356   2.944  0.6685  0.3694  1.4021
  217MOL    C5830730   2.651   1.172   3.046  0.3428 -0.3386  0.0086
  217MOL    C5930731   2.670   1.110   2.896  0.1724 -0.2000 -0.0519
  217MOL    O6030732   2.793   1.047   2.903 -0.5033 -0.1265 -0.0887
  217MOL    H6130733   2.733   1.242   3.062  1.1953 -0.8420 -1.9438
  217MOL    H6230734   2.674   1.094   3.119 -0.5904  0.2175  0.8994
  217MOL    H6330735   2.684   1.191   2.824 -0.3816 -0.6522 -0.6742
  217MOL    H6430736   2.819   1.050   2.813  0.1151  2.5472  0.1355
  217MOL    C6530737   2.561   1.010   2.866 -0.1828 -0.2481 -0.1547
  217MOL    C6630738   2.465   1.075   2.769  0.1098 -0.5673 -0.0996
  217MOL    O6730739   2.508   1.056   2.630 -0.5038  0.3635 -0.1167
  217MOL    H6830740   2.594   0.924   2.808 -0.3001  0.3034 -1.0487
  217MOL    H6930741   2.502   0.971   2.950  0.4950  0.9544  0.8945
  217MOL    H7030742   2.460   1.183   2.783  2.4758 -0.1444 -2.0035
  217MOL    H7130743   2.601   1.068   2.618 -0.3429 -0.5259  0.2560
  217MOL    C7230744   2.317   1.036   2.783 -0.4744  1.1526  0.6587
  217MOL    C7330745   2.236   1.058   2.919 -0.0620 -0.2504  0.0721
  217MOL    O7430746   2.228   1.205   2.933  0.2932  0.2107  0.1452
  217MOL    H7530747   2.258   1.081   2.702 -0.0060 -0.1545 -0.4156
  217MOL    H7630748   2.323   0.929   2.767 -0.9292  1.2170  0.0307
  217MOL    H7730749   2.299   1.029   3.004 -1.5747  1.3592  1.8045
  217MOL    H7830750   2.315   1.239   2.941  0.5521 -0.5418  0.6667
  217MOL    C7930751   2.108   0.978   2.932  0.6634  0.2367 -0.1798
  217MOL    C8030752   2.035   0.988   3.065  0.0978  0.0088  0.0029
  217MOL    O8130753   1.903   0.969   3.037  0.5306 -0.0237 -0.4138
  217MOL    H8230754   2.045   1.014   2.851  1.4680 -1.3526 -1.5391
  217MOL    H8330755   2.132   0.876   2.901  0.1372  0.3409 -0.9447
  217MOL    H8430756   2.037   1.088   3.109  2.4513  0.0023 -0.0299
  217MOL    H8530757   1.861   0.941   3.118 -1.6952  1.4880 -0.9939
  217MOL    C8630758   2.075   0.877   3.167 -0.0413 -0.2787  0.5583
  217MOL    C8730759   2.082   0.900   3.314 -0.2480 -0.1917  0.3926
  217MOL    O8830760   2.168   0.996   3.351 -0.4378 -0.2832 -0.4728
  217MOL    H8930761   2.014   0.788   3.146  1.5239 -0.8321 -1.8227
  217MOL    H9030762   2.175   0.844   3.140 -0.1079  0.4534 -0.5862
  217MOL    H9130763   2.124   0.814   3.366  0.4036  0.2117  0.5255
  217MOL    H9230764   2.243   0.946   3.378 -1.8091 -3.0467 -1.6157
  217MOL    C9330765   1.954   0.947   3.386  0.1660  0.2570  0.2155
  217MOL    C9430766   1.846   0.838   3.378  0.1455 -0.5237 -0.0380
  217MOL    O9530767   1.801   0.845   3.249 -0.2689  0.6164  1.0324
  217MOL    H9630768   1.979   0.953   3.492 -0.1492 -2.3088  0.4528
  217MOL    H9730769   1.930   1.046   3.346  1.8420  0.2820 -0.7628
  217MOL    H9830770   1.761   0.870   3.438 -0.1917 -1.7168  0.1407
  217MOL    H9930771   1.713   0.879   3.245  0.3951  2.0583 -3.6238
  217MOL   C10030772   1.890   0.700   3.418  0.4125  0.4755 -0.4051
  217MOL   C10130773   1.780   0.591   3.425  0.6457  0.1660  0.3883
  217MOL   O10230774   1.765   0.547   3.291  0.1551 -0.3442  0.5900
  217MOL   H10330775   1.981   0.665   3.369 -0.0737 -0.8936 -0.3282
  217MOL   H10430776   1.915   0.715   3.523  0.1929  1.2226 -0.4511
  217MOL   H10530777   1.684   0.633   3.455 -0.3504 -2.2974  0.8018
  217MOL   H10630778   1.785   0.625   3.241  3.7552 -0.6645  1.4012
  217MOL   C10730779   1.810   0.475   3.523  0.4067 -0.6884  0.1266
  217MOL   C10830780   1.705   0.354   3.519 -0.5214  0.1786  0.4555
  217MOL   O10930781   1.725   0.293   3.395  0.1898 -0.4271  0.3908
  217MOL   H11030782   1.909   0.435   3.502  1.3171  1.3348  0.5022
  217MOL   H11130783   1.816   0.516   3.624  0.1164 -3.8598  1.4834
  217MOL   H11230784   1.601   0.383   3.507 -0.0912  1.5028 -0.1354
  217MOL   H11330785   1.737   0.358   3.328 -1.1037 -0.1277  0.4405
  217MOL   C11430786   1.715   0.243   3.619  0.5270 -0.3159  0.1663
  217MOL   C11530787   1.675   0.296   3.756  0.0470 -0.3975 -0.2325
  217MOL   O11630788   1.534   0.308   3.765  0.3853  0.5491 -1.1957
  217MOL   H11730789   1.651   0.161   3.584 -0.0184  0.0614  0.2770
  217MOL   H11830790   1.821   0.216   3.619  0.5428 -0.5488 -3.5526
  217MOL   H11930791   1.711   0.398   3.772 -0.1546 -0.3812  0.1215
  217MOL   H12030792   1.506   0.376   3.825  0.8964 -0.4315  0.1924
  217MOL   C12130793   1.723   0.203   3.863 -0.2418  0.3515 -0.0960
  217MOL   C12230794   1.728   0.049   3.829  0.4857 -0.5553  0.0061
  217MOL   O12330795   1.807   7.511   3.938  0.0977  0.2074 -0.6809
  217MOL   H12430796   1.822   0.239   3.893  0.2835  0.0670 -1.4299
  217MOL   H12530797   1.661   0.224   3.950  0.1662  0.6769  0.1191
  217MOL   H12630798   1.767   0.028   3.729 -1.0877 -0.8558 -0.5508
  217MOL   H12730799   1.782   0.025   4.023  2.3915  1.8299 -0.5898
  217MOL   C12830800   1.588   7.508   3.838  0.5264 -0.8501  0.2065
  217MOL   C12930801   1.557   7.365   3.784 -0.8519 -0.1291 -0.5385
  217MOL   O13030802   1.419   7.346   3.799  0.0036  0.4053 -0.4442
  217MOL   H13130803   1.541   0.012   3.933  0.7190  1.4974 -0.2518
  217MOL   H13230804   1.534   0.050   3.765  1.6120 -3.6658 -3.1275
  217MOL   H13330805   1.603   7.291   3.849 -0.6265 -0.4494 -1.0569
  217MOL   H13430806   1.374   7.380   3.723  1.4935  3.2690 -0.1029
  217MOL   C13530807   1.592   7.339   3.639  0.2514 -0.2567  0.7562
  217MOL   C13630808   1.539   7.218   3.556 -0.1295  0.3707 -0.0972
  217MOL   O13730809   1.553   7.229   3.419 -0.5653  0.0765  0.5876
  217MOL   H13830810   1.570   7.430   3.583 -1.9066 -0.1166  1.7877
  217MOL   H13930811   1.700   7.342   3.624 -0.1589 -2.1542 -3.0384
  217MOL   H14030812   1.431   7.204   3.564 -0.0048 -2.4962 -2.2478
  217MOL   H14130813   1.640   7.255   3.392 -0.5204 -0.8733 -0.2262
  217MOL   H14230814   1.587   7.128   3.594 -1.1340  0.0172  0.3508
  218MOL     C130815   0.130   1.742   1.073 -0.2490 -0.5669 -0.2106
  218MOL     C230816   0.251   1.813   1.131 -0.7328  0.0756 -0.2031
  218MOL     O330817   0.278   1.745   1.252  0.1746  0.0311 -0.0813
  218MOL     H430818   0.046   1.750   1.141 -0.5675 -0.0349 -0.6605
  218MOL     H530819   0.132   1.633   1.068 -0.7485 -0.5934  0.1667
  218MOL     H630820   0.223   1.917   1.152 -2.4569 -0.5375  0.5976
  218MOL     H730821   0.269   1.813   1.317  0.2460  0.8181 -0.8915
  218MOL     H830822   0.107   1.775   0.971  2.1685  0.8530 -0.3334
  218MOL     C930823   0.378   1.812   1.045  0.1037 -0.2305 -0.0337
  218MOL    C1030824   0.509   1.879   1.096  1.2398  0.1264 -0.0775
  218MOL    O1130825   0.592   1.854   0.986  0.2988 -0.3478  0.2840
  218MOL    H1230826   0.398   1.707   1.025 -2.6574 -1.3792  2.7377
  218MOL    H1330827   0.345   1.861   0.954 -1.8330 -2.1763 -0.4208
  218MOL    H1430828   0.539   1.813   1.178 -1.7650  0.5431  1.3970
  218MOL    H1530829   0.682   1.848   1.013  0.0425  0.8018  1.4166
  218MOL    C1630830   0.498   2.030   1.123  0.1235 -0.2690 -0.6018
  218MOL    C1730831   0.632   2.081   1.184 -0.0133 -0.7463 -0.3066
  218MOL    O1830832   0.695   2.147   1.077 -0.2191 -0.0449  0.0319
  218MOL    H1930833   0.479   2.073   1.025 -0.2168  0.1866 -0.3370
  218MOL    H2030834   0.411   2.052   1.185 -1.8742 -0.7489 -3.1741
  218MOL    H2130835   0.699   2.001   1.216  1.1969  0.0271 -0.8933
  218MOL    H2230836   0.788   2.147   1.097 -0.2683 -0.2654  0.2641
  218MOL    C2330837   0.614   2.185   1.297  0.3025  0.5420  0.3151
  218MOL    C2430838   0.584   2.114   1.433  0.7116 -0.0126  0.1024
  218MOL    O2530839   0.688   2.031   1.484 -0.3208 -0.2182  0.0180
  218MOL    H2630840   0.692   2.261   1.304 -1.2031  2.1661 -0.0792
  218MOL    H2730841   0.534   2.255   1.271 -0.9436 -1.5891 -1.8243
  218MOL    H2830842   0.505   2.042   1.414 -1.1953  2.2087 -0.6685
  218MOL    H2930843   0.670   2.002   1.572  2.1175 -0.2640  0.5385
  218MOL    C3030844   0.536   2.215   1.537  0.1649 -0.7458  0.2076
  218MOL    C3130845   0.415   2.298   1.501 -0.0123  0.4262 -0.3603
  218MOL    O3230846   0.314   2.221   1.439 -0.3413 -0.0885  0.4590
  218MOL    H3330847   0.507   2.155   1.623 -0.0801  0.3415  0.8975
  218MOL    H3430848   0.614   2.281   1.576  1.8287 -3.1345  1.0718
  218MOL    H3530849   0.448   2.365   1.422 -0.0282  1.5937  0.5976
  218MOL    H3630850   0.271   2.285   1.385  2.8722  1.2824 -0.6112
  218MOL    C3730851   0.347   2.381   1.612 -0.4591  0.9384  0.4821
  218MOL    C3830852   0.436   2.485   1.677 -0.0133  0.5471  0.6458
  218MOL    O3930853   0.448   2.592   1.585 -0.0226 -0.2498  0.8034
  218MOL    H4030854   0.251   2.422   1.579 -0.9053 -0.3502  0.1510
  218MOL    H4130855   0.320   2.319   1.697 -1.5048 -0.2640 -0.6987
  218MOL    H4230856   0.534   2.447   1.707 -1.0810 -2.1592  0.8181
  218MOL    H4330857   0.374   2.649   1.572 -0.8843 -1.4306  0.5170
  218MOL    C4430858   0.370   2.546   1.804 -0.3179  0.2473 -0.3132
  218MOL    C4530859   0.360   2.449   1.927 -0.7706  0.2499  0.4765
  218MOL    O4630860   0.491   2.442   1.986  0.1399 -0.1752  0.0738
  218MOL    H4730861   0.439   2.624   1.835  0.4005  0.0699 -1.4131
  218MOL    H4830862   0.267   2.567   1.776 -0.5181 -0.7582 -0.3748
  218MOL    H4930863   0.328   2.349   1.901 -1.1057 -0.2231  2.6469
  218MOL    H5030864   0.481   2.462   2.078  0.1055  0.1024  0.0100
  218MOL    C5130865   0.254   2.499   2.025 -0.5239  0.1737  0.4700
  218MOL    C5230866   0.276   2.441   2.175 -0.7296 -0.7324  0.7696
  218MOL    O5330867   0.383   2.508   2.244  0.0557  0.4983 -0.3429
  218MOL    H5430868   0.259   2.607   2.018 -2.2150  0.0904 -3.1620
  218MOL    H5530869   0.156   2.467   1.992 -1.7264  2.2147  1.9803
  218MOL    H5630870   0.298   2.334   2.171  3.4251  0.1109 -1.0706
  218MOL    H5730871   0.425   2.451   2.307  1.8073  2.0825 -0.0315
  218MOL    C5830872   0.142   2.463   2.257  0.0772  0.5344 -0.5163
  218MOL    C5930873   0.146   2.415   2.407  0.2439  0.1207  0.0695
  218MOL    O6030874   0.023   2.443   2.471  0.2297 -0.1706  0.5283
  218MOL    H6130875   0.119   2.569   2.270  0.5255  0.7821 -1.6930
  218MOL    H6230876   0.059   2.412   2.210  0.1348  0.5335 -0.6166
  218MOL    H6330877   0.232   2.474   2.438  0.7576 -1.5700  1.9283
  218MOL    H6430878   0.015   2.535   2.493  0.2863  0.1282 -0.6758
  218MOL    C6530879   0.165   2.265   2.439  0.8028  0.0195  0.0541
  218MOL    C6630880   0.221   2.244   2.576 -0.1189  0.0789 -0.3278
  218MOL    O6730881   0.211   2.108   2.600 -0.1762 -0.4319  0.5209
  218MOL    H6830882   0.067   2.218   2.439  0.7164  0.1971 -0.6457
  218MOL    H6930883   0.225   2.215   2.364  1.2876  0.0758  0.4034
  218MOL    H7030884   0.159   2.275   2.660 -0.2769 -2.8111  0.6759
  218MOL    H7130885   0.210   2.085   2.692  0.4187 -0.0110  0.6385
  218MOL    C7230886   0.370   2.276   2.612 -0.3923 -0.4908  0.7352
  218MOL    C7330887   0.476   2.231   2.504 -0.5457 -0.1117  0.2779
  218MOL    O7430888   0.499   2.326   2.405  0.1673  0.0352 -0.7626
  218MOL    H7530889   0.381   2.382   2.633 -1.2593 -0.7202  2.4142
  218MOL    H7630890   0.387   2.237   2.713 -1.0836  0.2578  1.1444
  218MOL    H7730891   0.448   2.134   2.464 -1.0426  0.3888 -0.6007
  218MOL    H7830892   0.539   2.285   2.330 -2.5793 -2.5743 -0.9002
  218MOL    C7930893   0.611   2.205   2.567 -0.7873 -0.1251 -0.5331
  218MOL    C8030894   0.725   2.145   2.483 -0.1084 -0.0742 -0.1897
  218MOL    O8130895   0.835   2.136   2.574 -0.0409  0.5211 -0.1003
  218MOL    H8230896   0.647   2.284   2.633  3.7914 -2.6993  0.2877
  218MOL    H8330897   0.583   2.130   2.640  2.4102 -1.6061 -0.7379
  218MOL    H8430898   0.757   2.215   2.406  1.0330  0.3386  0.6499
  218MOL    H8530899   0.917   2.144   2.528  0.8547 -0.4723  1.2956
  218MOL    C8630900   0.698   1.997   2.430  0.0558 -0.6626 -0.4282
  218MOL    C8730901   0.782   1.960   2.306 -0.3028  0.5972 -0.7549
  218MOL    O8830902   0.754   1.828   2.268  0.5974  0.0530  0.6301
  218MOL    H8930903   0.726   1.921   2.503 -0.1903 -0.3006  0.0414
  218MOL    H9030904   0.591   1.977   2.420 -0.2016  0.3055  0.2640
  218MOL    H9130905   0.888   1.969   2.333 -0.3285  0.0227 -0.4624
  218MOL    H9230906   0.660   1.831   2.258  0.5630 -0.4034  0.8118
  218MOL    C9330907   0.763   2.046   2.187  0.1144  0.0789  0.6060
  218MOL    C9430908   0.624   2.074   2.120 -0.0177 -0.3324 -0.2549
  218MOL    O9530909   0.580   2.197   2.177 -1.0007  0.1647 -0.0295
  218MOL    H9630910   0.801   2.144   2.217 -0.9948  0.2525  1.4692
  218MOL    H9730911   0.833   2.015   2.110 -1.2072 -0.9913 -0.1874
  218MOL    H9830912   0.559   1.997   2.161 -0.9900 -0.2556 -1.6270
  218MOL    H9930913   0.604   2.262   2.113  2.8400  0.9423  2.0663
  218MOL   C10030914   0.627   2.083   1.968 -0.1308 -1.0245 -0.1803
  218MOL   C10130915   0.676   1.954   1.894  0.9529  0.0973 -0.5233
  218MOL   O10230916   0.596   1.945   1.780  0.1644 -0.2036  0.5474
  218MOL   H10330917   0.521   2.092   1.941 -0.4781  2.8100  2.0948
  218MOL   H10430918   0.681   2.170   1.932 -1.4317 -0.1785 -0.1235
  218MOL   H10530919   0.671   1.863   1.954  1.0448  0.6439  0.3197
  218MOL   H10630920   0.514   1.900   1.791  0.6676 -0.8575  1.7016
  218MOL   C10730921   0.815   1.971   1.834 -0.1135  0.3010  0.1901
  218MOL   C10830922   0.882   1.839   1.783 -0.0469 -0.5348  0.5872
  218MOL   O10930923   0.990   1.871   1.698  0.3892 -0.2672  0.6759
  218MOL   H11030924   0.809   2.044   1.754 -1.2976  0.4903  0.4531
  218MOL   H11130925   0.874   2.018   1.913 -2.5578  2.0688  0.9960
  218MOL   H11230926   0.805   1.787   1.725  0.5286  1.9637 -2.4911
  218MOL   H11330927   0.973   1.815   1.625 -1.0519 -1.1597  1.6700
  218MOL   C11430928   0.931   1.746   1.897 -0.0766  0.0380  0.2786
  218MOL   C11530929   0.963   1.600   1.861 -0.2064  0.4361 -0.5134
  218MOL   O11630930   1.046   1.541   1.964  0.0986 -0.7278  0.7739
  218MOL   H11730931   1.026   1.791   1.929  0.2619 -0.3967 -0.1154
  218MOL   H11830932   0.869   1.748   1.987 -0.9538 -1.4772 -0.2886
  218MOL   H11930933   1.013   1.602   1.764  0.4946 -0.4016 -0.1757
  218MOL   H12030934   1.125   1.590   1.979 -0.2946  0.1605 -0.0300
  218MOL   C12130935   0.827   1.524   1.868 -0.7746 -0.3465  0.4148
  218MOL   C12230936   0.834   1.384   1.808  0.4877  0.4396 -0.0572
  218MOL   O12330937   0.709   1.323   1.827 -0.0770  0.0961  0.5305
  218MOL   H12430938   0.800   1.516   1.973  0.8041  0.0058  0.8593
  218MOL   H12530939   0.746   1.584   1.826  1.3255  2.1071 -0.2269
  218MOL   H12630940   0.914   1.324   1.853 -1.2516 -1.5621  0.4714
  218MOL   H12730941   0.700   1.311   1.920  1.5092  0.9046  0.8198
  218MOL   C12830942   0.883   1.376   1.661  0.6008 -0.6065  1.2377
  218MOL   C12930943   0.885   1.236   1.603  0.6129  0.2921 -0.1553
  218MOL   O13030944   0.754   1.199   1.559  0.5597 -0.5512  0.4561
  218MOL   H13130945   0.816   1.443   1.607 -0.1943 -1.3943  1.2378
  218MOL   H13230946   0.985   1.415   1.657  1.2050 -2.2849 -0.8606
  218MOL   H13330947   0.927   1.160   1.669  0.7012 -0.0043 -0.5488
  218MOL   H13430948   0.694   1.225   1.627 -0.8486  1.3635 -1.4834
  218MOL   C13530949   0.965   1.225   1.473 -0.2083  0.4807  0.1497
  218MOL   C13630950   1.117   1.231   1.483  0.2885 -0.4168  0.1231
  218MOL   O13730951   1.172   1.196   1.362 -0.8552  0.2347  0.3419
  218MOL   H13830952   0.942   1.133   1.420  2.0354 -1.0216  1.6995
  218MOL   H13930953   0.926   1.300   1.404 -0.5264 -0.3220 -0.5366
  218MOL   H14030954   1.159   1.159   1.552 -1.7181 -0.1598  1.6656
  218MOL   H14130955   1.188   1.273   1.309  0.4255 -0.6223 -0.5520
  218MOL   H14230956   1.145   1.327   1.525 -0.5959 -0.4623  0.8258
  219MOL     C130957   0.780   0.517   5.547 -0.3173 -0.6529  0.2011
  219MOL     C230958   0.816   0.498   5.696 -0.3298 -0.1502  0.0156
  219MOL     O330959   0.734   0.389   5.742 -0.0722 -0.0100  0.5270
  219MOL     H430960   0.843   0.453   5.486  1.9744 -0.2513  2.0859
  219MOL     H530961   0.795   0.619   5.512  0.1563  0.2424  2.9434
  219MOL     H630962   0.788   0.591   5.746  0.5887 -0.5621  1.3171
  219MOL     H730963   0.738   0.388   5.837  0.3771  1.6744  0.5419
  219MOL     H830964   0.675   0.496   5.528 -0.5015 -0.3084  0.8487
  219MOL     C930965   0.967   0.464   5.712 -0.3323 -0.2417 -0.1503
  219MOL    C1030966   1.059   0.592   5.681  0.7011  0.5874  0.1793
  219MOL    O1130967   1.050   0.690   5.786  0.2496 -0.0985 -0.3813
  219MOL    H1230968   0.998   0.439   5.813  2.1954  3.5629  0.0858
  219MOL    H1330969   0.982   0.379   5.646  0.5395 -1.0312  1.0560
  219MOL    H1430970   1.028   0.631   5.585  2.2214  0.4286 -0.3868
  219MOL    H1530971   1.046   0.774   5.743  1.0417 -0.0308 -0.3178
  219MOL    C1630972   1.207   0.546   5.656 -0.2282  0.0640 -0.0432
  219MOL    C1730973   1.234   0.476   5.515  0.8100 -0.4667 -0.8587
  219MOL    O1830974   1.189   0.558   5.409 -0.8259 -0.0668  0.3091
  219MOL    H1930975   1.269   0.636   5.663  0.8621 -0.6148 -0.7272
  219MOL    H2030976   1.249   0.489   5.739 -0.6075 -0.1986 -0.0328
  219MOL    H2130977   1.157   0.399   5.516  0.5302 -0.3181 -4.3562
  219MOL    H2230978   1.240   0.637   5.407 -0.3239 -0.3015  2.2625
  219MOL    C2330979   1.380   0.421   5.486  0.1732 -0.0839  0.4070
  219MOL    C2430980   1.391   0.314   5.376  0.1695 -0.7253 -0.5648
  219MOL    O2530981   1.526   0.301   5.351 -0.1111  0.4232 -0.3086
  219MOL    H2630982   1.432   0.514   5.461  0.1916  0.1460  1.2747
  219MOL    H2730983   1.421   0.382   5.579 -1.8222 -1.9671  0.5373
  219MOL    H2830984   1.350   0.355   5.284 -0.8788  1.2722  0.7634
  219MOL    H2930985   1.530   0.219   5.303  2.5288 -0.0075  0.5176
  219MOL    C3030986   1.330   0.178   5.403 -0.5234 -0.1363  0.5135
  219MOL    C3130987   1.339   0.084   5.282  0.0366  0.8884  0.3379
  219MOL    O3230988   1.476   0.040   5.274  0.2403  0.3662 -0.0404
  219MOL    H3330989   1.375   0.141   5.495  0.2264  0.9780  0.6026
  219MOL    H3430990   1.228   0.194   5.437 -0.1123  3.4344  0.3129
  219MOL    H3530991   1.314   0.138   5.191 -0.2982 -0.1584 -0.2064
  219MOL    H3630992   1.495   0.003   5.189  0.7753  0.1463  0.1700
  219MOL    C3730993   1.241   7.485   5.304 -0.4170  0.3097  0.1321
  219MOL    C3830994   1.178   7.438   5.171  0.1584  0.5931 -0.0147
  219MOL    O3930995   1.280   7.373   5.105  0.5735 -0.0421  0.0236
  219MOL    H4030996   1.279   7.410   5.374 -0.7025  0.2723  0.2468
  219MOL    H4130997   1.154   7.516   5.360 -0.2602 -1.0540  1.1550
  219MOL    H4230998   1.146   0.003   5.109  0.6159  0.4434 -0.4597
  219MOL    H4330999   1.305   7.309   5.170 -1.9763  2.5820  3.8502
  219MOL    C4431000   1.062   7.336   5.189  0.0953 -0.2635 -0.5624
  219MOL    C4531001   0.993   7.284   5.066  0.0456  0.0295 -0.5613
  219MOL    O4631002   0.881   7.196   5.101 -0.1220 -0.0608 -0.4539
  219MOL    H4731003   1.092   7.256   5.258 -0.4025  0.2528  0.2581
  219MOL    H4831004   0.994   7.391   5.253  0.8115  0.2153 -0.1972
  219MOL    H4931005   1.069   7.227   5.014  2.5558  0.7729  2.1296
  219MOL    H5031006   0.857   7.143   5.026 -1.2542 -0.4315  0.1574
  219MOL    C5131007   0.944   7.390   4.963 -0.7180 -0.1629  0.1509
  219MOL    C5231008   0.887   7.336   4.831  0.3154 -0.3979 -0.5721
  219MOL    O5331009   0.745   7.330   4.855 -0.7066  0.2931 -0.7605
  219MOL    H5431010   0.874   7.465   5.001 -0.0099 -0.1616  1.4703
  219MOL    H5531011   1.031   7.451   4.940 -0.2977 -1.3691 -1.5784
  219MOL    H5631012   0.922   7.234   4.822  1.5641  0.0625 -0.9893
  219MOL    H5731013   0.703   7.299   4.777  0.7897 -3.4277 -0.2069
  219MOL    C5831014   0.909   7.421   4.703 -0.7768 -0.1045 -0.0542
  219MOL    C5931015   1.027   7.367   4.623 -0.7269 -0.0147 -0.6644
  219MOL    O6031016   1.017   7.443   4.499  0.9275 -0.5626 -0.0990
  219MOL    H6131017   0.825   7.407   4.635  0.2715 -0.4838 -1.2902
  219MOL    H6231018   0.917   0.008   4.726 -0.8478 -0.1032 -0.0348
  219MOL    H6331019   1.039   7.260   4.611 -1.4473 -0.0959 -0.6952
  219MOL    H6431020   1.069   7.403   4.431  0.6751 -2.9527  1.0769
  219MOL    C6531021   1.165   7.419   4.680  0.2320  0.5146  0.1102
  219MOL    C6631022   1.269   7.333   4.617  0.3019 -0.3156 -0.8204
  219MOL    O6731023   1.379   7.414   4.595  0.2078 -0.5056 -0.2377
  219MOL    H6831024   1.168   0.004   4.649 -2.5866  0.5708 -0.0713
  219MOL    H6931025   1.172   7.419   4.789  1.0998  2.0177  0.0731
  219MOL    H7031026   1.241   7.306   4.515 -1.6688  0.3697 -0.4818
  219MOL    H7131027   1.455   7.359   4.589  0.6590  0.1962 -1.0697
  219MOL    C7231028   1.315   7.215   4.704  0.0618  0.3438 -0.3630
  219MOL    C7331029   1.373   7.106   4.611  0.7592 -0.9951  0.4639
  219MOL    O7431030   1.500   7.147   4.563 -0.1097  0.4408  0.4898
  219MOL    H7531031   1.388   7.235   4.782 -2.2427 -1.7191  2.4231
  219MOL    H7631032   1.237   7.163   4.759 -0.6053  1.2652 -0.4253
  219MOL    H7731033   1.311   7.103   4.522 -0.2815  2.6637  1.0021
  219MOL    H7831034   1.555   7.154   4.639 -1.6554 -1.6537  1.8502
  219MOL    C7931035   1.393   6.966   4.685 -0.0603  0.1408 -0.3922
  219MOL    C8031036   1.411   6.854   4.584 -0.0618  0.6443 -0.4657
  219MOL    O8131037   1.454   6.748   4.661 -0.0485  0.2526 -0.3653
  219MOL    H8231038   1.474   6.976   4.756 -1.1601  0.1329  0.8834
  219MOL    H8331039   1.301   6.937   4.736  1.1446 -0.1899  1.6221
  219MOL    H8431040   1.497   6.880   4.522  2.7298 -1.1241  2.5215
  219MOL    H8531041   1.548   6.750   4.667 -0.0881  0.7770  0.0770
  219MOL    C8631042   1.272   6.826   4.507 -0.3592  0.0949  0.1746
  219MOL    C8731043   1.281   6.737   4.384  0.5068 -0.4014  0.7147
  219MOL    O8831044   1.168   6.739   4.309  0.5455 -0.5189  0.0400
  219MOL    H8931045   1.209   6.782   4.585  0.3036 -2.3430 -0.6500
  219MOL    H9031046   1.222   6.914   4.465  0.3608  0.9489  1.0691
  219MOL    H9131047   1.297   6.634   4.418  0.5660 -0.9984 -1.0480
  219MOL    H9231048   1.190   6.720   4.219 -1.8587 -1.4543 -0.3942
  219MOL    C9331049   1.393   6.784   4.282  0.2725 -0.3884 -0.4471
  219MOL    C9431050   1.421   6.690   4.166  0.4568  0.7943 -0.3381
  219MOL    O9531051   1.314   6.702   4.074 -0.0937  0.1561  0.1761
  219MOL    H9631052   1.371   6.883   4.242 -1.6189 -0.1096  1.1770
  219MOL    H9731053   1.489   6.798   4.333 -1.5969  1.8358  2.7098
  219MOL    H9831054   1.430   6.583   4.189 -1.6020  0.8624  0.8159
  219MOL    H9931055   1.306   6.624   4.021 -1.3304  1.1996 -1.2220
  219MOL   C10031056   1.554   6.743   4.096 -0.3684 -0.1964  0.2858
  219MOL   C10131057   1.608   6.664   3.974 -0.9072  0.2918 -0.3833
  219MOL   O10231058   1.711   6.731   3.907  0.0570 -0.2077  0.3414
  219MOL   H10331059   1.545   6.850   4.077  1.9896 -0.0611 -0.2933
  219MOL   H10431060   1.628   6.730   4.176  0.3682 -2.0586 -0.6797
  219MOL   H10531061   1.520   6.649   3.911 -1.4964  0.2087  0.4509
  219MOL   H10631062   1.729   6.813   3.949  1.8224  0.4637 -1.6173
  219MOL   C10731063   1.665   6.534   4.022 -0.6384  0.4326  0.4692
  219MOL   C10831064   1.703   6.434   3.914  0.0230 -0.5344  0.5418
  219MOL   O10931065   1.807   6.356   3.973  0.3623  0.3373  0.1947
  219MOL   H11031066   1.754   6.552   4.081  0.6170 -0.0797 -1.2323
  219MOL   H11131067   1.592   6.487   4.088 -2.8214 -1.2559 -2.9812
  219MOL   H11231068   1.743   6.486   3.826 -0.7104  0.6655  0.8956
  219MOL   H11331069   1.812   6.381   4.064 -1.3387  1.9610 -0.1124
  219MOL   C11431070   1.587   6.345   3.859 -0.0441 -0.0469 -0.5465
  219MOL   C11531071   1.617   6.296   3.719 -0.6178  1.2669  0.4235
  219MOL   O11631072   1.539   6.173   3.698  0.2275 -0.1628  0.1427
  219MOL   H11731073   1.560   6.269   3.932  0.8194  1.5281  1.4689
  219MOL   H11831074   1.497   6.406   3.858 -1.0121 -1.3999  1.3169
  219MOL   H11931075   1.719   6.258   3.713 -1.8703 -1.8105 -3.0985
  219MOL   H12031076   1.586   6.102   3.739 -0.8038 -1.3400 -0.6466
  219MOL   C12131077   1.596   6.398   3.608 -0.0093 -0.2659  0.9951
  219MOL   C12231078   1.674   6.381   3.475  0.3034 -0.3384 -0.4874
  219MOL   O12331079   1.811   6.405   3.496 -0.3441 -0.2192 -0.5451
  219MOL   H12431080   1.489   6.392   3.586  0.4585 -2.0658 -1.0071
  219MOL   H12531081   1.604   6.499   3.646 -1.3499 -0.1105  0.8926
  219MOL   H12631082   1.647   6.472   3.421  0.3840  1.1140  1.8347
  219MOL   H12731083   1.817   6.495   3.525  2.0806 -0.6459  0.3522
  219MOL   C12831084   1.653   6.261   3.394 -0.2169 -0.2364 -0.0794
  219MOL   C12931085   1.506   6.216   3.370  0.1609  0.2717 -0.3271
  219MOL   O13031086   1.450   6.296   3.270 -0.5913  0.2278  0.0294
  219MOL   H13131087   1.710   6.269   3.301  1.8527  0.7883  1.2439
  219MOL   H13231088   1.708   6.182   3.444  1.6493  1.5735  0.8239
  219MOL   H13331089   1.440   6.230   3.455 -0.4902  0.3952 -0.8468
  219MOL   H13431090   1.357   6.297   3.287 -0.7132  0.7230 -0.6451
  219MOL   C13531091   1.485   6.068   3.331 -0.0249  0.2008 -0.7741
  219MOL   C13631092   1.483   5.970   3.453 -0.2862  0.3621 -0.2971
  219MOL   O13731093   1.456   5.837   3.425 -0.0497  0.2378 -0.7334
  219MOL   H13831094   1.387   6.063   3.285  0.0287  0.0220 -0.8675
  219MOL   H13931095   1.559   6.041   3.257  2.3732  1.1326  1.1875
  219MOL   H14031096   1.420   5.994   3.538  0.4726  1.0808  0.0685
  219MOL   H14131097   1.397   5.829   3.351  2.8233  1.7170 -3.2775
  219MOL   H14231098   1.584   5.963   3.492 -0.7559  1.5283  1.1638
  220MOL     C131099   5.953   4.631   4.538 -0.4385 -0.0012 -0.2542
  220MOL     C231100   6.044   4.584   4.417 -0.7340 -0.4914 -0.3826
  220MOL     O331101   5.992   4.467   4.369  0.3541  0.3194  0.1768
  220MOL     H431102   5.864   4.690   4.514 -0.3512 -0.6799 -2.3599
  220MOL     H531103   6.014   4.689   4.608  2.6013 -3.3952  0.0637
  220MOL     H631104   6.141   4.556   4.457 -1.0012 -2.3879 -1.0064
  220MOL     H731105   6.040   4.399   4.414  0.8741  0.2261 -0.5114
  220MOL     H831106   5.915   4.543   4.590 -0.7972  1.4225  1.9496
  220MOL     C931107   6.046   4.695   4.308 -0.2477 -0.0857  0.1883
  220MOL    C1031108   6.166   4.685   4.217 -0.2161 -0.0048  0.1224
  220MOL    O1131109   6.131   4.727   4.079 -0.3755  0.3497 -0.0475
  220MOL    H1231110   5.955   4.694   4.249 -0.4567  2.9720  0.3971
  220MOL    H1331111   6.042   4.794   4.353 -0.0422 -0.0488  0.1265
  220MOL    H1431112   6.185   4.578   4.208 -3.2943 -0.5990  0.2797
  220MOL    H1531113   6.039   4.713   4.061 -0.2387 -1.0029  0.2148
  220MOL    C1631114   6.293   4.772   4.250 -0.4863 -0.1513 -0.0019
  220MOL    C1731115   6.324   4.755   4.395  0.6304  0.4905  0.4222
  220MOL    O1831116   6.373   4.623   4.430 -0.3320  0.1082 -0.3065
  220MOL    H1931117   6.369   4.739   4.179  0.1266 -1.4216  1.2353
  220MOL    H2031118   6.278   4.879   4.236  0.9325  0.1802  0.9495
  220MOL    H2131119   6.233   4.764   4.455  0.2879  2.8210 -0.4113
  220MOL    H2231120   6.415   4.631   4.514  2.0934 -1.8046 -1.2433
  220MOL    C2331121   6.424   4.862   4.449 -0.2737 -0.1272  0.1712
  220MOL    C2431122   6.379   4.925   4.588  0.0843 -0.4013 -0.1424
  220MOL    O2531123   6.252   4.982   4.582 -0.0295 -1.0142 -0.3123
  220MOL    H2631124   6.525   4.821   4.455 -1.5996 -3.4901  1.0516
  220MOL    H2731125   6.439   4.948   4.384 -1.2285  0.0179  0.1320
  220MOL    H2831126   6.450   5.006   4.605  0.3970 -0.6499 -0.2569
  220MOL    H2931127   6.247   5.053   4.645  2.8625 -0.3871 -0.7325
  220MOL    C3031128   6.369   4.815   4.693 -0.0648  0.0121  0.3823
  220MOL    C3131129   6.501   4.752   4.742  0.1726  0.3385 -0.2400
  220MOL    O3231130   6.558   4.657   4.646 -0.0569 -0.0144 -0.2883
  220MOL    H3331131   6.319   4.857   4.781 -1.8331  0.8201 -0.9638
  220MOL    H3431132   6.302   4.737   4.657  0.4782 -0.1021 -0.3847
  220MOL    H3531133   6.484   4.706   4.839  3.4832 -1.1012 -0.2798
  220MOL    H3631134   6.636   4.613   4.678 -0.1603  0.6724  0.9552
  220MOL    C3731135   6.600   4.858   4.786  0.8991 -0.1269  0.7637
  220MOL    C3831136   6.568   4.935   4.914 -0.2569  0.5933  0.4622
  220MOL    O3931137   6.572   4.840   5.020  0.0682  0.0831 -0.5572
  220MOL    H4031138   6.694   4.803   4.797  0.5604 -1.1284 -1.1351
  220MOL    H4131139   6.618   4.933   4.710  0.7341 -1.0042 -0.1555
  220MOL    H4231140   6.472   4.987   4.913 -0.9313 -0.6652 -0.3530
  220MOL    H4331141   6.602   4.883   5.099  1.0408 -1.5748 -0.0091
  220MOL    C4431142   6.673   5.046   4.942  0.1281 -0.2064  0.5793
  220MOL    C4531143   6.690   5.166   4.833  0.2660  0.2314  0.6697
  220MOL    O4631144   6.564   5.236   4.844  0.2600 -0.1269 -0.1765
  220MOL    H4731145   6.649   5.100   5.034 -0.5272 -0.4992  0.5869
  220MOL    H4831146   6.768   4.993   4.943 -0.4790 -1.3278 -0.0963
  220MOL    H4931147   6.709   5.135   4.730 -0.8070 -1.2587  0.8967
  220MOL    H5031148   6.549   5.289   4.920  1.1293  0.1187 -0.1639
  220MOL    C5131149   6.794   5.274   4.872 -0.4446  0.4111 -0.7003
  220MOL    C5231150   6.943   5.241   4.880 -0.5143  0.4922  0.7501
  220MOL    O5331151   6.980   5.204   5.014 -0.0293 -0.3489 -0.3062
  220MOL    H5431152   6.789   5.350   4.794  2.6222 -0.2382 -1.6172
  220MOL    H5531153   6.768   5.332   4.961  0.8570  0.6396 -0.4540
  220MOL    H5631154   6.987   5.340   4.871 -1.6090  1.1132  2.0518
  220MOL    H5731155   7.073   5.193   5.004 -0.2762 -2.2471 -0.7621
  220MOL    C5831156   6.992   5.137   4.769  0.3462 -0.0500  0.4134
  220MOL    C5931157   7.132   5.165   4.718  0.4773  0.0988  0.2691
  220MOL    O6031158   7.237   5.138   4.809 -0.3897 -0.4212 -0.4935
  220MOL    H6131159   6.981   5.036   4.808  1.8400 -0.6596 -0.6967
  220MOL    H6231160   6.923   5.145   4.685 -1.6367  1.2331  2.1372
  220MOL    H6331161   7.132   5.273   4.700  1.5887  0.1775  0.6917
  220MOL    H6431162   7.249   5.044   4.813 -0.5576 -0.3745  1.2258
  220MOL    C6531163   7.173   5.102   4.579 -0.0005  0.0144  0.1962
  220MOL    C6631164   7.080   5.143   4.466  0.1332 -0.7027  0.2872
  220MOL    O6731165   7.159   5.144   4.351 -0.6102 -0.4601 -0.2047
  220MOL    H6831166   7.275   5.136   4.560  0.1270 -0.2396  0.4359
  220MOL    H6931167   7.170   4.993   4.585 -0.8113 -0.0374 -0.8682
  220MOL    H7031168   7.054   5.248   4.482  1.1537 -0.3916 -0.1225
  220MOL    H7131169   7.251   5.149   4.373 -0.9177 -1.8990  1.4926
  220MOL    C7231170   6.966   5.040   4.445 -0.5076  0.2588 -0.2681
  220MOL    C7331171   6.861   5.083   4.342 -0.1701  0.6291 -0.3888
  220MOL    O7431172   6.751   4.988   4.358 -0.1565 -0.0616 -0.8064
  220MOL    H7531173   7.019   4.953   4.408  0.5903 -0.0706  2.0199
  220MOL    H7631174   6.921   5.020   4.542 -1.6648  1.4538 -0.5397
  220MOL    H7731175   6.901   5.078   4.241 -0.2357  1.0396 -0.4346
  220MOL    H7831176   6.781   4.899   4.346 -2.6958 -0.7109 -2.6390
  220MOL    C7931177   6.804   5.229   4.375  0.4630  0.7321  0.2292
  220MOL    C8031178   6.682   5.267   4.289 -0.2211 -0.7177  0.0439
  220MOL    O8131179   6.578   5.181   4.328  0.2049  0.1767 -0.3444
  220MOL    H8231180   6.789   5.251   4.480 -1.7859 -0.2469  0.1379
  220MOL    H8331181   6.888   5.291   4.342  1.5393 -0.6469  0.3460
  220MOL    H8431182   6.689   5.261   4.180  0.5952  0.5899  0.0111
  220MOL    H8531183   6.621   5.097   4.343  2.0272  1.1652  0.1413
  220MOL    C8631184   6.634   5.409   4.323  0.2754 -0.3686  0.0054
  220MOL    C8731185   6.737   5.520   4.293 -0.3376  0.0364 -0.7246
  220MOL    O8831186   6.702   5.576   4.168 -0.6439 -0.0086  0.1091
  220MOL    H8931187   6.544   5.440   4.271  0.8292 -0.0153 -0.7552
  220MOL    H9031188   6.599   5.416   4.426 -1.4854  1.8202 -0.7049
  220MOL    H9131189   6.837   5.481   4.273 -1.3692 -2.0475 -2.0949
  220MOL    H9231190   6.772   5.634   4.142 -0.4262  0.4453  1.7016
  220MOL    C9331191   6.746   5.625   4.401 -0.2610 -0.0050  0.0062
  220MOL    C9431192   6.828   5.597   4.533 -0.8512 -0.0144 -0.1161
  220MOL    O9531193   6.772   5.490   4.603  0.0664 -0.2141 -0.3580
  220MOL    H9631194   6.792   5.714   4.359  0.1225 -0.5334 -0.7222
  220MOL    H9731195   6.646   5.661   4.424 -0.3009  1.1140 -1.8365
  220MOL    H9831196   6.816   5.688   4.592  0.6638  0.1915 -0.0992
  220MOL    H9931197   6.687   5.518   4.634  0.0900  0.5484 -0.9682
  220MOL   C10031198   6.982   5.587   4.521 -0.4900  0.0628  0.3669
  220MOL   C10131199   7.064   5.577   4.651 -0.8044  0.4825  0.1543
  220MOL   O10231200   7.193   5.535   4.614  0.0432  0.0757 -0.6425
  220MOL   H10331201   7.002   5.505   4.452 -0.3575  0.3594  0.0564
  220MOL   H10431202   7.020   5.679   4.476  2.1366 -0.8750  0.5616
  220MOL   H10531203   7.023   5.497   4.712 -0.2378 -0.0288 -0.1243
  220MOL   H10631204   7.235   5.494   4.688 -0.9303  2.0533  1.0667
  220MOL   C10731205   7.074   5.714   4.725  0.3194  0.1994  0.1208
  220MOL   C10831206   7.149   5.706   4.861  0.7954  0.5990  0.0855
  220MOL   O10931207   7.199   5.827   4.911  0.2970 -0.7946  0.2470
  220MOL   H11031208   7.125   5.782   4.658 -0.6995  0.0992 -0.7623
  220MOL   H11131209   6.982   5.767   4.750 -0.2173  0.1697 -1.6951
  220MOL   H11231210   7.243   5.651   4.853  0.2553 -0.0223 -2.4590
  220MOL   H11331211   7.253   5.807   4.985 -1.2159 -1.7178  1.1321
  220MOL   C11431212   7.060   5.634   4.976  0.4212 -0.4239 -0.1254
  220MOL   C11531213   6.915   5.671   4.997 -0.2199  0.1180 -0.1648
  220MOL   O11631214   6.834   5.628   4.891  0.2411 -0.4345 -0.3753
  220MOL   H11731215   7.063   5.525   4.966 -0.4808 -0.6774  2.0500
  220MOL   H11831216   7.116   5.643   5.069 -1.6065  0.6568  1.0305
  220MOL   H11931217   6.911   5.777   5.021  2.5201  0.1097  0.4610
  220MOL   H12031218   6.809   5.709   4.850 -0.5228 -1.3125 -1.6700
  220MOL   C12131219   6.857   5.589   5.112  0.0183 -0.0730  0.3494
  220MOL   C12231220   6.732   5.639   5.177 -0.1818  0.1425  0.3624
  220MOL   O12331221   6.627   5.622   5.078  0.4309  0.0479  0.1425
  220MOL   H12431222   6.848   5.484   5.087 -1.6419  0.0209  0.4893
  220MOL   H12531223   6.936   5.587   5.186 -0.3284  1.7536  0.7921
  220MOL   H12631224   6.738   5.740   5.217  0.8096 -1.0277  3.2560
  220MOL   H12731225   6.671   5.608   4.996  1.2230  1.1109  0.3735
  220MOL   C12831226   6.713   5.560   5.306 -0.1058  0.2296 -0.2001
  220MOL   C12931227   6.585   5.575   5.384 -0.1974  0.0047  0.3815
  220MOL   O13031228   6.559   5.466   5.473  0.1267  0.5152 -0.3072
  220MOL   H13131229   6.734   5.454   5.288  0.4351  0.6706 -2.2829
  220MOL   H13231230   6.794   5.568   5.377 -0.1534  0.6343 -0.1917
  220MOL   H13331231   6.497   5.576   5.319  0.7910 -2.1488 -1.0490
  220MOL   H13431232   6.629   5.464   5.537 -0.7412  0.4207  0.6500
  220MOL   C13531233   6.579   5.714   5.457  0.0745 -0.1076 -1.4661
  220MOL   C13631234   6.444   5.757   5.501 -0.4576 -0.4486 -0.8840
  220MOL   O13731235   6.462   5.868   5.588 -0.0432 -0.3562 -0.1361
  220MOL   H13831236   6.648   5.714   5.542 -0.3955  2.2182 -1.0555
  220MOL   H13931237   6.615   5.793   5.391  1.0507 -0.4270 -1.3290
  220MOL   H14031238   6.402   5.674   5.559  2.3289 -0.0475  1.8256
  220MOL   H14131239   6.381   5.886   5.632 -0.0475  0.3586 -0.4418
  220MOL   H14231240   6.374   5.783   5.422 -2.7359  1.0464  1.5233
  221MOL     C131241   5.072   5.062   5.659  0.1505 -0.0674  0.1049
  221MOL     C231242   5.203   5.016   5.739 -0.0609 -0.5943  0.8628
  221MOL     O331243   5.178   4.886   5.774 -0.1434  0.0619  0.3491
  221MOL     H431244   4.980   5.050   5.716 -0.8813  3.5256 -0.7023
  221MOL     H531245   5.067   5.010   5.563  0.3409  2.4828 -1.3155
  221MOL     H631246   5.211   5.075   5.830 -1.9230 -0.1176  0.7499
  221MOL     H731247   5.193   4.883   5.868  1.2831  1.5150  0.1815
  221MOL     H831248   5.078   5.170   5.646 -1.7037  0.2690  1.8529
  221MOL     C931249   5.337   5.012   5.654 -0.0349  0.1029 -0.2299
  221MOL    C1031250   5.390   5.154   5.610  0.2253  0.8077  0.5259
  221MOL    O1131251   5.531   5.131   5.609 -0.0383 -0.6603 -0.6109
  221MOL    H1231252   5.410   4.953   5.708 -0.1863 -0.9455 -1.1446
  221MOL    H1331253   5.324   4.943   5.571 -0.4182  0.8385 -0.7921
  221MOL    H1431254   5.381   5.229   5.688  0.8273  2.1215 -0.6488
  221MOL    H1531255   5.550   5.105   5.698  3.0865  0.7057 -0.7878
  221MOL    C1631256   5.344   5.193   5.467 -0.6853 -0.1880  0.1227
  221MOL    C1731257   5.410   5.312   5.391 -0.0658  0.4611 -0.3219
  221MOL    O1831258   5.326   5.331   5.273  0.1486  0.2137  0.3223
  221MOL    H1931259   5.360   5.097   5.418 -2.3220 -0.8143  0.7872
  221MOL    H2031260   5.238   5.213   5.458 -0.5339  0.5399 -0.0910
  221MOL    H2131261   5.514   5.289   5.367 -0.6714 -0.7680 -1.8822
  221MOL    H2231262   5.374   5.402   5.234  1.3106 -1.4677 -1.4158
  221MOL    C2331263   5.397   5.444   5.466  0.1324 -0.1809 -0.3979
  221MOL    C2431264   5.490   5.553   5.406  0.2996 -0.2210 -0.4571
  221MOL    O2531265   5.475   5.572   5.263 -0.0914  0.4376  0.5326
  221MOL    H2631266   5.300   5.486   5.492 -1.3846 -0.9382 -4.5406
  221MOL    H2731267   5.432   5.427   5.568  0.2276 -0.2662 -0.4446
  221MOL    H2831268   5.589   5.513   5.428  1.4985  1.8953 -1.8697
  221MOL    H2931269   5.558   5.600   5.230 -1.1099  0.6647 -1.9780
  221MOL    C3031270   5.462   5.690   5.470  0.0579  0.1593 -0.0051
  221MOL    C3131271   5.441   5.697   5.623  0.4211 -0.0818 -0.1154
  221MOL    O3231272   5.565   5.680   5.684  0.0859 -0.0481  0.5860
  221MOL    H3331273   5.540   5.758   5.436 -1.1848  1.0889 -1.0388
  221MOL    H3431274   5.365   5.721   5.433 -0.0299 -1.7820 -1.4411
  221MOL    H3531275   5.367   5.624   5.656  2.4915 -1.1422  2.3331
  221MOL    H3631276   5.559   5.660   5.777  2.2108 -2.7797  0.1941
  221MOL    C3731277   5.378   5.830   5.675  0.1017 -0.0201  0.2356
  221MOL    C3831278   5.234   5.855   5.633 -0.3069  0.0822  0.6470
  221MOL    O3931279   5.148   5.879   5.748  0.6526 -0.2752  0.3575
  221MOL    H4031280   5.376   5.832   5.784  1.2426  3.4729  0.2392
  221MOL    H4131281   5.441   5.916   5.655 -1.6463  1.1562 -0.3905
  221MOL    H4231282   5.196   5.763   5.590  2.4267 -0.9981  0.4090
  221MOL    H4331283   5.176   5.820   5.816  0.5103 -1.0771 -0.2727
  221MOL    C4431284   5.208   5.968   5.531  0.4104 -0.1341 -0.2333
  221MOL    C4531285   5.057   6.001   5.506 -0.0525  0.0487 -0.3786
  221MOL    O4631286   5.067   6.134   5.450 -0.1253  0.0054 -0.1856
  221MOL    H4731287   5.251   6.051   5.589  1.6667  0.8959 -2.5705
  221MOL    H4831288   5.258   5.956   5.435  1.0149 -0.2353  0.0935
  221MOL    H4931289   4.996   6.006   5.596 -0.0981  0.7967 -0.4488
  221MOL    H5031290   5.084   6.126   5.357  0.6029 -0.1844 -0.0353
  221MOL    C5131291   4.995   5.908   5.409  0.1598 -0.1825 -0.2815
  221MOL    C5231292   4.841   5.921   5.405 -0.6378  0.2323  0.0204
  221MOL    O5331293   4.797   5.889   5.271  0.4452 -0.5848 -0.1915
  221MOL    H5431294   5.045   5.918   5.313  0.9722 -1.0141  0.0520
  221MOL    H5531295   5.025   5.806   5.435 -0.8729 -0.4376 -0.0710
  221MOL    H5631296   4.817   6.025   5.428 -2.4170 -0.3350  0.8346
  221MOL    H5731297   4.703   5.885   5.279  0.3519  2.6980  1.0852
  221MOL    C5831298   4.768   5.819   5.504 -0.9817  0.3082  0.0361
  221MOL    C5931299   4.622   5.867   5.552 -0.6308 -0.3308 -0.1848
  221MOL    O6031300   4.559   5.926   5.440 -1.0252 -0.0081 -0.2214
  221MOL    H6131301   4.768   5.717   5.467 -1.2661  1.1078 -2.2562
  221MOL    H6231302   4.829   5.826   5.594 -1.6836  2.3841  0.3772
  221MOL    H6331303   4.642   5.943   5.628 -0.6717  0.2934 -0.7927
  221MOL    H6431304   4.479   5.968   5.467  0.7483  3.0051  0.6203
  221MOL    C6531305   4.536   5.753   5.615  0.3983 -0.0915 -0.1239
  221MOL    C6631306   4.590   5.681   5.739 -0.1439  0.2195 -0.2842
  221MOL    O6731307   4.560   5.770   5.846 -0.3232  0.1780 -0.2633
  221MOL    H6831308   4.430   5.774   5.623  0.4764  1.3153 -2.3590
  221MOL    H6931309   4.545   5.674   5.540  0.7634  0.3502 -0.5483
  221MOL    H7031310   4.698   5.676   5.726 -0.1501  0.0183 -0.2569
  221MOL    H7131311   4.634   5.811   5.887  0.1244 -1.0302  0.1669
  221MOL    C7231312   4.530   5.542   5.764 -1.0982 -0.2760 -0.6076
  221MOL    C7331313   4.581   5.433   5.667  0.1778  0.4309  0.3119
  221MOL    O7431314   4.706   5.382   5.724  0.8599  0.2547  0.4668
  221MOL    H7531315   4.542   5.490   5.859  1.8990  1.5957  0.1021
  221MOL    H7631316   4.423   5.562   5.770 -0.5159  2.8368  0.0020
  221MOL    H7731317   4.612   5.484   5.576 -0.0928  0.1265  0.0495
  221MOL    H7831318   4.779   5.410   5.670  0.4156  1.1941  0.3349
  221MOL    C7931319   4.479   5.326   5.630  0.1701  1.2370  0.1932
  221MOL    C8031320   4.348   5.371   5.561 -0.6450  0.5876 -0.3463
  221MOL    O8131321   4.390   5.446   5.448 -0.1392  0.3435  0.4926
  221MOL    H8231322   4.531   5.254   5.567  1.0972  3.4122 -1.5827
  221MOL    H8331323   4.465   5.267   5.720 -0.3865 -1.9119 -1.8767
  221MOL    H8431324   4.289   5.438   5.623  1.1943  0.7776  1.2546
  221MOL    H8531325   4.316   5.474   5.397 -0.0615 -1.4483 -0.6470
  221MOL    C8631326   4.242   5.266   5.514 -0.2587 -0.0307  0.3549
  221MOL    C8731327   4.172   5.183   5.621  0.7645  0.1533 -0.5687
  221MOL    O8831328   4.081   5.278   5.669  0.3743 -0.3600  0.4240
  221MOL    H8931329   4.173   5.309   5.442 -0.0320 -1.3121 -0.6419
  221MOL    H9031330   4.293   5.193   5.451  1.9821  0.5466  1.4425
  221MOL    H9131331   4.242   5.157   5.701  0.9158  0.8619 -0.4644
  221MOL    H9231332   4.016   5.240   5.726 -0.6123  0.1247 -0.3485
  221MOL    C9331333   4.110   5.045   5.586  0.0636 -0.0925 -0.0808
  221MOL    C9431334   4.073   4.946   5.698  0.3322  0.1298 -0.6081
  221MOL    O9531335   3.943   4.984   5.743 -0.1889  0.3625  0.0210
  221MOL    H9631336   4.020   5.056   5.526  0.1756  0.0195 -0.2298
  221MOL    H9731337   4.175   4.993   5.516  0.0864 -2.7151  1.8210
  221MOL    H9831338   4.150   4.959   5.775 -1.3236 -0.2446  1.1669
  221MOL    H9931339   3.872   4.952   5.689 -1.1644  0.7960  1.0435
  221MOL   C10031340   4.066   4.795   5.660  0.1029  0.4746 -0.3246
  221MOL   C10131341   4.199   4.721   5.664  0.4325  0.8680  0.4050
  221MOL   O10231342   4.297   4.786   5.592 -0.3164 -0.1153  0.1383
  221MOL   H10331343   3.996   4.744   5.726 -1.4451  1.7341 -0.9706
  221MOL   H10431344   4.021   4.787   5.561 -2.5626  2.5362  0.6576
  221MOL   H10531345   4.189   4.620   5.624 -0.5363  1.7908 -1.7073
  221MOL   H10631346   4.299   4.760   5.501  2.8149  2.2563 -0.5756
  221MOL   C10731347   4.247   4.697   5.810 -0.3800  0.4332  0.2939
  221MOL   C10831348   4.166   4.607   5.906  0.6679  0.3934 -1.0538
  221MOL   O10931349   4.137   4.485   5.840  0.0234  0.1937 -0.4255
  221MOL   H11031350   4.348   4.659   5.824  0.5581  2.0600 -1.7888
  221MOL   H11131351   4.276   4.798   5.841  0.3623  0.0681  0.7713
  221MOL   H11231352   4.064   4.644   5.922  1.4193  2.0443 -0.0086
  221MOL   H11331353   4.217   4.448   5.806  0.3307  1.8571 -1.5433
  221MOL   C11431354   4.230   4.580   6.046  0.3112  0.9549 -0.0962
  221MOL   C11531355   4.131   4.567   6.160  0.2142 -0.3327 -0.7820
  221MOL   O11631356   4.180   4.486   6.269 -0.2127  0.0682 -0.0499
  221MOL   H11731357   4.289   4.490   6.037 -2.8216 -1.2021  0.0447
  221MOL   H11831358   4.302   4.660   6.063  0.0233  0.9531  1.2122
  221MOL   H11931359   4.046   4.518   6.113  0.5002  1.1266 -2.9099
  221MOL   H12031360   4.108   4.428   6.289 -0.8902  0.4960 -1.1606
  221MOL   C12131361   4.093   4.713   6.205 -0.4484 -0.6917 -0.2914
  221MOL   C12231362   3.973   4.719   6.300  0.1377  0.5218 -0.5479
  221MOL   O12331363   3.986   4.825   6.394 -0.0692  0.0269 -0.9241
  221MOL   H12431364   4.182   4.755   6.251 -0.3613 -2.0909  0.8345
  221MOL   H12531365   4.068   4.775   6.118 -0.8060 -0.8308 -0.2862
  221MOL   H12631366   3.959   4.625   6.352  0.9315  0.5539 -0.2641
  221MOL   H12731367   4.056   4.799   6.453  0.2146 -0.1676 -1.3480
  221MOL   C12831368   3.837   4.742   6.228  0.2966  0.4264 -0.6338
  221MOL   C12931369   3.800   4.634   6.132 -0.0548  0.7199  0.3743
  221MOL   O13031370   3.798   4.508   6.194  0.1314  0.1621  0.1148
  221MOL   H13131371   3.760   4.760   6.302 -1.8168 -1.5445 -2.2747
  221MOL   H13231372   3.847   4.840   6.183  1.2078  0.7464  0.2459
  221MOL   H13331373   3.871   4.620   6.050 -1.2803 -1.1443 -0.4040
  221MOL   H13431374   3.711   4.486   6.225  0.5410 -2.4965 -0.5791
  221MOL   C13531375   3.665   4.659   6.061 -0.0381 -0.4321  0.0932
  221MOL   C13631376   3.671   4.779   5.967 -0.3660 -0.2927 -0.3796
  221MOL   O13731377   3.544   4.807   5.912 -0.1813  0.3295 -0.0425
  221MOL   H13831378   3.652   4.581   5.986 -1.5902 -0.8568  0.7922
  221MOL   H13931379   3.584   4.648   6.132  0.9405  0.5157  1.3661
  221MOL   H14031380   3.750   4.759   5.895 -0.8318  2.1047 -1.6175
  221MOL   H14131381   3.483   4.795   5.984 -1.6873  0.6187 -1.2551
  221MOL   H14231382   3.683   4.869   6.027 -2.6411 -0.7425  0.8041
  222MOL     C131383   4.428   0.034   4.927  0.2925  0.5108 -0.4771
  222MOL     C231384   4.541   0.047   5.029 -0.0784 -0.1334 -1.0978
  222MOL     O331385   4.629   0.142   4.975 -0.2246  0.1946 -0.0561
  222MOL     H431386   4.345   7.487   4.952  0.6028  1.2793  2.7710
  222MOL     H531387   4.469   7.509   4.837  0.5633 -0.6672  0.2235
  222MOL     H631388   4.597   7.474   5.040 -1.4007 -0.7493  0.7102
  222MOL     H731389   4.698   0.148   5.040 -1.2141 -2.3388  1.3426
  222MOL     H831390   4.370   0.126   4.912  1.0168  1.1502  0.5930
  222MOL     C931391   4.500   0.087   5.172  0.4427 -0.0157 -0.5012
  222MOL    C1031392   4.412   7.497   5.240 -0.1817 -0.3869 -0.1641
  222MOL    O1131393   4.488   7.379   5.235  0.4137 -0.2547  0.4260
  222MOL    H1231394   4.585   0.114   5.235 -1.3267  1.1839  1.4611
  222MOL    H1331395   4.436   0.175   5.170  0.0856 -0.2314  0.8157
  222MOL    H1431396   4.324   7.482   5.177 -1.1485  2.3008  0.4636
  222MOL    H1531397   4.464   7.332   5.156 -2.0107  1.1190  0.3211
  222MOL    C1631398   4.354   7.516   5.378 -0.1018  0.7701  0.3623
  222MOL    C1731399   4.271   0.124   5.404  0.2805  0.0437  0.4624
  222MOL    O1831400   4.174   0.143   5.303 -0.0397 -0.0182 -0.5394
  222MOL    H1931401   4.301   7.424   5.401  2.9246 -1.0029  0.5052
  222MOL    H2031402   4.440   0.004   5.444 -0.4670  0.8284  0.8292
  222MOL    H2131403   4.334   0.212   5.387  0.1776  0.0973  0.3577
  222MOL    H2231404   4.131   0.059   5.290  0.6468 -0.8645  2.2159
  222MOL    C2331405   4.187   0.116   5.540  0.4573 -0.2687  0.0521
  222MOL    C2431406   4.134   0.252   5.595  0.1668  0.5087 -0.2367
  222MOL    O2531407   4.055   0.214   5.709 -0.0043 -0.5268 -0.4554
  222MOL    H2631408   4.101   0.052   5.521  1.7801 -1.7850 -0.9867
  222MOL    H2731409   4.250   0.063   5.612  0.4419 -0.8806 -0.3813
  222MOL    H2831410   4.077   0.303   5.516 -1.8216  1.2141  1.6077
  222MOL    H2931411   4.030   0.285   5.766  0.5337 -1.3744  0.8636
  222MOL    C3031412   4.256   0.336   5.641  0.0085 -0.3087  0.2663
  222MOL    C3131413   4.225   0.479   5.675 -0.2416  0.1114 -0.3278
  222MOL    O3231414   4.348   0.534   5.722 -0.7085  0.1261  0.0752
  222MOL    H3331415   4.297   0.291   5.731  1.2291 -1.3372 -0.7894
  222MOL    H3431416   4.341   0.337   5.573 -0.2863 -1.2443 -0.1142
  222MOL    H3531417   4.152   0.487   5.756 -1.9926  0.7469 -1.9346
  222MOL    H3631418   4.421   0.493   5.678  1.4109  0.4427  3.1289
  222MOL    C3731419   4.192   0.571   5.560  0.1904  0.7332  0.1701
  222MOL    C3831420   4.101   0.684   5.591 -0.4440 -0.0994 -0.8138
  222MOL    O3931421   4.104   0.781   5.490  0.3122 -0.0771  0.1019
  222MOL    H4031422   4.289   0.600   5.520  0.4918  0.1075  0.4350
  222MOL    H4131423   4.144   0.505   5.488  1.6251 -0.9554  0.6915
  222MOL    H4231424   4.135   0.733   5.682 -3.6557 -0.9452  0.9284
  222MOL    H4331425   4.118   0.731   5.412  1.5524  0.3658  0.0330
  222MOL    C4431426   3.953   0.630   5.592 -0.2975 -0.0736  0.3337
  222MOL    C4531427   3.843   0.727   5.653 -0.0369  0.1620  0.5423
  222MOL    O4631428   3.719   0.660   5.625 -0.0729 -0.1570 -0.2447
  222MOL    H4731429   3.924   0.586   5.497 -2.0230  0.4466  0.5936
  222MOL    H4831430   3.951   0.545   5.661 -0.1063  1.1156  1.8321
  222MOL    H4931431   3.841   0.819   5.595 -0.8016 -0.1440  0.0762
  222MOL    H5031432   3.659   0.730   5.604  0.2457 -0.4063 -2.0176
  222MOL    C5131433   3.862   0.759   5.801  0.3348 -0.6574  0.7265
  222MOL    C5231434   3.789   0.869   5.870  0.0665  0.7373 -0.3865
  222MOL    O5331435   3.792   0.857   6.012  0.0099  0.6482  1.0452
  222MOL    H5431436   3.862   0.667   5.861  3.0376 -2.7424 -2.3032
  222MOL    H5531437   3.966   0.790   5.795 -0.3543  1.7113  0.7705
  222MOL    H5631438   3.684   0.852   5.849 -0.1421  1.4860  0.0152
  222MOL    H5731439   3.727   0.794   6.038 -1.3654  2.3153  1.7638
  222MOL    C5831440   3.832   1.018   5.838 -0.0386  0.4729 -0.6463
  222MOL    C5931441   3.960   1.084   5.909 -0.4726  0.3709 -0.1244
  222MOL    O6031442   4.075   1.055   5.827  0.4162 -0.4349 -0.1757
  222MOL    H6131443   3.851   1.013   5.730 -2.5121 -2.4920 -1.0125
  222MOL    H6231444   3.744   1.079   5.852 -0.3712 -0.1969  0.2177
  222MOL    H6331445   3.976   1.046   6.010  0.8044  0.4423 -0.2907
  222MOL    H6431446   4.058   1.090   5.741  0.4220  0.8248  0.3235
  222MOL    C6531447   3.958   1.236   5.927  0.7143  0.4170  0.3691
  222MOL    C6631448   3.936   1.283   6.081  0.1537  0.1574  0.6778
  222MOL    O6731449   3.936   1.428   6.070 -0.5333  0.0738 -0.7407
  222MOL    H6831450   4.047   1.282   5.884  0.5128 -0.2279 -0.7552
  222MOL    H6931451   3.881   1.283   5.866 -0.5569  1.2054  2.5119
  222MOL    H7031452   4.023   1.249   6.137  0.6788 -1.5909 -1.1806
  222MOL    H7131453   3.883   1.457   6.142  1.2925  0.7296  0.3769
  222MOL    C7231454   3.811   1.223   6.147 -0.4628 -0.5852 -0.1347
  222MOL    C7331455   3.798   1.216   6.298  0.1499 -1.4401 -1.3561
  222MOL    O7431456   3.733   1.340   6.325  0.5202 -0.1206 -0.0651
  222MOL    H7531457   3.721   1.260   6.098 -0.3783 -1.2881 -0.8443
  222MOL    H7631458   3.799   1.118   6.119  1.6122 -0.9557  0.3019
  222MOL    H7731459   3.896   1.220   6.346 -1.6286  1.2232  2.2914
  222MOL    H7831460   3.792   1.411   6.344 -0.0770  1.0846 -2.4506
  222MOL    C7931461   3.732   1.093   6.371  0.2088  0.7661  0.3539
  222MOL    C8031462   3.817   0.967   6.349  0.6694 -0.4626 -0.2929
  222MOL    O8131463   3.946   0.989   6.402  1.1347  0.8194 -0.3483
  222MOL    H8231464   3.718   1.108   6.478  0.2800  2.8945  0.0860
  222MOL    H8331465   3.631   1.072   6.335 -0.3013  1.1469  1.5249
  222MOL    H8431466   3.834   0.958   6.242  1.0251  0.0185 -0.2786
  222MOL    H8531467   3.983   0.902   6.409  0.5239  0.4341 -1.6341
  222MOL    C8631468   3.752   0.844   6.416  0.7393 -0.3415  0.4484
  222MOL    C8731469   3.804   0.708   6.375 -0.0614  0.0388 -0.4518
  222MOL    O8831470   3.940   0.702   6.406  0.1198 -0.0965  0.0866
  222MOL    H8931471   3.749   0.851   6.525  0.3508 -0.6255  0.4567
  222MOL    H9031472   3.645   0.853   6.397  0.4268 -2.3600  1.1586
  222MOL    H9131473   3.799   0.706   6.266  1.0617  0.8367 -0.5288
  222MOL    H9231474   3.953   0.702   6.500  3.1374  1.0700 -0.2992
  222MOL    C9331475   3.736   0.585   6.429 -0.0487 -0.1733 -0.0203
  222MOL    C9431476   3.813   0.445   6.406  0.5089 -0.1359  0.4945
  222MOL    O9531477   3.783   0.362   6.519 -0.4674 -0.8666 -0.6345
  222MOL    H9631478   3.725   0.614   6.534  0.8954  2.1621 -0.5289
  222MOL    H9731479   3.632   0.594   6.398 -0.9189  0.6222  2.8879
  222MOL    H9831480   3.921   0.456   6.396  0.1334  0.7822 -3.2796
  222MOL    H9931481   3.862   0.314   6.541 -0.4363 -1.0121 -1.0590
  222MOL   C10031482   3.765   0.373   6.281 -0.4591 -0.4310  0.6264
  222MOL   C10131483   3.876   0.298   6.203  0.2471 -0.0220 -0.3444
  222MOL   O10231484   3.932   0.185   6.269  0.0531  0.2990  0.3147
  222MOL   H10331485   3.682   0.306   6.301 -1.6324  0.2139 -1.9483
  222MOL   H10431486   3.724   0.450   6.216  0.0001  0.6190  1.5521
  222MOL   H10531487   3.966   0.360   6.193  1.7460 -2.2184 -0.9662
  222MOL   H10631488   4.018   0.185   6.229  0.2531  0.4556  0.7471
  222MOL   C10731489   3.819   0.261   6.059 -0.5422  0.4326 -0.2176
  222MOL   C10831490   3.844   0.371   5.957  0.2733  0.7760  0.5350
  222MOL   O10931491   3.983   0.352   5.917  0.3447 -0.3593  0.5980
  222MOL   H11031492   3.861   0.165   6.030  1.2827  0.7151  1.3895
  222MOL   H11131493   3.715   0.234   6.075 -0.3980  0.6400  1.1403
  222MOL   H11231494   3.839   0.471   6.000 -0.4490  0.4166  1.3029
  222MOL   H11331495   4.038   0.393   5.983 -1.5161  1.4086  1.1019
  222MOL   C11431496   3.767   0.347   5.820  0.7885 -0.0370  0.5268
  222MOL   C11531497   3.617   0.382   5.833  0.2306  0.1039  0.6240
  222MOL   O11631498   3.603   0.521   5.845 -0.0800 -0.7863 -0.2041
  222MOL   H11731499   3.804   0.416   5.744 -1.6780  0.8511  0.0815
  222MOL   H11831500   3.772   0.243   5.789  0.9290  0.2139 -0.2798
  222MOL   H11931501   3.576   0.328   5.919 -1.6577  2.1625  1.0433
  222MOL   H12031502   3.642   0.561   5.769  2.0729  1.6802  2.1112
  222MOL   C12131503   3.534   0.344   5.706  0.1396 -0.0863 -0.3107
  222MOL   C12231504   3.386   0.332   5.719  0.3225  0.8095 -0.2700
  222MOL   O12331505   3.328   0.371   5.598 -0.0968 -0.1522  0.0450
  222MOL   H12431506   3.562   0.414   5.627 -1.6322  1.3056  0.2636
  222MOL   H12531507   3.574   0.250   5.669 -1.9208 -1.6658  1.3782
  222MOL   H12631508   3.343   0.395   5.796 -0.9086 -0.7762  0.3491
  222MOL   H12731509   3.340   0.463   5.580 -3.4627  0.1764 -0.7866
  222MOL   C12831510   3.347   0.185   5.753  0.0601 -0.1170  0.5175
  222MOL   C12931511   3.189   0.172   5.782  0.2341 -0.0920  0.2750
  222MOL   O13031512   3.128   0.087   5.692 -0.0021 -0.6168  0.3370
  222MOL   H13131513   3.386   0.113   5.681 -2.4753 -0.1255 -0.8804
  222MOL   H13231514   3.408   0.150   5.837  1.0346  1.4009  0.4569
  222MOL   H13331515   3.146   0.271   5.769 -3.5206 -1.5941  0.7913
  222MOL   H13431516   3.150   0.126   5.609 -1.2279  1.4931  0.9758
  222MOL   C13531517   3.167   0.111   5.913 -0.2185 -0.0524 -0.3966
  222MOL   C13631518   3.031   0.138   5.977  0.2093 -0.4721  0.6816
  222MOL   O13731519   3.001   0.054   6.082  0.2279 -0.6548 -0.1053
  222MOL   H13831520   3.183   0.003   5.910  0.4850  0.0557 -0.5468
  222MOL   H13931521   3.244   0.157   5.976  0.5039 -0.6380 -0.8462
  222MOL   H14031522   2.958   0.125   5.897 -0.7342 -0.4268  1.5170
  222MOL   H14131523   2.908   0.049   6.093  0.2320  1.0037  0.8736
  222MOL   H14231524   3.027   0.244   6.003 -0.9910 -0.8483  2.1005
  223MOL     C131525   1.019   3.270   3.514  0.2548  0.1929  0.1573
  223MOL     C231526   1.130   3.168   3.482  0.1197  0.4049  0.1088
  223MOL     O331527   1.250   3.227   3.520 -0.6536  0.4271 -0.5963
  223MOL     H431528   0.924   3.242   3.470 -0.1513  1.7021  0.0666
  223MOL     H531529   1.037   3.363   3.460 -0.4742 -0.6106 -1.5065
  223MOL     H631530   1.136   3.146   3.375  1.7730  0.2324  0.2224
  223MOL     H731531   1.317   3.161   3.508 -1.4993 -1.1603  2.9749
  223MOL     H831532   0.991   3.281   3.619  0.6471  0.2557  0.2574
  223MOL     C931533   1.103   3.038   3.551 -0.4055 -0.1760 -0.4704
  223MOL    C1031534   0.976   2.964   3.519 -0.3039 -0.1695  0.2950
  223MOL    O1131535   0.985   2.934   3.382 -0.0532 -0.1368 -0.1166
  223MOL    H1231536   1.189   2.973   3.534  1.1243  1.8438 -0.7214
  223MOL    H1331537   1.098   3.058   3.658 -0.3519  1.1497 -0.7088
  223MOL    H1431538   0.888   3.026   3.533  0.8257  1.7621 -0.9136
  223MOL    H1531539   0.984   3.004   3.319  1.2648  0.2953  0.3233
  223MOL    C1631540   0.959   2.826   3.586 -0.8312  1.5449 -0.2573
  223MOL    C1731541   0.919   2.832   3.736 -0.4191  0.7238 -0.3240
  223MOL    O1831542   0.800   2.896   3.766  0.1271  0.5284 -0.3146
  223MOL    H1931543   0.895   2.762   3.526  2.1659 -0.7250 -1.1812
  223MOL    H2031544   1.054   2.773   3.577 -0.6910  1.9415 -1.1930
  223MOL    H2131545   0.996   2.888   3.790 -0.1606 -1.7943  2.0251
  223MOL    H2231546   0.816   2.975   3.815  0.2476 -0.0408  0.5762
  223MOL    C2331547   0.918   2.685   3.798 -0.0215 -0.2504  0.8212
  223MOL    C2431548   0.945   2.664   3.947  0.5104 -0.0917  0.0774
  223MOL    O2531549   1.086   2.666   3.978  0.1695 -0.3124  0.2069
  223MOL    H2631550   0.820   2.641   3.776  0.4016 -0.9935  0.4069
  223MOL    H2731551   0.990   2.621   3.748  1.7052  0.5484  2.2094
  223MOL    H2831552   0.916   2.562   3.972  0.8845 -0.0184  0.8096
  223MOL    H2931553   1.135   2.612   3.917 -0.4449  0.5078 -1.0329
  223MOL    C3031554   0.858   2.748   4.050 -0.5484  0.3549  0.0624
  223MOL    C3131555   0.706   2.731   4.046 -0.5824  0.1528 -1.0608
  223MOL    O3231556   0.674   2.589   4.046 -0.1096 -0.0298  0.1713
  223MOL    H3331557   0.892   2.732   4.152 -0.1708  0.0243 -0.1154
  223MOL    H3431558   0.876   2.855   4.040 -0.3897  0.0918 -2.7481
  223MOL    H3531559   0.664   2.771   3.954  0.3255 -1.2600 -2.1203
  223MOL    H3631560   0.668   2.558   3.956 -1.3756  0.6295  0.0229
  223MOL    C3731561   0.626   2.803   4.157 -0.2236  0.7822  0.0615
  223MOL    C3831562   0.478   2.790   4.152 -0.3793  0.1657  0.0702
  223MOL    O3931563   0.457   2.659   4.179 -0.1682  0.2063 -0.2502
  223MOL    H4031564   0.666   2.771   4.253 -1.3339  0.7017  0.5032
  223MOL    H4131565   0.652   2.908   4.152  0.2971  0.6743  0.4504
  223MOL    H4231566   0.436   2.816   4.054 -1.6248  1.0971  0.8379
  223MOL    H4331567   0.526   2.615   4.133  0.9722  0.5291  1.1103
  223MOL    C4431568   0.396   2.879   4.257 -0.7836 -0.5063  0.0459
  223MOL    C4531569   0.387   3.028   4.228  0.0547  0.0346 -0.1804
  223MOL    O4631570   0.506   3.090   4.255  0.2803  0.0173  0.6014
  223MOL    H4731571   0.295   2.843   4.270  0.0812 -2.8228  0.6222
  223MOL    H4831572   0.434   2.874   4.359  0.2172 -0.5035 -0.3162
  223MOL    H4931573   0.313   3.070   4.296 -0.9665 -0.3426 -1.0434
  223MOL    H5031574   0.528   3.088   4.346 -0.0043  1.6054  0.7265
  223MOL    C5131575   0.346   3.058   4.082  0.2133 -0.1640  0.9197
  223MOL    C5231576   0.212   2.982   4.041  0.3635  0.5654  0.0006
  223MOL    O5331577   0.093   3.048   4.081  0.4025 -0.6702  0.4605
  223MOL    H5431578   0.322   3.163   4.066  1.3012  0.0054  0.3153
  223MOL    H5531579   0.435   3.032   4.025 -0.1114  1.7606 -0.5170
  223MOL    H5631580   0.212   2.876   4.067  1.1744  0.3826 -0.7046
  223MOL    H5731581   0.028   3.027   4.015  2.9286  0.3812 -2.4608
  223MOL    C5831582   0.201   2.987   3.893  0.0912  0.0809  0.0481
  223MOL    C5931583   0.110   2.889   3.829 -0.2187 -0.6369  1.2230
  223MOL    O6031584   7.501   2.951   3.828  0.2887 -0.1229 -0.1173
  223MOL    H6131585   0.187   3.088   3.856 -0.8198 -0.5753 -1.4406
  223MOL    H6231586   0.302   2.961   3.860  0.2815 -0.7687  1.2461
  223MOL    H6331587   0.086   2.803   3.892 -0.6106 -2.6368 -1.5436
  223MOL    H6431588   7.481   2.998   3.748  1.0592  2.3331  1.0904
  223MOL    C6531589   0.154   2.855   3.687 -0.7543 -0.0059  1.0223
  223MOL    C6631590   0.258   2.741   3.686 -0.5548 -0.5335  0.3555
  223MOL    O6731591   0.180   2.620   3.670  0.1781  0.5398  0.1968
  223MOL    H6831592   0.073   2.831   3.618 -0.2493  0.5547  0.2276
  223MOL    H6931593   0.209   2.937   3.641  1.2353 -1.9915 -0.2107
  223MOL    H7031594   0.299   2.722   3.785 -0.0549 -0.1470  0.2237
  223MOL    H7131595   0.150   2.583   3.751  0.3688 -3.0043 -1.2328
  223MOL    C7231596   0.367   2.752   3.577 -1.1051  0.3085 -0.5349
  223MOL    C7331597   0.492   2.843   3.608 -0.0463 -0.3643 -0.2857
  223MOL    O7431598   0.544   2.806   3.731 -0.5109  0.1092  0.1788
  223MOL    H7531599   0.401   2.649   3.572 -1.0489  0.2581  0.8698
  223MOL    H7631600   0.319   2.777   3.482 -1.5139  2.3089  0.1853
  223MOL    H7731601   0.462   2.947   3.605  1.3313  0.0655  0.4312
  223MOL    H7831602   0.618   2.860   3.753 -2.1181  1.8698  1.3792
  223MOL    C7931603   0.608   2.826   3.512  0.0921 -0.4828  0.7816
  223MOL    C8031604   0.572   2.874   3.369 -0.1143  0.0721  0.9188
  223MOL    O8131605   0.600   3.012   3.363  0.1034 -0.2179 -1.0208
  223MOL    H8231606   0.696   2.879   3.549 -0.0864  0.8565 -0.6591
  223MOL    H8331607   0.631   2.720   3.513 -0.7355 -0.6643  1.7530
  223MOL    H8431608   0.467   2.851   3.350 -0.1323  0.9837 -0.1895
  223MOL    H8531609   0.593   3.043   3.275 -2.2805  0.8587 -0.4742
  223MOL    C8631610   0.640   2.790   3.257  0.6247 -0.1535 -0.4713
  223MOL    C8731611   0.549   2.687   3.175  0.6938  0.7645  0.5424
  223MOL    O8831612   0.493   2.756   3.059  0.0001 -0.4600 -0.0015
  223MOL    H8931613   0.671   2.866   3.185 -0.0165 -0.3189 -0.9248
  223MOL    H9031614   0.725   2.738   3.303 -0.5769 -2.1933 -0.4830
  223MOL    H9131615   0.462   2.665   3.236  0.5964  2.0553  0.8865
  223MOL    H9231616   0.565   2.783   3.003 -0.9731 -0.2117 -1.1429
  223MOL    C9331617   0.623   2.562   3.127  0.7597  0.0985  0.0044
  223MOL    C9431618   0.673   2.468   3.238 -0.0206  0.4031  0.0504
  223MOL    O9531619   0.560   2.423   3.314 -0.2223 -0.0879 -0.4298
  223MOL    H9631620   0.555   2.509   3.061  0.7592  2.0665 -1.5940
  223MOL    H9731621   0.708   2.591   3.065  1.7634  0.5281  1.5399
  223MOL    H9831622   0.752   2.517   3.295  0.2711  0.2745 -0.2359
  223MOL    H9931623   0.480   2.409   3.266 -1.4155 -1.7265  1.9201
  223MOL   C10031624   0.722   2.334   3.175  0.7555 -0.3546 -0.0550
  223MOL   C10131625   0.802   2.259   3.278 -0.1367  0.2597 -0.0938
  223MOL   O10231626   0.802   2.125   3.228 -0.0082  0.0685  0.0516
  223MOL   H10331627   0.637   2.287   3.127 -0.7720  1.6797  0.5923
  223MOL   H10431628   0.794   2.359   3.097 -1.6307  3.2197 -1.2312
  223MOL   H10531629   0.750   2.248   3.374 -1.6812  1.1008 -0.8066
  223MOL   H10631630   0.847   2.073   3.292  0.0826 -1.0981 -0.9352
  223MOL   C10731631   0.949   2.304   3.291  0.0042 -0.3314 -0.2298
  223MOL   C10831632   1.042   2.203   3.347 -0.2012 -0.3395 -0.6117
  223MOL   O10931633   1.173   2.254   3.317  0.6578 -0.4244  0.2188
  223MOL   H11031634   0.983   2.327   3.189  0.7602  1.4792  0.4058
  223MOL   H11131635   0.960   2.398   3.345 -0.4170 -1.5754  2.0363
  223MOL   H11231636   1.039   2.105   3.299 -1.5022 -0.4168 -0.3912
  223MOL   H11331637   1.169   2.348   3.314  0.9719 -0.3652  1.1878
  223MOL   C11431638   1.051   2.181   3.501  0.3550 -0.0301 -0.0340
  223MOL   C11531639   0.926   2.127   3.570 -0.0350 -0.3560 -0.0914
  223MOL   O11631640   0.898   2.009   3.501 -0.1503  0.2965 -0.3648
  223MOL   H11731641   1.134   2.117   3.531 -0.7637 -1.2579  0.4538
  223MOL   H11831642   1.060   2.279   3.548  1.4929 -0.5379  0.8217
  223MOL   H11931643   0.835   2.183   3.547 -0.5916 -1.4125 -0.5022
  223MOL   H12031644   0.965   1.943   3.510  1.5313  1.9956 -0.2775
  223MOL   C12131645   0.926   2.099   3.722 -0.3189  0.4952 -0.0227
  223MOL   C12231646   0.904   2.210   3.825  0.2512  0.0521  0.4072
  223MOL   O12331647   1.016   2.296   3.807 -0.1597 -0.0835 -0.3711
  223MOL   H12431648   0.850   2.025   3.744  0.0434 -0.3432 -1.4922
  223MOL   H12531649   1.021   2.047   3.736 -0.7996  0.0121  1.5088
  223MOL   H12631650   0.912   2.161   3.922  0.4879 -1.1813 -0.2130
  223MOL   H12731651   1.064   2.318   3.885 -1.9151  0.0294  0.7154
  223MOL   C12831652   0.775   2.295   3.806 -0.2520  0.0816  0.2991
  223MOL   C12931653   0.640   2.220   3.804 -0.2227 -0.6484 -1.0012
  223MOL   O13031654   0.633   2.137   3.916 -0.7078  0.7075  0.0537
  223MOL   H13131655   0.774   2.353   3.898  0.5232  0.2466  0.2071
  223MOL   H13231656   0.788   2.354   3.715 -0.3695 -0.8347 -0.3255
  223MOL   H13331657   0.621   2.161   3.715 -0.7433  0.5812 -1.7048
  223MOL   H13431658   0.647   2.178   4.000  2.0854  0.0266 -0.0202
  223MOL   C13531659   0.519   2.310   3.813 -0.1371 -0.2386 -0.1339
  223MOL   C13631660   0.527   2.433   3.723 -0.1594  0.0323 -0.0869
  223MOL   O13731661   0.576   2.547   3.798  0.0648 -0.0341 -0.4509
  223MOL   H13831662   0.437   2.248   3.778 -1.0462  1.5205 -1.2175
  223MOL   H13931663   0.497   2.343   3.914 -1.4530  1.1798 -0.8524
  223MOL   H14031664   0.429   2.461   3.685  0.0551  1.4403  0.3603
  223MOL   H14131665   0.557   2.624   3.747  2.6416  2.0319  1.5448
  223MOL   H14231666   0.589   2.429   3.634 -0.6764  0.2686 -0.4592
  224MOL     C131667   1.350   1.628   5.457  0.1671 -0.1104 -0.1613
  224MOL     C231668   1.379   1.778   5.477  0.2989  0.3523 -0.0399
  224MOL     O331669   1.334   1.811   5.611 -0.2375 -0.5989 -0.0037
  224MOL     H431670   1.408   1.586   5.375 -2.0806  0.5351 -2.1499
  224MOL     H531671   1.244   1.613   5.436  0.0615  0.6285 -0.1800
  224MOL     H631672   1.325   1.842   5.406 -0.8859  0.8131  1.2515
  224MOL     H731673   1.243   1.835   5.604 -0.1488 -0.0927  0.5309
  224MOL     H831674   1.382   1.567   5.541 -2.7361 -2.1844 -0.4817
  224MOL     C931675   1.533   1.814   5.482  0.7139  0.2069 -0.7513
  224MOL    C1031676   1.574   1.955   5.537  0.7148  0.1212  0.2761
  224MOL    O1131677   1.545   1.959   5.669 -0.0767 -0.4541 -0.2525
  224MOL    H1231678   1.578   1.736   5.544  1.3873  2.3401  1.5192
  224MOL    H1331679   1.579   1.786   5.387  1.8378  1.5246 -0.6044
  224MOL    H1431680   1.518   2.033   5.484  2.5625  2.5421  1.7859
  224MOL    H1531681   1.464   1.913   5.683 -1.0777  1.6408  0.9621
  224MOL    C1631682   1.723   1.984   5.506  0.4229 -0.2171 -0.0817
  224MOL    C1731683   1.763   2.134   5.524 -0.2212  0.1704  0.3096
  224MOL    O1831684   1.789   2.155   5.661  0.2207  0.4079  0.5922
  224MOL    H1931685   1.785   1.916   5.564  1.5945  1.0103  0.1241
  224MOL    H2031686   1.730   1.961   5.399 -2.6445 -1.0457 -0.1539
  224MOL    H2131687   1.680   2.197   5.492  1.1333  1.7713 -0.0685
  224MOL    H2231688   1.744   2.083   5.701  0.1131  1.0115  1.5553
  224MOL    C2331689   1.894   2.189   5.457 -0.4201  0.4206 -1.1687
  224MOL    C2431690   1.905   2.183   5.298 -0.3824 -0.3576 -0.1021
  224MOL    O2531691   1.804   2.248   5.230  0.3982  0.1678 -0.8286
  224MOL    H2631692   1.904   2.292   5.491 -1.1211  0.0559  0.1325
  224MOL    H2731693   1.980   2.148   5.509  0.7657  1.6366 -2.0994
  224MOL    H2831694   1.900   2.078   5.267 -2.7027  0.5642 -3.1100
  224MOL    H2931695   1.812   2.339   5.253 -1.7702 -0.2126  1.7524
  224MOL    C3031696   2.038   2.234   5.252 -0.4882  0.6500 -0.3876
  224MOL    C3131697   2.092   2.167   5.119  0.2337 -0.0471 -0.2968
  224MOL    O3231698   2.016   2.197   5.003  0.0831 -0.1306 -0.8285
  224MOL    H3331699   2.039   2.343   5.251  0.0667  0.6466 -0.4687
  224MOL    H3431700   2.105   2.211   5.335  0.2026 -1.3383 -1.4579
  224MOL    H3531701   2.085   2.059   5.127 -2.8117  0.2326  1.3935
  224MOL    H3631702   1.929   2.161   5.011  0.6757 -1.1440  1.7214
  224MOL    C3731703   2.237   2.207   5.094  0.6680 -0.2136 -0.2064
  224MOL    C3831704   2.319   2.108   5.008  0.2881  0.1607 -0.1826
  224MOL    O3931705   2.349   1.989   5.081 -0.0398  0.0054 -0.4971
  224MOL    H4031706   2.229   2.310   5.059 -1.2200  0.2680  1.5283
  224MOL    H4131707   2.279   2.215   5.194 -2.9681  1.2840  1.3105
  224MOL    H4231708   2.415   2.159   5.003 -1.0173  2.8530  1.0488
  224MOL    H4331709   2.403   2.015   5.154  2.7658 -0.0429 -2.4857
  224MOL    C4431710   2.265   2.083   4.870 -0.0420 -0.8242  0.5373
  224MOL    C4531711   2.250   2.206   4.779  0.4268  0.0485  0.4669
  224MOL    O4631712   2.370   2.269   4.769 -0.2051  0.1485  0.0820
  224MOL    H4731713   2.322   2.008   4.816  0.3177  0.6055 -1.1049
  224MOL    H4831714   2.164   2.040   4.875 -0.0175 -0.8952  0.4241
  224MOL    H4931715   2.177   2.282   4.808  0.3126  0.3643 -0.6329
  224MOL    H5031716   2.354   2.345   4.715 -1.8139 -0.7095 -0.6860
  224MOL    C5131717   2.200   2.181   4.642  0.0225  0.1274 -0.0728
  224MOL    C5231718   2.067   2.111   4.631 -0.2181 -0.4485 -0.5964
  224MOL    O5331719   1.973   2.192   4.699 -0.4345 -0.2900  0.5978
  224MOL    H5431720   2.197   2.276   4.589  0.4143  0.1751 -0.0116
  224MOL    H5531721   2.272   2.123   4.584 -2.1333  0.2024 -2.9309
  224MOL    H5631722   2.059   2.012   4.675  1.3315  0.7101  2.4260
  224MOL    H5731723   1.986   2.186   4.793 -0.6476 -1.1388  0.5810
  224MOL    C5831724   2.035   2.092   4.484  0.5012 -0.2618 -0.1669
  224MOL    C5931725   2.102   1.975   4.406 -0.4157 -0.3095 -0.3363
  224MOL    O6031726   2.000   1.923   4.321  0.5505  0.2762 -0.6625
  224MOL    H6131727   1.927   2.080   4.491  0.4365 -0.7265 -1.7102
  224MOL    H6231728   2.048   2.185   4.428  0.1254 -1.4083 -2.1686
  224MOL    H6331729   2.119   1.897   4.480 -3.7109 -0.6140  0.1840
  224MOL    H6431730   2.007   1.830   4.308  1.4242  0.2461 -0.0420
  224MOL    C6531731   2.226   1.991   4.316 -0.0047  0.7955 -0.6465
  224MOL    C6631732   2.356   1.923   4.375  0.3248  0.1609 -0.7208
  224MOL    O6731733   2.346   1.781   4.354 -0.1281  0.4672 -0.1451
  224MOL    H6831734   2.201   1.950   4.218  2.2154  1.2609 -1.4471
  224MOL    H6931735   2.226   2.099   4.304  0.1148  1.0092  1.0872
  224MOL    H7031736   2.358   1.925   4.484 -0.0573 -3.3255 -0.5776
  224MOL    H7131737   2.361   1.774   4.261  1.5828  2.5805 -0.0858
  224MOL    C7231738   2.491   1.972   4.319 -0.2494 -0.0854  0.2761
  224MOL    C7331739   2.562   2.102   4.356 -1.1330  0.1666 -0.1013
  224MOL    O7431740   2.469   2.207   4.322 -0.0142  0.5768  0.3310
  224MOL    H7531741   2.558   1.890   4.342 -0.2262  0.4455  2.1749
  224MOL    H7631742   2.475   1.971   4.211 -0.3683 -1.2988  0.2976
  224MOL    H7731743   2.645   2.130   4.291  0.4483  0.5253  2.0220
  224MOL    H7831744   2.468   2.190   4.229  1.4325 -1.7331  0.6843
  224MOL    C7931745   2.609   2.121   4.496  0.1331  0.2302 -0.2149
  224MOL    C8031746   2.747   2.184   4.515  0.1056  0.1897 -0.0301
  224MOL    O8131747   2.758   2.202   4.652  0.0485  0.2105  0.1203
  224MOL    H8231748   2.537   2.181   4.552 -0.6759  1.3758 -2.4143
  224MOL    H8331749   2.619   2.020   4.535 -0.8649  0.7059  1.3357
  224MOL    H8431750   2.754   2.278   4.461 -0.8966  0.5362  0.4216
  224MOL    H8531751   2.790   2.289   4.670  0.5853  0.4162 -1.7724
  224MOL    C8631752   2.865   2.102   4.455 -0.4169  0.5853 -0.2755
  224MOL    C8731753   3.004   2.179   4.475  0.3736 -0.4510 -0.2139
  224MOL    O8831754   3.037   2.187   4.614 -0.3651 -0.3713  0.4506
  224MOL    H8931755   2.863   2.002   4.497  0.1790  0.8057  0.2792
  224MOL    H9031756   2.838   2.095   4.350  2.4835 -1.6857 -0.9295
  224MOL    H9131757   2.978   2.277   4.435 -2.4827 -0.1155  2.2677
  224MOL    H9231758   2.952   2.173   4.654  0.1101 -1.6853  1.0459
  224MOL    C9331759   3.120   2.121   4.394  0.0632 -0.0188  0.0986
  224MOL    C9431760   3.169   1.983   4.421  0.2639  0.1470  0.0495
  224MOL    O9531761   3.214   1.930   4.297  0.0539  0.2697 -0.5041
  224MOL    H9631762   3.085   2.117   4.290  2.1205  0.5227 -0.6320
  224MOL    H9731763   3.211   2.179   4.387 -0.1270  0.3528  0.7006
  224MOL    H9831764   3.081   1.925   4.447  2.3500 -2.1637  2.2528
  224MOL    H9931765   3.136   1.897   4.256 -0.1179  0.4533 -0.3279
  224MOL   C10031766   3.284   1.967   4.523 -0.0862 -0.2619  0.2186
  224MOL   C10131767   3.309   1.827   4.555 -0.4184 -0.2667 -0.0775
  224MOL   O10231768   3.409   1.827   4.655 -0.3475  0.2706  0.0984
  224MOL   H10331769   3.372   2.019   4.485 -0.7431  0.5809 -0.1566
  224MOL   H10431770   3.262   2.024   4.613  0.0175  1.2484 -0.7045
  224MOL   H10531771   3.328   1.770   4.464 -0.4824 -0.8267  0.2618
  224MOL   H10631772   3.427   1.738   4.683 -0.4621  0.8665  2.2093
  224MOL   C10731773   3.192   1.745   4.622  0.1760 -0.1203 -0.4508
  224MOL   C10831774   3.218   1.587   4.633  0.3317 -0.9265 -0.1409
  224MOL   O10931775   3.278   1.564   4.762 -0.3082 -0.0239 -0.1135
  224MOL   H11031776   3.160   1.775   4.722  2.1195  0.4269  0.0322
  224MOL   H11131777   3.100   1.745   4.565 -1.3768  0.0706  2.0053
  224MOL   H11231778   3.300   1.559   4.567  1.3186 -2.2995  1.6266
  224MOL   H11331779   3.342   1.494   4.758  0.6238  0.9180 -1.8908
  224MOL   C11431780   3.093   1.503   4.609 -0.7809 -0.1037  0.4466
  224MOL   C11531781   3.116   1.352   4.611  0.1140  0.2738  0.1980
  224MOL   O11631782   3.137   1.321   4.747 -0.6902 -0.4908 -0.1076
  224MOL   H11731783   3.018   1.530   4.683  0.9685  0.6415  1.9821
  224MOL   H11831784   3.068   1.534   4.508  4.6366  0.3174 -0.8858
  224MOL   H11931785   3.205   1.329   4.553 -0.1075  1.7011 -0.7349
  224MOL   H12031786   3.208   1.372   4.782  1.6162 -2.2384 -2.0627
  224MOL   C12131787   2.990   1.269   4.563 -0.1730 -0.1671 -0.4190
  224MOL   C12231788   3.000   1.122   4.526  0.2984  0.3432  0.7998
  224MOL   O12331789   3.068   1.100   4.403  0.1805 -0.0770  0.2300
  224MOL   H12431790   2.929   1.281   4.653 -1.0880 -0.1709 -1.0352
  224MOL   H12531791   2.944   1.336   4.490  0.9351 -0.0697 -1.0315
  224MOL   H12631792   2.899   1.087   4.504  0.6235  0.1054 -0.3311
  224MOL   H12731793   3.008   1.118   4.332 -0.2536 -0.6408  0.4548
  224MOL   C12831794   3.056   1.023   4.634 -0.1722 -0.7455 -0.2768
  224MOL   C12931795   3.036   0.873   4.623 -0.1609  0.3282 -0.7375
  224MOL   O13031796   3.120   0.836   4.515 -0.2405 -0.0750 -0.5698
  224MOL   H13131797   3.161   1.042   4.657 -0.6637 -0.2765  1.6217
  224MOL   H13231798   3.004   1.048   4.726  0.2756 -0.2229 -0.1641
  224MOL   H13331799   2.931   0.852   4.600 -0.1712  0.2358 -0.6037
  224MOL   H13431800   3.108   0.917   4.466  0.2565 -0.3188 -1.1031
  224MOL   C13531801   3.089   0.798   4.743 -0.5128  0.5894 -1.0878
  224MOL   C13631802   3.079   0.644   4.722  0.0443 -0.0028  0.6848
  224MOL   O13731803   3.102   0.567   4.844  0.3799 -0.5237  0.4724
  224MOL   H13831804   3.190   0.828   4.769 -0.7808  0.3335  0.2596
  224MOL   H13931805   3.035   0.822   4.834  0.6975  1.3088 -0.5429
  224MOL   H14031806   3.142   0.621   4.636 -1.7826  1.0130 -0.9669
  224MOL   H14131807   3.194   0.574   4.864  0.3891  0.8445  0.0488
  224MOL   H14231808   2.976   0.615   4.701  1.5149 -4.2704 -1.0518
  225MOL     C131809   6.753   2.146   4.003  0.2051  0.3954 -0.2367
  225MOL     C231810   6.612   2.114   4.035  0.5399  0.3299  0.3549
  225MOL     O331811   6.560   2.241   4.055 -0.1142 -0.2040 -0.6836
  225MOL     H431812   6.805   2.053   3.982  0.4820  0.8508 -1.5966
  225MOL     H531813   6.797   2.192   4.092 -2.1201  1.9045  0.1987
  225MOL     H631814   6.596   2.064   4.130 -0.7274  2.2569  1.1995
  225MOL     H731815   6.466   2.240   4.044 -0.4161  1.8829  1.4238
  225MOL     H831816   6.763   2.206   3.913 -0.1154  0.8363  0.0166
  225MOL     C931817   6.537   2.045   3.924 -0.5375 -0.3498 -0.0735
  225MOL    C1031818   6.564   1.897   3.897  0.4678 -0.4632  0.2193
  225MOL    O1131819   6.527   1.819   4.004 -0.0306  0.0718  0.5965
  225MOL    H1231820   6.431   2.068   3.936 -1.0056 -1.2371 -2.2729
  225MOL    H1331821   6.562   2.103   3.835  1.1381  0.6670  1.0397
  225MOL    H1431822   6.672   1.895   3.883  0.4462  2.0064 -0.5345
  225MOL    H1531823   6.592   1.835   4.071 -0.8201  1.6078  1.0369
  225MOL    C1631824   6.487   1.838   3.769  0.3364 -0.0738 -0.1541
  225MOL    C1731825   6.555   1.720   3.705  0.5365  0.8316 -0.0560
  225MOL    O1831826   6.458   1.654   3.623  0.0026  0.3453  0.4857
  225MOL    H1931827   6.380   1.834   3.793  0.4495  1.2932  0.6047
  225MOL    H2031828   6.483   1.920   3.698  0.4359  0.9451  1.0087
  225MOL    H2131829   6.576   1.648   3.784 -1.7254 -0.8895 -0.9778
  225MOL    H2231830   6.404   1.616   3.690  0.7199 -1.3265  0.1375
  225MOL    C2331831   6.690   1.738   3.636 -0.2114  0.2259 -0.2946
  225MOL    C2431832   6.791   1.631   3.680  0.0607  0.0975 -0.0395
  225MOL    O2531833   6.902   1.641   3.596 -0.4004 -0.4358 -0.1777
  225MOL    H2631834   6.679   1.714   3.530 -1.9513  0.8870 -0.2833
  225MOL    H2731835   6.732   1.837   3.649 -1.6602  0.6706  1.0440
  225MOL    H2831836   6.745   1.532   3.670 -0.5586  0.2763  1.0080
  225MOL    H2931837   6.880   1.591   3.519  0.9395 -1.1482 -0.0939
  225MOL    C3031838   6.843   1.651   3.820 -0.0366 -0.1906  0.1208
  225MOL    C3131839   6.962   1.562   3.872  0.5310 -0.3759 -0.0858
  225MOL    O3231840   6.985   1.603   4.005  0.6126  0.0640 -0.2723
  225MOL    H3331841   6.893   1.748   3.808  0.6404 -0.5228  0.2265
  225MOL    H3431842   6.758   1.636   3.885  0.2953  0.6855  0.7688
  225MOL    H3531843   7.045   1.582   3.803  0.2403 -1.3820 -0.7461
  225MOL    H3631844   7.054   1.549   4.039 -0.7612 -1.4868  0.1210
  225MOL    C3731845   6.921   1.414   3.863 -0.1391  0.4815  0.4239
  225MOL    C3831846   7.037   1.322   3.894 -0.5020  0.4006 -0.0679
  225MOL    O3931847   6.966   1.200   3.890  0.5082 -0.7599  0.1865
  225MOL    H4031848   6.839   1.389   3.930 -0.4641 -0.7043 -0.4156
  225MOL    H4131849   6.881   1.391   3.764  0.3401  0.4521  0.2345
  225MOL    H4231850   7.075   1.327   3.997 -0.8358 -0.7886  0.1263
  225MOL    H4331851   7.026   1.127   3.883  0.1740 -1.0286  0.1439
  225MOL    C4431852   7.144   1.311   3.791  0.4561  0.8116  0.1196
  225MOL    C4531853   7.265   1.217   3.812 -0.8739 -0.3908  0.9169
  225MOL    O4631854   7.234   1.103   3.892  0.3024  0.1585 -0.5865
  225MOL    H4731855   7.109   1.284   3.692 -1.4818 -0.7366  1.1919
  225MOL    H4831856   7.190   1.410   3.790 -2.0267  2.0011  0.0783
  225MOL    H4931857   7.345   1.269   3.863  2.9140 -3.5155 -1.5292
  225MOL    H5031858   7.249   1.128   3.981  0.2318 -2.8286  0.3106
  225MOL    C5131859   7.323   1.169   3.682 -0.3086  0.3121 -0.2282
  225MOL    C5231860   7.459   1.105   3.710 -1.1984  0.2044 -0.5691
  225MOL    O5331861   7.493   1.043   3.586  0.0100  0.1722 -0.4763
  225MOL    H5431862   7.239   1.116   3.637 -0.1736 -1.5018  1.6035
  225MOL    H5531863   7.331   1.249   3.608 -1.3579 -0.1332 -0.8332
  225MOL    H5631864   7.450   1.026   3.785  2.9378  0.8262  0.6663
  225MOL    H5731865   7.454   0.961   3.561  0.7859  0.3399 -2.2900
  225MOL    C5831866   0.062   1.206   3.755 -0.0031  0.1382 -0.2476
  225MOL    C5931867   0.090   1.209   3.910  0.1979  0.1387 -0.4635
  225MOL    O6031868   0.152   1.085   3.949 -0.4472 -0.2808  0.0326
  225MOL    H6131869   0.153   1.186   3.699 -0.3713 -0.9491 -0.4659
  225MOL    H6231870   0.028   1.304   3.719  1.4149  0.5251 -0.5702
  225MOL    H6331871   0.003   1.212   3.976 -0.7838 -1.7560 -1.6071
  225MOL    H6431872   0.243   1.085   3.922 -0.1951 -0.4503  0.8615
  225MOL    C6531873   0.192   1.322   3.954  0.2552 -0.1920  0.5066
  225MOL    C6631874   0.125   1.463   3.957  0.1093 -0.6328  0.2014
  225MOL    O6731875   0.150   1.520   4.084  0.0951  0.2181 -0.2043
  225MOL    H6831876   0.226   1.290   4.053 -1.1418  0.7261  1.3051
  225MOL    H6931877   0.279   1.324   3.890  1.2357 -0.5797  1.7967
  225MOL    H7031878   0.016   1.453   3.964  0.0767 -0.7765 -0.4535
  225MOL    H7131879   0.097   1.598   4.087  0.9943  1.0542 -3.7546
  225MOL    C7231880   0.161   1.559   3.847  0.6414 -0.0918 -0.1400
  225MOL    C7331881   0.304   1.622   3.850 -0.2347  0.4941 -0.0545
  225MOL    O7431882   0.342   1.649   3.717  0.0963  0.3714 -0.1749
  225MOL    H7531883   0.136   1.506   3.755  2.0481 -1.8252  0.4668
  225MOL    H7631884   0.087   1.639   3.855  0.2630 -0.6465  2.1366
  225MOL    H7731885   0.379   1.549   3.881  2.8180  2.8276 -1.6411
  225MOL    H7831886   0.385   1.575   3.675  1.0793  0.0812  1.2867
  225MOL    C7931887   0.314   1.752   3.918  0.4849 -0.4840 -0.2996
  225MOL    C8031888   0.457   1.826   3.924  0.7319 -0.3667  0.4901
  225MOL    O8131889   0.435   1.963   3.963  0.0727  0.1552 -0.1867
  225MOL    H8231890   0.241   1.819   3.871  1.4199  0.4998 -0.3698
  225MOL    H8331891   0.282   1.728   4.019  1.2650  0.7561  0.2592
  225MOL    H8431892   0.504   1.827   3.825  1.6409 -1.4165  0.9041
  225MOL    H8531893   0.501   2.022   3.930 -0.0758  1.3005  1.4836
  225MOL    C8631894   0.550   1.763   4.022 -0.1805 -0.1583  0.2816
  225MOL    C8731895   0.702   1.792   3.992  0.2843 -0.0707  0.7022
  225MOL    O8831896   0.762   1.729   4.109 -0.5269  0.0186 -0.3321
  225MOL    H8931897   0.529   1.824   4.110 -2.2279  1.1497 -1.0631
  225MOL    H9031898   0.525   1.658   4.037 -0.4569 -0.1480 -0.1016
  225MOL    H9131899   0.716   1.899   4.006 -2.9749  0.5674 -0.3834
  225MOL    H9231900   0.799   1.789   4.172  1.2759  0.8140 -2.1103
  225MOL    C9331901   0.764   1.745   3.860  0.3572  0.0386 -0.3940
  225MOL    C9431902   0.721   1.609   3.808  0.2265 -0.0412  0.7196
  225MOL    O9531903   0.775   1.596   3.671 -0.1536 -0.2088 -0.2778
  225MOL    H9631904   0.747   1.826   3.788 -0.2389  0.3712  0.1150
  225MOL    H9731905   0.871   1.764   3.866 -0.1914  3.3615 -0.1532
  225MOL    H9831906   0.612   1.595   3.811  0.1587  0.6414  1.3258
  225MOL    H9931907   0.844   1.532   3.667  0.3854  0.3786 -0.3365
  225MOL   C10031908   0.773   1.498   3.901 -0.1801  0.0396 -0.3022
  225MOL   C10131909   0.748   1.347   3.862 -0.1322 -0.2602 -0.0935
  225MOL   O10231910   0.853   1.264   3.892  0.2200  0.1894  0.2474
  225MOL   H10331911   0.880   1.513   3.915  0.3686 -3.5568 -0.3208
  225MOL   H10431912   0.732   1.512   4.001  2.4079  0.2792  0.7869
  225MOL   H10531913   0.740   1.348   3.754 -1.1023  0.4240 -0.0184
  225MOL   H10631914   0.922   1.274   3.827  0.1375  0.3427  0.1839
  225MOL   C10731915   0.615   1.282   3.919  0.8557  0.1424 -0.2382
  225MOL   C10831916   0.574   1.150   3.844  0.0065  0.4216 -0.3706
  225MOL   O10931917   0.466   1.079   3.900 -0.2987  0.0505 -0.5875
  225MOL   H11031918   0.625   1.266   4.027  1.5118  2.1424  0.0194
  225MOL   H11131919   0.533   1.354   3.913 -1.1377 -2.0793 -0.0120
  225MOL   H11231920   0.662   1.087   3.851 -0.2554 -0.0085 -0.9331
  225MOL   H11331921   0.490   1.026   3.975  1.9394 -0.0182 -1.3027
  225MOL   C11431922   0.526   1.179   3.703  0.7815  0.4073 -0.4027
  225MOL   C11531923   0.507   1.063   3.603 -0.0697 -0.2965  0.1675
  225MOL   O11631924   0.516   1.125   3.482  0.1922  0.0503 -0.0738
  225MOL   H11731925   0.436   1.240   3.705  0.0631 -0.6863  1.1887
  225MOL   H11831926   0.588   1.254   3.653 -0.9967  1.4460 -1.0852
  225MOL   H11931927   0.410   1.015   3.616  0.9636 -2.7905 -0.8838
  225MOL   H12031928   0.479   1.078   3.409 -1.0602 -1.8038  1.7162
  225MOL   C12131929   0.617   0.946   3.608  0.1864  0.1973  0.2247
  225MOL   C12231930   0.584   0.827   3.511  0.3073 -0.1834 -0.6350
  225MOL   O12331931   0.703   0.745   3.505 -0.3363 -0.2635 -0.0134
  225MOL   H12431932   0.723   0.971   3.599  0.4178 -0.8909 -0.1907
  225MOL   H12531933   0.612   0.902   3.708  0.2227 -2.4138 -0.8880
  225MOL   H12631934   0.574   0.866   3.410  2.7535  0.1124 -0.7906
  225MOL   H12731935   0.677   0.673   3.449 -0.6898 -0.8815  0.9444
  225MOL   C12831936   0.456   0.739   3.550  0.3617 -0.3927  0.9360
  225MOL   C12931937   0.333   0.788   3.479  0.6206 -0.4898  0.2149
  225MOL   O13031938   0.345   0.755   3.342 -0.1429  0.3411  0.3934
  225MOL   H13131939   0.480   0.635   3.531 -0.1012 -0.1959 -0.8255
  225MOL   H13231940   0.440   0.744   3.657 -2.9851 -1.6378  0.5538
  225MOL   H13331941   0.304   0.893   3.490 -1.6020 -1.0287 -0.0976
  225MOL   H13431942   0.367   0.663   3.346  2.7729  0.6877 -3.8931
  225MOL   C13531943   0.206   0.718   3.536 -0.5391  0.0673  0.5497
  225MOL   C13631944   0.152   0.770   3.672 -0.3917  0.6331  0.3908
  225MOL   O13731945   0.029   0.710   3.719 -0.4331  0.4729  0.0916
  225MOL   H13831946   0.130   0.723   3.459 -3.5559 -1.9509  3.3032
  225MOL   H13931947   0.231   0.612   3.542 -2.7288 -0.7411 -2.9569
  225MOL   H14031948   0.131   0.875   3.655 -1.0889  0.3920 -0.2997
  225MOL   H14131949   0.005   0.744   3.803  2.2976  0.0024  1.1457
  225MOL   H14231950   0.227   0.764   3.751 -0.0165 -2.3427 -0.1215
  226MOL     C131951   1.186   1.678   6.482 -0.3498 -0.6003  0.0926
  226MOL     C231952   1.310   1.681   6.571 -0.0208 -0.4241  0.1914
  226MOL     O331953   1.337   1.819   6.583  0.0031 -0.2397  0.1553
  226MOL     H431954   1.213   1.722   6.386 -0.2180 -0.9988 -0.0535
  226MOL     H531955   1.106   1.736   6.527 -0.5967 -0.8255 -0.0563
  226MOL     H631956   1.392   1.637   6.515  2.4495  3.6494  0.4251
  226MOL     H731957   1.366   1.856   6.501 -0.4348  0.9585  0.5392
  226MOL     H831958   1.156   1.574   6.468 -0.2817 -0.5069 -0.7834
  226MOL     C931959   1.286   1.626   6.711 -0.6753  0.3285  0.5760
  226MOL    C1031960   1.236   1.481   6.738 -0.4054  0.0955 -0.1808
  226MOL    O1131961   1.339   1.395   6.691  0.2725 -0.1101 -0.2146
  226MOL    H1231962   1.370   1.646   6.777  0.7862 -0.5658 -0.9605
  226MOL    H1331963   1.200   1.682   6.749 -1.1662  2.0884 -2.9419
  226MOL    H1431964   1.146   1.473   6.677  0.6369  0.2283 -1.7616
  226MOL    H1531965   1.310   1.353   6.612  0.6198 -0.9717  0.1088
  226MOL    C1631966   1.212   1.452   6.891  0.1129  0.3299 -0.0627
  226MOL    C1731967   1.138   1.325   6.926 -0.0978 -1.0101  0.3927
  226MOL    O1831968   1.221   1.242   7.005  0.0032 -0.3130 -0.5312
  226MOL    H1931969   1.302   1.455   6.953 -0.4595  1.6393  0.7363
  226MOL    H2031970   1.175   1.540   6.944 -0.7887  1.1010 -1.9189
  226MOL    H2131971   1.125   1.270   6.833 -0.7553 -0.7209  0.3070
  226MOL    H2231972   1.299   1.247   6.951 -1.1159 -1.0596 -2.2660
  226MOL    C2331973   1.004   1.341   7.003  0.1401 -0.1591  0.6238
  226MOL    C2431974   0.897   1.412   6.914 -0.3905  0.1431 -1.0025
  226MOL    O2531975   0.862   1.333   6.799 -0.9040 -0.2407 -0.2348
  226MOL    H2631976   0.962   1.243   7.027  0.4301 -0.8329 -1.4287
  226MOL    H2731977   1.022   1.394   7.096 -1.5348  0.2035  0.7460
  226MOL    H2831978   0.932   1.513   6.888  1.7784 -0.1219  0.7121
  226MOL    H2931979   0.841   1.248   6.835  0.4748 -0.6142 -0.2824
  226MOL    C3031980   0.763   1.428   6.976 -0.4795 -0.2369  0.4416
  226MOL    C3131981   0.744   1.514   7.101  0.3782 -0.3750 -0.5951
  226MOL    O3231982   0.731   1.656   7.060  0.2301 -0.2260 -0.0365
  226MOL    H3331983   0.682   1.460   6.911 -0.5572  0.1172  0.7099
  226MOL    H3431984   0.727   1.330   7.007  0.3023 -1.2226 -1.6740
  226MOL    H3531985   0.827   1.492   7.167 -0.2487  1.6110  0.9086
  226MOL    H3631986   0.716   1.695   7.144 -1.3969  1.9269 -1.2662
  226MOL    C3731987   0.620   1.470   7.187  1.0648  0.9228  0.2473
  226MOL    C3831988   0.647   1.489   7.341 -0.1659  0.6927  0.5292
  226MOL    O3931989   0.529   1.527   7.411  0.3743  0.1315  0.4609
  226MOL    H4031990   0.540   1.540   7.162  1.3721  0.8548 -0.9423
  226MOL    H4131991   0.595   1.368   7.158 -3.6811  1.8550  0.5972
  226MOL    H4231992   0.716   1.573   7.353  0.3910  0.5979 -1.7769
  226MOL    H4331993   0.470   1.459   7.382  0.7622  0.0765 -0.2295
  226MOL    C4431994   0.714   1.368   7.407  0.3737 -0.7089  0.1751
  226MOL    C4531995   0.813   1.397   7.518 -0.1290  0.5751 -0.0593
  226MOL    O4631996   0.913   1.478   7.463 -0.4744 -0.0746  0.2023
  226MOL    H4731997   0.638   1.300   7.445 -1.4440  0.9805 -0.3452
  226MOL    H4831998   0.773   1.323   7.327  2.1129  0.3466  0.8509
  226MOL    H4931999   0.864   1.305   0.027 -1.4866 -0.0738  0.2861
  226MOL    H5032000   0.991   1.473   7.516  0.6737  0.5770 -1.3832
  226MOL    C5132001   0.758   1.470   0.122 -0.3238 -0.3392 -0.7520
  226MOL    C5232002   0.644   1.401   0.203 -0.4292  0.4288 -0.3328
  226MOL    O5332003   0.706   1.305   0.288 -0.3643 -0.0799 -0.7492
  226MOL    H5432004   0.843   1.496   0.185  0.3923 -3.9175 -0.1215
  226MOL    H5532005   0.721   1.567   0.089  1.1463  0.3083 -0.5227
  226MOL    H5632006   0.564   1.353   0.146 -1.3721  0.5064  0.8932
  226MOL    H5732007   0.697   1.218   0.254  1.7149  0.0606 -1.7211
  226MOL    C5832008   0.569   1.494   0.293 -0.6930  0.1155  0.7392
  226MOL    C5932009   0.484   1.609   0.234  0.0205 -0.4625  0.2693
  226MOL    O6032010   0.388   1.550   0.154  0.3330 -0.5307  0.2363
  226MOL    H6132011   0.516   1.442   0.374 -3.5437  3.1441  0.9435
  226MOL    H6232012   0.642   1.544   0.357 -1.3938 -0.5388  2.0915
  226MOL    H6332013   0.534   1.658   0.151 -0.7909 -0.2680 -0.1063
  226MOL    H6432014   0.402   1.588   0.069 -2.3164  1.4144  0.5908
  226MOL    C6532015   0.440   1.720   0.333 -0.0116 -0.0554  0.0854
  226MOL    C6632016   0.554   1.806   0.403  0.4336 -0.0655 -0.1459
  226MOL    O6732017   0.629   1.873   0.302  0.6164  0.4352  0.5148
  226MOL    H6832018   0.361   1.778   0.285 -1.2459  0.2828  2.4218
  226MOL    H6932019   0.386   1.660   0.407  0.4225  1.8339  1.9789
  226MOL    H7032020   0.633   1.739   0.438  0.2349  0.6985  1.8138
  226MOL    H7132021   0.580   1.935   0.251  2.6479 -1.2990 -3.8281
  226MOL    C7232022   0.518   1.902   0.517 -0.0969  0.2580  0.1658
  226MOL    C7332023   0.474   1.840   0.654 -0.0150 -0.2208 -0.1135
  226MOL    O7432024   0.464   1.945   0.745 -0.3772  0.3634 -0.4554
  226MOL    H7532025   0.608   1.962   0.534 -1.9077  3.1057  0.0572
  226MOL    H7632026   0.439   1.971   0.489  0.1817  0.8993  0.9467
  226MOL    H7732027   0.539   1.773   0.709 -0.8638 -0.2401  0.8840
  226MOL    H7832028   0.505   1.912   0.824  0.9401  2.7053 -0.0767
  226MOL    C7932029   0.337   1.766   0.663  0.5583 -0.0793 -0.2353
  226MOL    C8032030   0.199   1.841   0.640 -1.2219  0.3545 -0.2546
  226MOL    O8132031   0.196   1.913   0.514 -0.3111 -0.4423  0.5193
  226MOL    H8232032   0.351   1.673   0.608  0.0037  0.6691 -1.6573
  226MOL    H8332033   0.329   1.739   0.768 -2.5409  0.4939 -0.2835
  226MOL    H8432034   0.192   1.907   0.727 -2.0009  2.6058 -1.9716
  226MOL    H8532035   0.130   1.981   0.521 -1.3107 -1.5295  2.0995
  226MOL    C8632036   0.076   1.745   0.643  0.0239  0.3123  0.7006
  226MOL    C8732037   0.083   1.641   0.524  0.1325  0.1753  0.5203
  226MOL    O8832038   0.048   1.520   0.588  0.3726 -0.3622 -0.6177
  226MOL    H8932039   0.080   1.696   0.741 -0.2124  1.3739  1.2386
  226MOL    H9032040   7.501   1.797   0.634 -1.0982 -1.7929 -0.1585
  226MOL    H9132041   0.178   1.620   0.474 -0.4306  0.4180 -0.6575
  226MOL    H9232042   7.490   1.535   0.641  0.6085 -1.5274  0.0761
  226MOL    C9332043   7.508   1.687   0.413 -0.2059 -0.1226 -0.0124
  226MOL    C9432044   7.502   1.588   0.287 -0.4600 -0.8668 -0.6181
  226MOL    O9532045   7.426   1.471   0.302  0.5442  0.4108  0.3071
  226MOL    H9632046   7.412   1.721   0.452 -0.1069  1.7272 -1.3380
  226MOL    H9732047   0.033   1.781   0.381 -0.5902  0.6333  1.6377
  226MOL    H9832048   0.083   1.555   0.263 -0.1859  1.2351 -2.5174
  226MOL    H9932049   7.475   1.407   0.351 -0.8995 -0.1216  1.0896
  226MOL   C10032050   7.443   1.655   0.171  0.4295 -0.0776 -0.5233
  226MOL   C10132051   7.464   1.600   0.022  0.1973 -0.0351  0.2775
  226MOL   O10232052   0.083   1.573   7.518 -0.1624 -0.1793  0.2115
  226MOL   H10332053   7.339   1.679   0.195  0.8773 -0.4075  1.8448
  226MOL   H10432054   7.501   1.747   0.175  0.5161 -0.2183  2.8587
  226MOL   H10532055   7.440   1.682   7.473  0.1367 -0.7458 -0.5529
  226MOL   H10632056   0.104   1.484   0.021 -1.0942 -0.3418  0.4775
  226MOL   C10732057   7.372   1.486   7.507 -0.3038  0.2497 -0.6066
  226MOL   C10832058   7.220   1.526   7.512 -0.2009 -0.7903 -0.3093
  226MOL   O10932059   7.157   1.500   7.390  0.4301 -0.4156 -0.4206
  226MOL   H11032060   7.399   1.448   7.409 -0.3848  1.6841 -1.2041
  226MOL   H11132061   7.388   1.404   0.057 -0.4965  1.8583  1.3791
  226MOL   H11232062   7.210   1.628   0.029  2.8488 -1.4156  2.5262
  226MOL   H11332063   7.086   1.562   7.382 -0.6979 -1.6579 -0.2818
  226MOL   C11432064   7.133   1.452   0.104 -0.4146 -0.3953  0.5624
  226MOL   C11532065   6.982   1.476   0.109 -0.2489 -0.1797 -0.5866
  226MOL   O11632066   6.919   1.375   0.180 -0.2768  0.1914  0.1227
  226MOL   H11732067   7.149   1.345   0.093 -1.0753 -0.2956 -1.6591
  226MOL   H11832068   7.175   1.481   0.200  0.1426 -0.8318  0.4536
  226MOL   H11932069   6.937   1.470   0.009  0.6612 -1.6126 -0.9295
  226MOL   H12032070   6.914   1.387   0.274  1.8053 -1.1708  0.4371
  226MOL   C12132071   6.954   1.620   0.171 -0.4306 -0.4270  0.0469
  226MOL   C12232072   6.801   1.653   0.158  0.1194 -0.0463  0.5928
  226MOL   O12332073   6.767   1.761   0.245 -0.5254 -0.0642 -0.1377
  226MOL   H12432074   6.986   1.612   0.274 -0.4557  0.5693  0.1372
  226MOL   H12532075   7.015   1.700   0.129  2.0402 -1.6375  1.2619
  226MOL   H12632076   6.744   1.566   0.191  0.5152 -0.2023  0.8650
  226MOL   H12732077   6.743   1.716   0.324  1.1695  0.7846  0.8891
  226MOL   C12832078   6.755   1.680   0.013  0.2012 -0.3317  0.6338
  226MOL   C12932079   6.813   1.797   7.448 -0.3894  0.3049 -0.1412
  226MOL   O13032080   6.916   1.736   7.363 -0.0861 -0.0733 -0.0109
  226MOL   H13132081   6.747   1.592   7.468  2.3073  0.4600 -0.7931
  226MOL   H13232082   6.660   1.726   0.039  2.2329  2.8260  2.8715
  226MOL   H13332083   6.859   1.866   7.519  0.0797 -0.1868  0.0371
  226MOL   H13432084   6.989   1.795   7.354 -0.6011  1.1846  3.3121
  226MOL   C13532085   6.723   1.878   7.355  0.8863 -0.1829  0.5298
  226MOL   C13632086   6.779   2.018   7.309 -0.0382 -0.0699 -0.4089
  226MOL   O13732087   6.687   2.088   7.227  0.5848  0.0270 -0.3485
  226MOL   H13832088   6.716   1.840   7.253 -0.1614 -1.8156  1.2090
  226MOL   H13932089   6.629   1.904   7.405 -1.0168 -1.4951 -2.2368
  226MOL   H14032090   6.874   1.989   7.266 -0.3100 -0.8670 -0.4657
  226MOL   H14132091   6.693   2.182   7.229 -1.7221  0.2171 -0.1936
  226MOL   H14232092   6.801   2.081   7.396 -0.7332  0.7261 -0.7963
  227MOL     C132093   6.407   6.138   5.852  0.4493  0.1651 -0.0343
  227MOL     C232094   6.504   6.024   5.898  0.0757 -0.2574 -0.3582
  227MOL     O332095   6.626   6.076   5.951 -0.2964 -0.7387 -0.0538
  227MOL     H432096   6.400   6.215   5.928  0.7850  2.4486 -2.2722
  227MOL     H532097   6.311   6.093   5.827 -0.4637  3.2065 -2.3172
  227MOL     H632098   6.535   5.970   5.809  1.9353  0.2020 -0.0273
  227MOL     H732099   6.694   6.066   5.885 -0.1942  1.7890 -0.4075
  227MOL     H832100   6.446   6.174   5.757  1.8401 -0.6861  0.1992
  227MOL     C932101   6.447   5.922   5.995 -0.1546  0.6859 -0.1718
  227MOL    C1032102   6.431   5.953   6.148  0.0886  0.3265  0.5952
  227MOL    O1132103   6.331   6.049   6.162  0.3632 -0.4291 -0.1328
  227MOL    H1232104   6.346   5.907   5.958 -0.1433 -0.2828  0.1927
  227MOL    H1332105   6.499   5.826   5.992 -0.8193  0.1792  2.7558
  227MOL    H1432106   6.521   5.998   6.189  0.8320  1.0933 -1.8277
  227MOL    H1532107   6.374   6.131   6.177  1.4974 -0.7344 -1.6202
  227MOL    C1632108   6.401   5.823   6.232  1.1314 -0.2326  0.0627
  227MOL    C1732109   6.377   5.853   6.385  0.0857  0.3647  0.2657
  227MOL    O1832110   6.290   5.744   6.431  0.1680 -0.3061 -0.2793
  227MOL    H1932111   6.311   5.780   6.188  0.0217  2.0804 -0.0411
  227MOL    H2032112   6.478   5.747   6.221 -0.5832 -2.0110  0.1719
  227MOL    H2132113   6.315   5.942   6.391 -1.3970 -0.7004  1.0953
  227MOL    H2232114   6.346   5.668   6.427  1.8094  0.7326  1.8256
  227MOL    C2332115   6.506   5.865   6.469 -0.7383 -0.1138  0.4103
  227MOL    C2432116   6.497   5.918   6.611  0.4976 -0.0969  0.5709
  227MOL    O2532117   6.621   5.897   6.676 -0.4566  0.7505 -0.2959
  227MOL    H2632118   6.557   5.768   6.471  0.5356  0.5020 -0.9296
  227MOL    H2732119   6.561   5.939   6.412  0.0704 -0.0267  1.2866
  227MOL    H2832120   6.419   5.858   6.658  1.6804 -1.8685  0.3417
  227MOL    H2932121   6.684   5.953   6.634  1.9549 -0.7544  1.1983
  227MOL    C3032122   6.470   6.066   6.596  0.0899  0.3797 -0.2469
  227MOL    C3132123   6.378   6.132   6.701  0.3842  0.8959  0.3003
  227MOL    O3232124   6.462   6.179   6.802 -0.1109 -0.6538  0.4292
  227MOL    H3332125   6.565   6.119   6.591  1.4929 -2.1074 -0.5092
  227MOL    H3432126   6.420   6.100   6.505  0.3177  3.0774  0.5856
  227MOL    H3532127   6.309   6.059   6.743  1.5504 -0.7790 -0.6343
  227MOL    H3632128   6.487   6.102   6.851  0.0257 -3.7281 -4.1578
  227MOL    C3732129   6.284   6.243   6.643 -0.0014  0.0059  0.6037
  227MOL    C3832130   6.210   6.327   6.751 -0.4018  0.3165  0.0983
  227MOL    O3932131   6.131   6.425   6.677 -0.1424  0.5028  0.1230
  227MOL    H4032132   6.338   6.311   6.577  0.6430 -1.2394 -0.1554
  227MOL    H4132133   6.211   6.192   6.581  2.2824 -1.9394 -0.5323
  227MOL    H4232134   6.285   6.381   6.808  0.0206  0.1359 -0.2822
  227MOL    H4332135   6.090   6.485   6.738  1.1209 -1.0473  2.5858
  227MOL    C4432136   6.122   6.230   6.842  0.3210  0.5437  0.2958
  227MOL    C4532137   6.011   6.290   6.922  0.0707  0.3569  0.4755
  227MOL    O4632138   5.964   6.194   7.018  0.3273  0.2771  0.3399
  227MOL    H4732139   6.079   6.157   6.774  1.7759  0.4532 -0.5488
  227MOL    H4832140   6.181   6.169   6.910 -0.5097  0.8806  1.3403
  227MOL    H4932141   5.928   6.310   6.855 -0.7811  0.1857  1.4624
  227MOL    H5032142   5.882   6.223   7.054  1.0983  0.0747  2.3183
  227MOL    C5132143   6.045   6.428   7.003 -0.1965  0.7605  0.4134
  227MOL    C5232144   5.927   6.520   7.045  0.0143  0.7504 -0.5266
  227MOL    O5332145   5.858   6.562   6.931  0.2115  0.0017 -0.7493
  227MOL    H5432146   6.104   6.398   7.090  1.7703 -0.1706 -1.1792
  227MOL    H5532147   6.119   6.483   6.945 -1.2908  1.9043  0.1049
  227MOL    H5632148   5.971   6.610   7.087  2.1679  0.1919 -1.5298
  227MOL    H5732149   5.914   6.625   6.888 -0.6864  2.4742  1.5590
  227MOL    C5832150   5.823   6.466   7.153 -0.0029 -0.1149  0.5223
  227MOL    C5932151   5.885   6.395   7.275  0.5042 -1.1480  0.5078
  227MOL    O6032152   6.000   6.475   7.323  0.1798  0.5013 -0.2139
  227MOL    H6132153   5.757   6.549   7.177 -1.5847 -0.8707 -1.0384
  227MOL    H6232154   5.757   6.392   7.108 -1.1561  0.5709  1.0774
  227MOL    H6332155   5.925   6.301   7.239  2.6681  0.4982 -1.5480
  227MOL    H6432156   6.081   6.443   7.288  0.2361  1.4082 -0.9134
  227MOL    C6532157   5.778   6.374   7.382 -0.7148  0.1411  0.1033
  227MOL    C6632158   5.842   6.331   0.001 -0.0226  0.9931  0.2420
  227MOL    O6732159   5.898   6.447   0.057  0.0884  0.0382  0.4637
  227MOL    H6832160   5.709   6.458   7.392 -1.5453 -0.2980 -1.6844
  227MOL    H6932161   5.703   6.306   7.340 -0.2047  1.3687 -2.9275
  227MOL    H7032162   5.922   6.261   7.498  0.0163  0.7200  1.2190
  227MOL    H7132163   5.973   6.470   0.003 -0.4403 -0.6776 -0.5946
  227MOL    C7232164   5.735   6.266   0.089  0.2891  1.0405  0.5599
  227MOL    C7332165   5.790   6.208   0.227  0.5849 -0.4086  0.1016
  227MOL    O7432166   5.684   6.179   0.322  0.1952  0.1815 -0.0046
  227MOL    H7532167   5.660   6.344   0.101  0.2167  1.5312 -2.8112
  227MOL    H7632168   5.672   6.197   0.033 -0.2149  0.6452  1.5953
  227MOL    H7732169   5.842   6.291   0.276  2.2590 -0.1485 -2.0567
  227MOL    H7832170   5.603   6.198   0.276 -0.4650  0.8109  1.3879
  227MOL    C7932171   5.894   6.096   0.208  0.1440 -0.9683 -0.1398
  227MOL    C8032172   6.043   6.120   0.240  0.2957 -0.0693 -0.4727
  227MOL    O8132173   6.099   5.995   0.217  0.6659  0.4881  1.0306
  227MOL    H8232174   5.869   6.021   0.282 -0.6186 -0.7336 -0.1543
  227MOL    H8332175   5.891   6.049   0.109  2.0856 -1.1120 -0.1579
  227MOL    H8432176   6.040   6.142   0.347  1.9000 -0.9145 -0.2329
  227MOL    H8532177   6.103   5.988   0.123 -0.3233 -1.9615  1.1454
  227MOL    C8632178   6.123   6.214   0.157 -0.1582 -0.7276 -0.2718
  227MOL    C8732179   6.258   6.242   0.224 -0.0452 -0.6490  0.2417
  227MOL    O8832180   6.337   6.301   0.127 -0.6065  0.1851 -0.4795
  227MOL    H8932181   6.134   6.181   0.054 -3.3588  0.8292 -1.1823
  227MOL    H9032182   6.073   6.307   0.130  2.6303  1.0384  0.5465
  227MOL    H9132183   6.307   6.147   0.246  0.3490 -0.2409  1.1520
  227MOL    H9232184   6.427   6.308   0.154 -0.7973  0.8851 -0.0222
  227MOL    C9332185   6.252   6.327   0.362 -0.1933 -0.1673  0.3574
  227MOL    C9432186   6.180   6.467   0.358 -0.1951 -0.5160  0.2167
  227MOL    O9532187   6.173   6.507   0.497 -0.0797 -0.2471  0.3449
  227MOL    H9632188   6.203   6.265   0.436 -2.5400 -1.0472 -1.8411
  227MOL    H9732189   6.352   6.356   0.393 -0.5897  0.8507  0.7318
  227MOL    H9832190   6.078   6.444   0.327 -1.0054 -0.0444  2.4133
  227MOL    H9932191   6.118   6.446   0.543 -0.8088  1.2474  1.5421
  227MOL   C10032192   6.236   6.579   0.268  0.3298 -0.4717 -0.0691
  227MOL   C10132193   6.137   6.696   0.236 -0.5111  0.2697 -0.0553
  227MOL   O10232194   6.094   6.740   0.364 -0.8327 -0.4645  0.1385
  227MOL   H10332195   6.324   6.615   0.322 -0.2131  0.9801 -0.1373
  227MOL   H10432196   6.274   6.541   0.173 -0.0792 -1.0526 -0.0084
  227MOL   H10532197   6.047   6.660   0.187 -0.0654 -1.2449  0.2230
  227MOL   H10632198   6.115   6.670   0.424  0.8768  0.3992  0.5801
  227MOL   C10732199   6.204   6.818   0.162 -0.2927 -0.4579  0.3924
  227MOL   C10832200   6.278   6.785   0.027  0.4693  0.0048 -0.5619
  227MOL   O10932201   6.197   6.751   7.436 -0.2154 -0.1984  0.0328
  227MOL   H11032202   6.135   6.899   0.143  2.0563  1.8570  1.4312
  227MOL   H11132203   6.273   6.857   0.237  1.1535 -0.4820 -0.8992
  227MOL   H11232204   6.345   6.701   0.047 -0.9304 -1.1362 -0.5393
  227MOL   H11332205   6.248   6.686   7.389 -0.5115  0.4665 -1.2282
  227MOL   C11432206   6.361   6.904   7.493 -0.2940  0.2925 -0.0047
  227MOL   C11532207   6.500   6.914   0.038 -0.4636  0.1426  0.2168
  227MOL   O11632208   6.590   6.818   7.497 -0.1040 -0.1307 -0.8502
  227MOL   H11732209   6.384   6.892   7.388  1.1405  1.5172  0.1582
  227MOL   H11832210   6.311   7.001   7.498  0.3007  0.5050  3.1524
  227MOL   H11932211   6.486   6.894   0.144 -0.3944 -2.1835 -0.1865
  227MOL   H12032212   6.593   6.840   7.405  0.8551 -1.5682 -1.1757
  227MOL   C12132213   6.559   7.053   0.010  0.0705 -0.3350  0.6295
  227MOL   C12232214   6.652   7.097   0.119 -0.3741 -0.2361 -1.6063
  227MOL   O12332215   6.754   6.998   0.133  0.0808  0.2226 -0.1931
  227MOL   H12432216   6.621   7.054   7.440  0.5911 -2.5700  0.9381
  227MOL   H12532217   6.471   7.117   0.003  0.6961  0.4865  0.0467
  227MOL   H12632218   6.591   7.108   0.208  0.7033  1.5577 -1.0623
  227MOL   H12732219   6.709   6.918   0.109  2.5390 -0.9845 -1.0085
  227MOL   C12832220   6.712   7.238   0.096  0.2762 -0.0461  0.2770
  227MOL   C12932221   6.784   7.295   0.222  0.3821  1.0787 -0.0856
  227MOL   O13032222   6.892   7.205   0.260 -0.1205 -0.1106 -0.4671
  227MOL   H13132223   6.764   7.232   0.000 -0.2279 -0.3964  0.0279
  227MOL   H13232224   6.629   7.305   0.074  0.8658 -0.0248 -2.0457
  227MOL   H13332225   6.717   7.293   0.309 -0.2674  0.8273 -0.5852
  227MOL   H13432226   6.864   7.119   0.232  2.5864 -0.9920 -0.6762
  227MOL   C13532227   6.846   7.429   0.188 -0.1520 -0.0293 -0.0726
  227MOL   C13632228   6.899   7.487   0.320  0.6253 -0.3114 -0.1588
  227MOL   O13732229   6.923   0.102   0.301 -0.2082 -0.2458 -0.1884
  227MOL   H13832230   6.920   7.402   0.113  1.0836 -0.6656  1.3513
  227MOL   H13932231   6.769   7.491   0.140 -0.7345 -0.2140  0.6128
  227MOL   H14032232   6.993   7.442   0.352  0.0332 -0.6903  1.0883
  227MOL   H14132233   6.984   0.116   0.230  0.9291 -0.7950  0.6534
  227MOL   H14232234   6.821   7.480   0.395  0.3162 -1.3548 -0.5722
  228MOL     C132235   2.663   4.604   2.067 -0.2627  0.1252 -0.2352
  228MOL     C232236   2.656   4.691   1.938 -0.0866 -0.4532 -0.9219
  228MOL     O332237   2.787   4.714   1.901  0.0504  0.3572 -0.1973
  228MOL     H432238   2.736   4.647   2.136 -1.2284 -0.8127  1.3911
  228MOL     H532239   2.692   4.500   2.052 -1.5910  0.1002 -3.0404
  228MOL     H632240   2.618   4.786   1.974 -0.0084 -1.0324  0.7136
  228MOL     H732241   2.822   4.638   1.856  1.4732 -0.0432  1.5632
  228MOL     H832242   2.563   4.617   2.108  0.1111  1.1408  0.3703
  228MOL     C932243   2.569   4.635   1.822 -0.6631  0.5494  0.1409
  228MOL    C1032244   2.550   4.739   1.706  0.1944 -0.3218  0.2826
  228MOL    O1132245   2.681   4.764   1.658 -0.1852  0.2488  0.1405
  228MOL    H1232246   2.600   4.543   1.773 -2.3769 -0.3343  0.6641
  228MOL    H1332247   2.469   4.616   1.862 -1.1719 -1.3612 -1.8857
  228MOL    H1432248   2.507   4.833   1.741 -0.9770 -0.1418 -1.5760
  228MOL    H1532249   2.725   4.769   1.742 -1.4973 -0.2030  0.8721
  228MOL    C1632250   2.471   4.697   1.580  0.1654  0.0838 -0.0072
  228MOL    C1732251   2.329   4.633   1.597 -0.2448 -0.3743  0.5784
  228MOL    O1832252   2.268   4.708   1.698 -0.5484 -0.3136  0.4870
  228MOL    H1932253   2.477   4.771   1.500 -0.7512  0.7813  0.5580
  228MOL    H2032254   2.527   4.612   1.541  1.7733 -0.2541  2.8930
  228MOL    H2132255   2.332   4.527   1.618 -3.2571 -0.5830  0.0928
  228MOL    H2232256   2.253   4.795   1.663  1.5409  0.4708  1.4743
  228MOL    C2332257   2.239   4.654   1.465 -0.0080 -0.0682  0.0529
  228MOL    C2432258   2.291   4.581   1.337  0.4708 -0.4418 -0.1406
  228MOL    O2532259   2.208   4.462   1.343 -0.3276 -0.2741 -0.0895
  228MOL    H2632260   2.139   4.626   1.498  0.1164 -0.1920  0.3300
  228MOL    H2732261   2.234   4.759   1.440  0.7376 -0.0710 -0.1409
  228MOL    H2832262   2.398   4.561   1.350  0.3672 -1.9906 -1.4724
  228MOL    H2932263   2.228   4.414   1.422 -0.7362  0.6966  0.6220
  228MOL    C3032264   2.249   4.654   1.215 -0.3871  0.0117 -0.2627
  228MOL    C3132265   2.363   4.734   1.144 -0.0464 -0.1578 -0.2133
  228MOL    O3232266   2.426   4.812   1.244 -0.6540 -0.1291 -0.3477
  228MOL    H3332267   2.202   4.587   1.144 -0.9722 -1.3528  1.3846
  228MOL    H3432268   2.169   4.726   1.235  0.6409  0.6474  1.7016
  228MOL    H3532269   2.310   4.789   1.066 -1.4637 -0.5930  0.4156
  228MOL    H3632270   2.499   4.861   1.208  0.2043 -2.3394 -1.7360
  228MOL    C3732271   2.468   4.643   1.076 -0.0019 -0.2524  0.2080
  228MOL    C3832272   2.419   4.550   0.961 -0.0492 -0.0904 -0.4116
  228MOL    O3932273   2.340   4.619   0.870  0.8995  0.5255  0.3447
  228MOL    H4032274   2.543   4.700   1.020 -1.8481  0.2952 -1.7812
  228MOL    H4132275   2.524   4.593   1.155  2.9182  1.0208 -0.9650
  228MOL    H4232276   2.376   4.460   1.007  0.7885 -0.0864  0.4062
  228MOL    H4332277   2.283   4.561   0.823 -0.9514  1.8395  0.8902
  228MOL    C4432278   2.532   4.492   0.882  0.1166  0.3044 -0.3634
  228MOL    C4532279   2.620   4.390   0.957 -0.0771 -0.2846  0.2354
  228MOL    O4632280   2.552   4.281   0.991 -0.0361  0.1017  0.3246
  228MOL    H4732281   2.482   4.436   0.804  0.9814 -1.1926  0.1165
  228MOL    H4832282   2.589   4.571   0.833  0.8165  1.0334  1.5603
  228MOL    H4932283   2.669   4.435   1.043  0.2968  1.0684 -0.6753
  228MOL    H5032284   2.475   4.275   0.937  0.3537  0.3036 -0.2619
  228MOL    C5132285   2.737   4.355   0.857  0.0848  0.9766 -0.4374
  228MOL    C5232286   2.816   4.220   0.863 -0.0023 -0.6537 -0.2103
  228MOL    O5332287   2.890   4.197   0.748  0.2642  0.0169  0.1528
  228MOL    H5432288   2.691   4.360   0.759 -2.9104  1.6017  0.9386
  228MOL    H5532289   2.816   4.431   0.860  1.0932 -0.0982  1.5635
  228MOL    H5632290   2.740   4.141   0.862 -2.5545  1.7332  0.2197
  228MOL    H5732291   2.844   4.139   0.689  1.3800  0.6806 -1.3827
  228MOL    C5832292   2.910   4.204   0.986  0.0465 -0.2659  0.4243
  228MOL    C5932293   2.848   4.196   1.128  0.1240 -0.1889  0.2602
  228MOL    O6032294   2.737   4.108   1.127 -0.2175  0.3148  0.7655
  228MOL    H6132295   2.974   4.118   0.971 -0.9421 -0.6961 -1.4222
  228MOL    H6232296   2.973   4.294   0.988 -0.0219 -0.2174  0.4073
  228MOL    H6332297   2.797   4.290   1.151 -1.6161 -0.6428 -1.5580
  228MOL    H6432298   2.671   4.155   1.079 -1.7912 -1.8106  0.7222
  228MOL    C6532299   2.952   4.152   1.231 -0.2142  0.1333 -0.5498
  228MOL    C6632300   2.895   4.127   1.373  0.3163  0.3258 -0.3674
  228MOL    O6732301   2.981   4.041   1.451  0.2483  0.5452  0.0469
  228MOL    H6832302   2.996   4.058   1.198 -1.1474 -0.4825 -0.0708
  228MOL    H6932303   3.036   4.222   1.240 -0.0778 -0.0307 -0.5434
  228MOL    H7032304   2.812   4.058   1.357  0.8998 -0.3370 -0.5773
  228MOL    H7132305   2.926   3.996   1.514  0.8311  1.0844  0.9474
  228MOL    C7232306   2.867   4.266   1.442  0.0034 -0.4141 -0.3802
  228MOL    C7332307   2.729   4.273   1.510 -0.2495  0.3109 -0.3389
  228MOL    O7432308   2.714   4.386   1.586  0.1931 -0.1428  0.0567
  228MOL    H7532309   2.941   4.285   1.520 -0.7680 -1.8539  0.7273
  228MOL    H7632310   2.869   4.340   1.361 -2.5557 -0.7757 -0.8275
  228MOL    H7732311   2.733   4.186   1.576  1.1230 -1.3277 -2.5026
  228MOL    H7832312   2.747   4.464   1.545  0.3153 -0.5558 -0.6427
  228MOL    C7932313   2.600   4.252   1.428 -0.1112  0.2229 -1.0981
  228MOL    C8032314   2.480   4.184   1.500 -0.7212 -0.4807 -0.4414
  228MOL    O8132315   2.454   4.269   1.606  0.2240  0.0159  0.2823
  228MOL    H8232316   2.572   4.335   1.364 -1.1072  0.7799  0.0416
  228MOL    H8332317   2.609   4.178   1.348 -1.3086  0.0653 -1.1013
  228MOL    H8432318   2.510   4.086   1.537 -0.0321 -1.0463 -2.4538
  228MOL    H8532319   2.533   4.317   1.628  1.0421 -0.3057 -1.8089
  228MOL    C8632320   2.360   4.172   1.406  0.4211  0.3374 -0.4065
  228MOL    C8732321   2.230   4.133   1.478  0.2019  0.2310  1.1257
  228MOL    O8832322   2.188   4.242   1.559  0.6947 -0.1953 -0.5760
  228MOL    H8932323   2.334   4.265   1.355 -3.2247 -0.3253  0.0765
  228MOL    H9032324   2.384   4.097   1.330 -0.9079  1.6316 -2.1535
  228MOL    H9132325   2.265   4.048   1.537 -0.7213 -1.3211 -0.5000
  228MOL    H9232326   2.264   4.269   1.609  1.4625 -0.4659 -1.5886
  228MOL    C9332327   2.105   4.075   1.398 -0.7934 -0.6176  0.2989
  228MOL    C9432328   1.988   4.026   1.489  0.4717  0.1889 -0.4975
  228MOL    O9532329   1.913   4.131   1.550  0.0286  0.3679 -0.2222
  228MOL    H9632330   2.069   4.151   1.328 -3.5844 -1.2375  0.9898
  228MOL    H9732331   2.138   3.996   1.332  1.8909 -0.5185  1.4494
  228MOL    H9832332   2.036   3.976   1.573  0.4963 -0.2346 -0.7609
  228MOL    H9932333   1.973   4.198   1.577 -0.4597  0.9257 -0.5018
  228MOL   C10032334   1.891   3.937   1.415 -0.2463  0.5806 -0.0879
  228MOL   C10132335   1.814   3.835   1.502  0.0965  0.3989 -0.1892
  228MOL   O10232336   1.695   3.788   1.430  0.1979  0.2301  0.3984
  228MOL   H10332337   1.822   3.998   1.357 -0.5561 -0.5278 -0.9215
  228MOL   H10432338   1.943   3.888   1.333 -1.8106 -1.2982  0.0104
  228MOL   H10532339   1.779   3.886   1.591  0.2195  0.1797 -0.0145
  228MOL   H10632340   1.629   3.781   1.498  1.3057 -1.7883  1.3354
  228MOL   C10732341   1.888   3.699   1.529  0.4032  0.4833 -0.5284
  228MOL   C10832342   1.853   3.616   1.658 -0.1917 -0.0175 -0.5486
  228MOL   O10932343   1.726   3.547   1.630  0.7216 -0.2766 -0.4351
  228MOL   H11032344   1.888   3.635   1.441  1.1660 -0.6818  0.3014
  228MOL   H11132345   1.994   3.726   1.523  0.3104  1.7249  2.3511
  228MOL   H11232346   1.835   3.684   1.741  0.1430  0.1139 -0.5850
  228MOL   H11332347   1.673   3.612   1.586  1.3632  1.8139  1.7503
  228MOL   C11432348   1.959   3.511   1.685  0.9400 -0.3463 -0.4511
  228MOL   C11532349   2.089   3.558   1.755  0.0784  0.5968  0.0797
  228MOL   O11632350   2.166   3.636   1.669  0.2016  0.4765 -0.0095
  228MOL   H11732351   1.914   3.438   1.751 -0.2461  0.4412 -0.3840
  228MOL   H11832352   1.976   3.450   1.596  3.8147 -2.2556  1.3332
  228MOL   H11932353   2.137   3.461   1.772  1.6611  1.3997  0.2959
  228MOL   H12032354   2.197   3.585   1.595  0.5518  0.2761  0.2688
  228MOL   C12132355   2.064   3.637   1.892  0.3993 -0.2010  0.3192
  228MOL   C12232356   2.004   3.544   2.006  0.3607 -0.1960  0.0857
  228MOL   O12332357   2.122   3.480   2.062 -0.6046  0.0646  0.4971
  228MOL   H12432358   2.162   3.671   1.927  0.8041 -1.5021  0.4760
  228MOL   H12532359   2.004   3.727   1.882  1.8915  0.5838 -1.9674
  228MOL   H12632360   1.928   3.478   1.964  0.0019 -0.2905  0.8816
  228MOL   H12732361   2.114   3.456   2.153 -0.2661 -0.7603  0.3148
  228MOL   C12832362   1.955   3.624   2.124  0.2472  0.3732  0.7054
  228MOL   C12932363   1.810   3.668   2.096  0.0357  0.0128  0.0531
  228MOL   O13032364   1.786   3.751   1.984 -0.3669 -0.0136  0.2856
  228MOL   H13132365   1.943   3.555   2.207  1.3448 -2.1112 -1.1451
  228MOL   H13232366   2.018   3.707   2.157  0.5100  0.3605  0.2475
  228MOL   H13332367   1.782   3.729   2.182 -1.9405  1.5286 -1.6250
  228MOL   H13432368   1.830   3.834   1.997 -2.3504  0.9762  0.8270
  228MOL   C13532369   1.702   3.555   2.082  0.8112 -0.2022 -0.4107
  228MOL   C13632370   1.562   3.601   2.060  0.2902  0.0710 -0.2601
  228MOL   O13732371   1.481   3.503   2.103 -0.1248 -0.6822 -0.4040
  228MOL   H13832372   1.720   3.489   1.997 -0.8346 -0.3435 -0.6714
  228MOL   H13932373   1.713   3.504   2.178 -2.5638 -1.5865 -0.6741
  228MOL   H14032374   1.538   3.654   1.968 -1.0959  0.1592  0.1470
  228MOL   H14132375   1.397   3.545   2.111  0.7973  0.7157  2.2262
  228MOL   H14232376   1.541   3.679   2.132  2.0830  0.9974 -0.7017
  229MOL     C132377   3.291   2.410   7.298 -0.1653 -0.9587  0.0353
  229MOL     C232378   3.209   2.484   7.412  0.6215 -0.5944  0.6134
  229MOL     O332379   3.288   2.587   7.469 -0.4204 -0.2832 -0.3862
  229MOL     H432380   3.316   2.481   7.219  0.7940 -2.6436 -1.2014
  229MOL     H532381   3.222   2.340   7.251  0.6392 -0.1234 -2.4789
  229MOL     H632382   3.172   2.418   7.490 -2.7116  0.1647 -0.2554
  229MOL     H732383   3.240   2.619   0.024  0.7671 -1.3453  0.8581
  229MOL     H832384   3.384   2.371   7.339  1.0362  2.4627  0.7524
  229MOL     C932385   3.089   2.560   7.358  0.0189 -0.2430  0.0978
  229MOL    C1032386   2.983   2.474   7.289  1.3236 -1.0562  0.4453
  229MOL    O1132387   2.856   2.519   7.330 -0.8606  0.2735 -0.0369
  229MOL    H1232388   3.053   2.623   7.440 -2.5684 -1.6203  0.0670
  229MOL    H1332389   3.116   2.641   7.290 -1.3225  0.0454 -0.1036
  229MOL    H1432390   3.001   2.371   7.320 -0.0809 -1.0280  1.4284
  229MOL    H1532391   2.846   2.489   7.419  0.6711 -1.5045 -0.4311
  229MOL    C1632392   2.982   2.480   7.132  0.6699  0.2869 -0.0739
  229MOL    C1732393   2.877   2.387   7.064  0.4118  0.7301 -0.1486
  229MOL    O1832394   2.827   2.445   6.946  0.2741  0.5989 -0.0649
  229MOL    H1932395   2.957   2.582   7.105 -2.5913 -0.5581 -0.4585
  229MOL    H2032396   3.080   2.465   7.086  1.5714 -2.6451  2.6001
  229MOL    H2132397   2.791   2.388   7.130  0.2056 -1.1068 -0.3578
  229MOL    H2232398   2.744   2.403   6.932  0.3262  0.2073  0.8167
  229MOL    C2332399   2.931   2.241   7.036 -0.1385 -0.3373 -0.2285
  229MOL    C2432400   2.958   2.149   7.158 -0.5629  0.5363 -0.9346
  229MOL    O2532401   2.856   2.152   7.257  0.0737  0.2815  0.4372
  229MOL    H2632402   2.876   2.176   6.967  0.1412 -1.5049  0.6368
  229MOL    H2732403   3.030   2.256   6.991  0.7288 -0.5740  1.5354
  229MOL    H2832404   3.043   2.195   7.210 -0.3648 -0.9340  0.0689
  229MOL    H2932405   2.896   2.140   7.342  1.3456 -0.5418 -0.2733
  229MOL    C3032406   2.985   2.002   7.122 -0.3039 -0.3847  0.2944
  229MOL    C3132407   3.110   1.969   7.045  0.0075 -0.1250 -0.2237
  229MOL    O3232408   3.230   1.997   7.115 -0.0023  0.7115 -0.0391
  229MOL    H3332409   3.004   1.945   7.213  0.4809  0.4655  0.6637
  229MOL    H3432410   2.895   1.954   7.085  1.5727 -2.1944 -2.1511
  229MOL    H3532411   3.107   2.026   6.952 -1.2617 -0.1617 -0.2060
  229MOL    H3632412   3.279   2.037   7.045  0.0720 -2.9539 -2.2353
  229MOL    C3732413   3.105   1.825   6.996  0.2565  0.0067 -0.8282
  229MOL    C3832414   3.222   1.782   6.913 -0.1211 -0.1796 -0.0757
  229MOL    O3932415   3.191   1.644   6.875  0.2499  0.2727 -0.4825
  229MOL    H4032416   3.105   1.753   7.078  1.5593 -0.7578 -1.4806
  229MOL    H4132417   3.010   1.813   6.944 -0.1245  1.9903 -0.6143
  229MOL    H4232418   3.303   1.779   6.985 -2.1710 -1.5863  2.2682
  229MOL    H4332419   3.152   1.608   6.954 -1.1312 -0.2924 -1.3945
  229MOL    C4432420   3.254   1.855   6.776  1.0485  0.4833 -0.6322
  229MOL    C4532421   3.405   1.851   6.739 -0.6905  0.1267 -0.8790
  229MOL    O4632422   3.484   1.908   6.840 -0.2062 -0.7770 -0.3133
  229MOL    H4732423   3.197   1.819   6.690 -1.2525 -0.8474  1.3702
  229MOL    H4832424   3.225   1.959   6.791 -1.0956 -0.2124  0.3409
  229MOL    H4932425   3.407   1.909   6.647  0.7485  2.0510  0.3344
  229MOL    H5032426   3.518   1.843   6.899 -0.7706 -1.1509 -0.3958
  229MOL    C5132427   3.461   1.714   6.699  0.5562 -0.1829 -0.7877
  229MOL    C5232428   3.416   1.663   6.561  0.1083  0.0483  0.1412
  229MOL    O5332429   3.488   1.741   6.466  0.3579 -0.3309 -0.4981
  229MOL    H5432430   3.570   1.701   6.697  0.1872 -4.1881  0.6231
  229MOL    H5532431   3.432   1.650   6.782  1.4604  2.0988  1.3415
  229MOL    H5632432   3.310   1.690   6.560  0.2810  0.7304 -1.3047
  229MOL    H5732433   3.577   1.760   6.494  0.1256 -0.4628  0.3357
  229MOL    C5832434   3.441   1.506   6.544 -0.5782 -0.0487  0.7302
  229MOL    C5932435   3.431   1.454   6.400  0.2972 -0.4210 -0.1765
  229MOL    O6032436   3.476   1.318   6.402 -0.1317  0.4299  0.4424
  229MOL    H6132437   3.544   1.491   6.574 -0.3987  0.5912  0.4360
  229MOL    H6232438   3.378   1.458   6.618 -0.4454  1.3384  1.7582
  229MOL    H6332439   3.495   1.516   6.338 -0.2411 -0.7447 -1.0698
  229MOL    H6432440   3.553   1.312   6.348 -0.1098 -0.1758  0.5367
  229MOL    C6532441   3.285   1.452   6.346 -0.7076  0.3114 -0.0820
  229MOL    C6632442   3.270   1.426   6.197 -0.4130 -0.0757 -0.3677
  229MOL    O6732443   3.139   1.406   6.170 -0.0503  1.0015 -0.6780
  229MOL    H6832444   3.232   1.374   6.400 -2.5158  0.6470 -1.3228
  229MOL    H6932445   3.236   1.545   6.377 -1.5537 -0.5577  1.2363
  229MOL    H7032446   3.318   1.331   6.176  2.8843  1.4406 -0.0164
  229MOL    H7132447   3.087   1.456   6.232 -0.5698 -0.0058 -0.2903
  229MOL    C7232448   3.322   1.542   6.112 -0.0127 -0.5670  0.5433
  229MOL    C7332449   3.354   1.507   5.960 -0.0422 -0.7195  0.0254
  229MOL    O7432450   3.317   1.616   5.872  0.6095  0.2075  0.2336
  229MOL    H7532451   3.242   1.616   6.111  0.4484 -0.0495 -3.3830
  229MOL    H7632452   3.410   1.583   6.162  0.1419 -1.0015  0.6224
  229MOL    H7732453   3.291   1.423   5.932 -1.2723  0.8269 -1.9725
  229MOL    H7832454   3.363   1.600   5.791 -0.0988 -1.7432  0.1939
  229MOL    C7932455   3.501   1.469   5.935  0.1677 -0.6738 -0.2070
  229MOL    C8032456   3.533   1.393   5.808 -0.9161  0.5004 -0.0900
  229MOL    O8132457   3.675   1.393   5.797  0.7211  0.1817  0.2330
  229MOL    H8232458   3.566   1.553   5.959  2.4750 -2.3278 -0.5614
  229MOL    H8332459   3.538   1.408   6.018  0.4572  0.1886  0.3053
  229MOL    H8432460   3.497   1.438   5.715 -3.2408  0.1422  0.6033
  229MOL    H8532461   3.710   1.480   5.781 -2.0072  1.6708  1.8097
  229MOL    C8632462   3.484   1.239   5.820  0.1565  0.0521  0.2442
  229MOL    C8732463   3.467   1.165   5.686  0.7475 -0.1887 -0.4461
  229MOL    O8832464   3.586   1.165   5.616 -0.0495 -0.2975  0.2785
  229MOL    H8932465   3.553   1.197   5.894  0.8143  1.5859  0.5295
  229MOL    H9032466   3.388   1.232   5.871 -0.1820  0.6567 -0.3068
  229MOL    H9132467   3.394   1.218   5.624  0.2502 -1.7358 -1.2040
  229MOL    H9232468   3.624   1.251   5.629 -1.1887  0.2608 -0.0170
  229MOL    C9332469   3.437   1.016   5.719 -0.7914 -0.0947  0.0700
  229MOL    C9432470   3.390   0.926   5.597  0.0697  0.2156 -0.5412
  229MOL    O9532471   3.507   0.892   5.535 -0.6507  0.1473  0.5382
  229MOL    H9632472   3.532   0.985   5.763  0.0119  1.3319 -0.6096
  229MOL    H9732473   3.368   1.016   5.803  1.9594 -2.4735  2.4035
  229MOL    H9832474   3.326   0.991   5.537 -0.2372  0.0267 -0.4216
  229MOL    H9932475   3.545   0.978   5.528  1.3725 -0.6247  1.5048
  229MOL   C10032476   3.314   0.800   5.652  0.5099 -0.4193 -0.4030
  229MOL   C10132477   3.251   0.710   5.547  0.1617 -0.6923 -0.4354
  229MOL   O10232478   3.363   0.635   5.511  0.3222  0.1255 -0.0239
  229MOL   H10332479   3.381   0.741   5.715  2.1142  0.6552 -1.0741
  229MOL   H10432480   3.243   0.842   5.725  1.0175  1.7813 -1.1257
  229MOL   H10532481   3.215   0.768   5.462  1.4631 -1.7711 -1.7452
  229MOL   H10632482   3.416   0.694   5.460 -0.4044  2.6040  1.9833
  229MOL   C10732483   3.144   0.621   5.611  0.4417  0.9942  0.1582
  229MOL   C10832484   3.004   0.681   5.648 -0.0012 -0.5961  0.1360
  229MOL   O10932485   3.014   0.703   5.781  0.2222  0.3548 -1.0581
  229MOL   H11032486   3.136   0.522   5.565  0.0088  1.8325 -1.6099
  229MOL   H11132487   3.198   0.603   5.704  0.7923  0.1956 -0.1918
  229MOL   H11232488   2.925   0.606   5.646  1.4691 -2.1641 -1.2015
  229MOL   H11332489   2.957   0.777   5.789  0.4809  0.3561  1.0494
  229MOL   C11432490   2.945   0.803   5.565 -0.0205  0.0279  0.1212
  229MOL   C11532491   2.798   0.843   5.605 -0.2717 -0.0511  0.4124
  229MOL   O11632492   2.813   0.887   5.739 -0.2620 -0.4195  0.2660
  229MOL   H11732493   3.004   0.894   5.557  2.2577 -1.2417  1.7317
  229MOL   H11832494   2.950   0.771   5.461 -1.2653  2.1881 -0.6484
  229MOL   H11932495   2.731   0.760   5.626 -0.1307 -0.1947  0.2959
  229MOL   H12032496   2.727   0.892   5.777 -0.6286 -0.0381 -0.6039
  229MOL   C12132497   2.723   0.938   5.517  0.5443  0.2550 -0.0755
  229MOL   C12232498   2.567   0.920   5.523 -0.6888 -1.0345 -0.5251
  229MOL   O12332499   2.500   1.042   5.499  0.0779 -0.4945 -0.1106
  229MOL   H12432500   2.762   1.035   5.548  0.2736  0.4678 -0.4010
  229MOL   H12532501   2.756   0.938   5.413  0.3108 -1.5928 -0.1673
  229MOL   H12632502   2.542   0.886   5.623  0.9453 -1.2027 -0.1554
  229MOL   H12732503   2.445   1.061   5.574  1.7287  2.9787  0.3136
  229MOL   C12832504   2.528   0.812   5.416  0.1423 -0.0363  0.2002
  229MOL   C12932505   2.392   0.745   5.453 -0.4123 -0.2772  0.1815
  229MOL   O13032506   2.330   0.678   5.343 -0.2273 -0.1436  0.3482
  229MOL   H13132507   2.520   0.861   5.319 -0.2579  0.6046  0.5615
  229MOL   H13232508   2.608   0.738   5.407  1.6212  1.7333 -1.6105
  229MOL   H13332509   2.329   0.826   5.489  2.5775  1.8792  0.7974
  229MOL   H13432510   2.293   0.740   5.283  0.8191 -0.1618 -0.3290
  229MOL   C13532511   2.399   0.643   5.570 -0.0098 -0.2900  0.1286
  229MOL   C13632512   2.270   0.629   5.637 -0.0426  1.2169  0.6755
  229MOL   O13732513   2.282   0.562   5.766 -0.5321 -0.0164  0.7024
  229MOL   H13832514   2.434   0.550   5.526 -1.0400 -0.3466 -0.5788
  229MOL   H13932515   2.481   0.680   5.631  0.3293 -1.3540  0.3219
  229MOL   H14032516   2.202   0.573   5.573 -1.4200  2.2188  1.2475
  229MOL   H14132517   2.252   0.623   5.831 -2.4832  1.7669 -1.8091
  229MOL   H14232518   2.228   0.725   5.664 -1.6268  0.5982  0.4573
  230MOL     C132519   6.143   2.499   3.126  0.3084 -0.0356 -0.7167
  230MOL     C232520   6.060   2.610   3.071  0.5659 -0.3649  0.1215
  230MOL     O332521   6.104   2.620   2.928 -0.2778  0.0955 -0.5418
  230MOL     H432522   6.250   2.515   3.115  0.6269 -1.1754  0.6108
  230MOL     H532523   6.121   2.406   3.074  0.8357 -0.1623 -0.7122
  230MOL     H632524   6.098   2.701   3.118 -0.6802  1.7285 -2.7785
  230MOL     H732525   6.143   2.706   2.919 -0.1134 -0.1297 -2.0359
  230MOL     H832526   6.125   2.464   3.228 -1.5405  1.3141 -0.5500
  230MOL     C932527   5.907   2.583   3.083  0.4186 -0.6173  0.8258
  230MOL    C1032528   5.808   2.700   3.043 -0.3186 -0.3531  0.1761
  230MOL    O1132529   5.684   2.627   3.046  0.4560 -0.6498 -0.1263
  230MOL    H1232530   5.885   2.493   3.027  2.7221 -0.2345 -0.7663
  230MOL    H1332531   5.886   2.540   3.181  1.1642 -1.0645  0.7961
  230MOL    H1432532   5.830   2.735   2.942  1.4585  1.8694  1.2961
  230MOL    H1532533   5.677   2.597   2.956  1.8023 -0.1138 -0.4182
  230MOL    C1632534   5.802   2.823   3.148  0.5963 -0.1006  0.3302
  230MOL    C1732535   5.734   2.949   3.102  0.1145 -0.1813 -0.2042
  230MOL    O1832536   5.806   3.005   2.995 -0.0588 -0.8017  0.0569
  230MOL    H1932537   5.762   2.782   3.240  1.8319 -2.5457 -0.1829
  230MOL    H2032538   5.905   2.849   3.173  0.3017  0.6709  0.7443
  230MOL    H2132539   5.740   3.020   3.183 -2.4021 -2.3609  1.9860
  230MOL    H2232540   5.898   2.987   3.007 -0.1428 -2.8031 -1.9786
  230MOL    C2332541   5.588   2.919   3.067  0.9180 -0.5323 -0.1115
  230MOL    C2432542   5.487   2.869   3.180 -0.8427  0.3233  0.1781
  230MOL    O2532543   5.522   2.933   3.299 -0.4951  0.6090 -0.0462
  230MOL    H2632544   5.556   3.018   3.035  0.0000 -0.9623 -0.5366
  230MOL    H2732545   5.574   2.847   2.986  1.2828  1.4099 -1.9328
  230MOL    H2832546   5.509   2.766   3.205  0.9630  1.1238  1.9869
  230MOL    H2932547   5.492   3.022   3.296 -0.2972  0.6572 -0.6368
  230MOL    C3032548   5.339   2.900   3.145  0.2527 -0.1917 -0.5149
  230MOL    C3132549   5.276   2.811   3.040  0.1878  0.4361  0.0072
  230MOL    O3232550   5.313   2.823   2.905 -0.5994  0.2771  1.2552
  230MOL    H3332551   5.293   2.878   3.241  2.8013  1.2225  1.0925
  230MOL    H3432552   5.331   3.008   3.128  0.0180 -0.2561 -0.8219
  230MOL    H3532553   5.177   2.855   3.031  0.0530  0.0505 -0.4180
  230MOL    H3632554   5.233   2.813   2.855 -0.0629  3.1998 -0.2875
  230MOL    C3732555   5.282   2.660   3.084  0.6234  0.5866 -0.7261
  230MOL    C3832556   5.209   2.561   2.994 -0.7241  0.1505 -0.0856
  230MOL    O3932557   5.237   2.433   3.046 -0.0795  0.4658 -0.3161
  230MOL    H4032558   5.388   2.636   3.081  0.2132 -1.7600  1.9749
  230MOL    H4132559   5.261   2.637   3.188 -0.8322  3.2480 -0.3778
  230MOL    H4232560   5.237   2.576   2.890 -0.4562 -0.1056 -0.0522
  230MOL    H4332561   5.213   2.380   2.972  0.5803 -0.4407  0.1059
  230MOL    C4432562   5.058   2.587   2.988 -0.3603 -0.3517  0.6320
  230MOL    C4532563   4.990   2.517   2.866  0.2453  0.0591  0.1766
  230MOL    O4632564   5.044   2.388   2.855 -0.1676 -0.1053 -0.0989
  230MOL    H4732565   5.000   2.554   3.074 -0.1559 -2.4977 -0.0283
  230MOL    H4832566   5.035   2.694   2.978 -2.3342 -0.8648 -0.6752
  230MOL    H4932567   5.017   2.568   2.773 -1.4924 -1.2922 -1.0992
  230MOL    H5032568   5.026   2.333   2.930 -0.3473 -0.4268 -0.3751
  230MOL    C5132569   4.835   2.496   2.875 -0.3541 -0.5923  0.3195
  230MOL    C5232570   4.751   2.629   2.878  0.1734  0.4728 -0.4083
  230MOL    O5332571   4.798   2.721   2.777 -0.0586  0.2930  0.2398
  230MOL    H5432572   4.799   2.438   2.791  2.8234 -0.6310 -1.0670
  230MOL    H5532573   4.814   2.445   2.970  4.0596  0.0099  1.7385
  230MOL    H5632574   4.759   2.680   2.974 -0.5289  0.5219 -0.3757
  230MOL    H5732575   4.890   2.742   2.777 -0.1896  0.8657  0.1309
  230MOL    C5832576   4.594   2.598   2.865  0.8207  0.1347 -0.4185
  230MOL    C5932577   4.510   2.583   2.995  0.0126 -0.4087  0.1320
  230MOL    O6032578   4.377   2.618   2.950  0.0552  0.4779  0.3156
  230MOL    H6132579   4.540   2.680   2.817 -1.2004  0.5216  2.4143
  230MOL    H6232580   4.579   2.529   2.782 -0.2894 -0.4943  0.3044
  230MOL    H6332581   4.544   2.648   3.076  0.7432  1.2929 -1.5024
  230MOL    H6432582   4.339   2.643   3.033 -1.7061 -1.8574  0.2511
  230MOL    C6532583   4.511   2.448   3.060 -0.8881 -0.3256  0.8747
  230MOL    C6632584   4.427   2.436   3.197  0.2679  0.0099 -0.4928
  230MOL    O6732585   4.289   2.434   3.168  0.1262 -0.2032 -0.1139
  230MOL    H6832586   4.475   2.383   2.980  1.9662  0.5790 -1.2484
  230MOL    H6932587   4.617   2.422   3.074  0.1601  1.7117 -2.8205
  230MOL    H7032588   4.433   2.528   3.256  0.2210 -1.3646  1.7048
  230MOL    H7132589   4.254   2.522   3.157  1.3512  0.1928 -0.9391
  230MOL    C7232590   4.476   2.317   3.285 -0.0302 -0.6852 -0.6159
  230MOL    C7332591   4.465   2.168   3.239 -0.6177  0.0729  0.4046
  230MOL    O7432592   4.576   2.147   3.150  0.4316  0.0395  0.4488
  230MOL    H7532593   4.580   2.340   3.308 -0.3801 -2.4218  3.0621
  230MOL    H7632594   4.424   2.322   3.380 -0.4754  0.3850 -0.9170
  230MOL    H7732595   4.369   2.148   3.192  0.0751 -1.1359 -0.5113
  230MOL    H7832596   4.659   2.156   3.195 -0.6008 -2.1935  2.9604
  230MOL    C7932597   4.475   2.070   3.364  0.1541 -0.0023  0.2681
  230MOL    C8032598   4.461   1.915   3.333 -0.1331  0.4568  0.2059
  230MOL    O8132599   4.486   1.852   3.457 -0.5562 -0.2407 -0.5761
  230MOL    H8232600   4.573   2.083   3.411  0.5471 -2.5428  0.2302
  230MOL    H8332601   4.404   2.105   3.439  1.4109 -0.0175  1.5068
  230MOL    H8432602   4.528   1.884   3.253 -0.5758 -0.9270  0.3608
  230MOL    H8532603   4.577   1.826   3.458 -0.6111 -0.4348 -0.5446
  230MOL    C8632604   4.310   1.891   3.302 -0.4135  0.1959 -0.1686
  230MOL    C8732605   4.267   1.758   3.258 -0.2382 -0.1456 -0.2826
  230MOL    O8832606   4.279   1.675   3.373  0.3338 -0.0605  0.2600
  230MOL    H8932607   4.250   1.921   3.388  1.1253  0.4566  0.8242
  230MOL    H9032608   4.276   1.965   3.229 -0.8461  0.9897  0.8102
  230MOL    H9132609   4.331   1.724   3.177  0.5275  0.1886  0.1645
  230MOL    H9232610   4.346   1.715   3.425 -0.3156  2.1822 -0.5867
  230MOL    C9332611   4.115   1.753   3.218  0.2245  0.3210  0.6609
  230MOL    C9432612   4.082   1.803   3.073  0.3802  0.1396  0.6682
  230MOL    O9532613   4.138   1.715   2.974  0.2054  0.6418  0.0073
  230MOL    H9632614   4.076   1.652   3.229 -0.7423  0.8304  1.9750
  230MOL    H9732615   4.053   1.808   3.289  0.7629  1.6090  0.1433
  230MOL    H9832616   4.137   1.894   3.051 -0.5437  0.8478  1.2778
  230MOL    H9932617   4.102   1.630   2.994  0.9595  1.0251  3.4428
  230MOL   C10032618   3.934   1.829   3.048 -0.6050 -0.3516  0.5595
  230MOL   C10132619   3.887   1.971   3.085  0.1889 -0.7326 -0.2679
  230MOL   O10232620   3.755   1.975   3.036 -0.0464 -0.5448 -0.1971
  230MOL   H10332621   3.916   1.811   2.942  0.0296 -0.3593  0.4518
  230MOL   H10432622   3.867   1.759   3.098  1.8059 -1.7544  1.9401
  230MOL   H10532623   3.942   2.040   3.021 -0.6401 -0.1744 -0.3846
  230MOL   H10632624   3.701   1.898   3.043 -0.5581 -0.2368 -0.6949
  230MOL   C10732625   3.904   2.012   3.238 -0.0226 -0.0646  0.2182
  230MOL   C10832626   3.844   2.142   3.277  0.8894 -0.0893  0.2330
  230MOL   O10932627   3.848   2.154   3.415  0.2335 -0.1913 -0.2026
  230MOL   H11032628   3.858   1.932   3.297 -0.0815 -0.3266 -0.1781
  230MOL   H11132629   4.011   2.007   3.259 -0.1796  1.7581  1.5169
  230MOL   H11232630   3.745   2.145   3.229  1.8269  0.0801 -1.7445
  230MOL   H11332631   3.819   2.074   3.456 -0.5585  0.7429  1.0990
  230MOL   C11432632   3.932   2.263   3.233 -0.2785 -0.3005  0.2964
  230MOL   C11532633   3.857   2.396   3.199  0.1131  0.5413  0.3019
  230MOL   O11632634   3.776   2.438   3.304 -0.7450  0.1754  0.3539
  230MOL   H11732635   4.014   2.294   3.298  0.1839  0.1013 -0.4733
  230MOL   H11832636   3.974   2.243   3.135 -1.2304  0.0376 -0.1927
  230MOL   H11932637   3.775   2.377   3.130  0.2109  0.5470  0.1835
  230MOL   H12032638   3.751   2.360   3.350  0.1791 -0.0792  0.4266
  230MOL   C12132639   3.959   2.500   3.140  0.5159  0.2129 -0.1491
  230MOL   C12232640   3.886   2.617   3.072  0.0313 -1.0852  0.4774
  230MOL   O12332641   3.984   2.702   3.026  0.2276  0.1626 -1.0175
  230MOL   H12432642   4.023   2.535   3.221 -1.4988 -0.6161  1.8370
  230MOL   H12532643   4.025   2.461   3.061 -1.6109 -2.0814 -0.8489
  230MOL   H12632644   3.826   2.671   3.146  0.0517 -0.0963 -0.2120
  230MOL   H12732645   3.942   2.758   2.962 -0.1543 -0.0718 -0.9757
  230MOL   C12832646   3.791   2.580   2.955  0.9515 -0.3435 -0.0673
  230MOL   C12932647   3.709   2.697   2.889  0.2194 -0.3600 -0.0163
  230MOL   O13032648   3.804   2.813   2.860  0.2907  0.2271 -0.1548
  230MOL   H13132649   3.844   2.518   2.881  3.3361  1.3200  0.1929
  230MOL   H13232650   3.715   2.517   3.000  0.9396 -0.8210 -0.7366
  230MOL   H13332651   3.659   2.726   2.981 -0.5266  1.3187 -0.9292
  230MOL   H13432652   3.762   2.864   2.792 -0.1291  1.1481  0.7711
  230MOL   C13532653   3.614   2.663   2.770 -0.5588 -0.2276 -0.8271
  230MOL   C13632654   3.684   2.617   2.648 -0.0409  0.2379 -0.1302
  230MOL   O13732655   3.591   2.560   2.553 -0.3493 -0.3847 -0.5296
  230MOL   H13832656   3.547   2.591   2.818  0.2725 -0.3797  0.1213
  230MOL   H13932657   3.539   2.739   2.746 -1.2942 -0.1815  1.5041
  230MOL   H14032658   3.757   2.541   2.676 -2.2928 -2.1827 -0.6594
  230MOL   H14132659   3.625   2.567   2.465 -1.3689 -0.7570 -0.9650
  230MOL   H14232660   3.730   2.693   2.584  3.4387 -1.6923 -0.0358
  231MOL     C132661   5.332   4.645   1.504 -0.3158  0.1586  0.0142
  231MOL     C232662   5.337   4.789   1.471  0.2071 -0.4113  0.0369
  231MOL     O332663   5.209   4.850   1.453 -0.3102  0.2356  0.0677
  231MOL     H432664   5.281   4.587   1.427 -0.5595  0.2336  0.1191
  231MOL     H532665   5.291   4.636   1.604  0.9741  0.4638  0.5835
  231MOL     H632666   5.394   4.806   1.380  0.6142  0.2073  0.4066
  231MOL     H732667   5.188   4.830   1.363  0.5982 -2.1620  0.3748
  231MOL     H832668   5.433   4.605   1.500 -0.0178  1.0245 -1.6077
  231MOL     C932669   5.404   4.864   1.588 -0.1228 -0.3081 -0.1037
  231MOL    C1032670   5.561   4.865   1.579  1.0516 -0.4260  0.3062
  231MOL    O1132671   5.602   4.746   1.635  0.2183  0.4181  0.2819
  231MOL    H1232672   5.374   4.969   1.591 -0.8448 -0.5281  0.4912
  231MOL    H1332673   5.352   4.825   1.675  0.6687 -0.6178  0.2367
  231MOL    H1432674   5.591   4.937   1.655  1.1306 -0.7872  0.6189
  231MOL    H1532675   5.696   4.755   1.634  0.1331  1.3382 -1.0693
  231MOL    C1632676   5.629   4.890   1.447  0.0128 -0.0799 -0.6570
  231MOL    C1732677   5.777   4.941   1.465  0.3518 -0.5157 -0.2800
  231MOL    O1832678   5.837   4.836   1.534  0.0490  0.3608  0.4044
  231MOL    H1932679   5.607   4.804   1.384 -0.6802 -1.9097  2.0180
  231MOL    H2032680   5.564   4.962   1.395  1.2596  0.2848 -1.7210
  231MOL    H2132681   5.776   5.031   1.527  0.4275 -1.8960  1.7972
  231MOL    H2232682   5.892   4.876   1.600  1.4795 -0.8240 -0.0442
  231MOL    C2332683   5.843   4.972   1.332 -0.0759  0.7455 -0.5076
  231MOL    C2432684   5.968   5.067   1.340 -0.3438 -0.2302 -0.3627
  231MOL    O2532685   6.037   5.059   1.216 -0.3105 -0.3694 -0.1167
  231MOL    H2632686   5.876   4.884   1.276 -1.2396  0.5141 -0.8340
  231MOL    H2732687   5.766   5.024   1.275 -0.2359  1.5667  0.4539
  231MOL    H2832688   6.037   5.035   1.418 -0.0402 -0.3990 -0.6983
  231MOL    H2932689   6.100   5.129   1.224 -0.8150 -0.0665  1.3603
  231MOL    C3032690   5.923   5.217   1.358 -1.1971  0.2760 -0.5538
  231MOL    C3132691   6.039   5.316   1.371 -0.5385  0.2131  0.5447
  231MOL    O3232692   6.098   5.332   1.248 -0.0156  0.2164  0.1062
  231MOL    H3332693   5.861   5.245   1.273  2.8421 -3.5184 -5.0011
  231MOL    H3432694   5.869   5.240   1.450 -0.0553  0.4121  0.0903
  231MOL    H3532695   6.113   5.266   1.433  2.3318  2.2403 -1.1720
  231MOL    H3632696   6.038   5.387   1.199 -0.1196  0.4977  0.5456
  231MOL    C3732697   6.003   5.451   1.436  0.4781  0.1369 -0.8474
  231MOL    C3832698   6.126   5.546   1.454 -0.8214 -0.8535 -0.1781
  231MOL    O3932699   6.089   5.682   1.485  0.1937  0.2329 -0.2820
  231MOL    H4032700   5.927   5.505   1.379 -0.7759 -2.0403 -1.3206
  231MOL    H4132701   5.953   5.443   1.533  1.0522  0.1306 -0.5515
  231MOL    H4232702   6.169   5.569   1.357 -2.6405  1.7616 -0.3869
  231MOL    H4332703   6.056   5.727   1.409 -0.4421  0.1596 -0.0515
  231MOL    C4432704   6.227   5.500   1.559 -0.2205  0.0629  0.0294
  231MOL    C4532705   6.352   5.588   1.590  0.7700 -0.0140 -0.3388
  231MOL    O4632706   6.428   5.517   1.684 -0.0154 -0.5873  0.4295
  231MOL    H4732707   6.176   5.477   1.652 -0.2823 -1.6224 -0.4074
  231MOL    H4832708   6.268   5.399   1.547  3.9099  1.4639  1.4786
  231MOL    H4932709   6.325   5.679   1.643  1.7947  0.0276  0.1174
  231MOL    H5032710   6.488   5.575   1.730 -0.2718  2.1601 -2.5293
  231MOL    C5132711   6.441   5.628   1.468 -0.2417  0.3120 -0.6012
  231MOL    C5232712   6.473   5.522   1.353  0.0951 -0.0614 -0.3111
  231MOL    O5332713   6.541   5.593   1.252  0.0086  0.2304 -0.2065
  231MOL    H5432714   6.386   5.708   1.419  2.8415  1.2168 -2.7542
  231MOL    H5532715   6.534   5.674   1.502  0.0513 -0.0309 -0.9189
  231MOL    H5632716   6.379   5.495   1.305  0.2540  0.4903 -0.9411
  231MOL    H5732717   6.482   5.626   1.186 -0.1102  0.2739 -0.0776
  231MOL    C5832718   6.566   5.408   1.396  0.1778  0.3930  0.6035
  231MOL    C5932719   6.600   5.287   1.301 -0.5997 -0.3682 -0.7820
  231MOL    O6032720   6.711   5.219   1.365  0.1828  0.1185 -0.6771
  231MOL    H6132721   6.660   5.439   1.443  0.5625  1.4984 -0.8371
  231MOL    H6232722   6.505   5.363   1.473  0.2785 -0.7979  0.0040
  231MOL    H6332723   6.626   5.324   1.202 -0.4711  0.6713 -0.3679
  231MOL    H6432724   6.730   5.146   1.307 -0.2935 -0.3446 -0.2595
  231MOL    C6532725   6.488   5.185   1.281 -0.1483  0.3997  0.4655
  231MOL    C6632726   6.486   5.131   1.133 -0.4244  0.3924  0.3672
  231MOL    O6732727   6.482   4.989   1.127 -0.0245 -0.4921 -0.3771
  231MOL    H6832728   6.494   5.108   1.358 -0.0209  1.4829  1.5528
  231MOL    H6932729   6.398   5.244   1.296  0.8803  2.1633 -0.0301
  231MOL    H7032730   6.568   5.167   1.070 -2.1636  0.7544 -1.7242
  231MOL    H7132731   6.471   4.959   1.038  2.1049  0.6456 -1.0592
  231MOL    C7232732   6.355   5.170   1.056  0.4613  0.3711 -0.4849
  231MOL    C7332733   6.335   5.319   1.028 -0.5031  0.1574  0.5333
  231MOL    O7432734   6.451   5.376   0.975 -0.7110 -1.2181  0.6710
  231MOL    H7532735   6.348   5.110   0.965  1.5981 -0.1798 -0.2234
  231MOL    H7632736   6.268   5.137   1.113  0.2137  1.5897 -0.1365
  231MOL    H7732737   6.318   5.372   1.122  0.3586  0.4435  0.5418
  231MOL    H7832738   6.423   5.462   0.946 -0.0157 -0.7299  1.4483
  231MOL    C7932739   6.221   5.355   0.941 -0.5346 -0.5606 -0.2717
  231MOL    C8032740   6.162   5.497   0.944  0.1026 -0.7884  0.1752
  231MOL    O8132741   6.251   5.592   0.894 -0.6931 -0.1318  0.0580
  231MOL    H8232742   6.236   5.316   0.841 -1.0192  0.1524 -0.6277
  231MOL    H8332743   6.137   5.294   0.974 -1.0355 -0.0116 -0.5084
  231MOL    H8432744   6.149   5.521   1.049  0.4291 -1.2968  0.3325
  231MOL    H8532745   6.201   5.671   0.884 -0.5675  0.1147  1.2975
  231MOL    C8632746   6.028   5.499   0.877  0.7099 -0.1039 -0.4933
  231MOL    C8732747   5.905   5.421   0.944  0.9486 -0.5194 -0.3430
  231MOL    O8832748   5.888   5.481   1.074 -0.5877  0.0302  0.3159
  231MOL    H8932749   6.006   5.606   0.870 -1.3403 -0.3934  1.2516
  231MOL    H9032750   6.033   5.466   0.773  2.2282  0.8091 -0.7388
  231MOL    H9132751   5.906   5.312   0.945 -1.6932 -0.5872 -0.6709
  231MOL    H9232752   5.805   5.446   1.104 -1.4528 -0.7040 -2.7707
  231MOL    C9332753   5.769   5.456   0.870 -0.3193 -0.3769 -0.4974
  231MOL    C9432754   5.756   5.419   0.729  0.4399 -0.7117  0.0670
  231MOL    O9532755   5.770   5.281   0.705  0.0752  0.0731  0.2652
  231MOL    H9632756   5.683   5.421   0.926 -0.6742  1.0682 -0.1228
  231MOL    H9732757   5.752   5.563   0.876 -4.8404 -1.0244 -0.0649
  231MOL    H9832758   5.838   5.470   0.679  0.5131 -0.9559 -0.0657
  231MOL    H9932759   5.804   5.262   0.619 -1.3166 -0.4092 -0.1982
  231MOL   C10032760   5.624   5.474   0.663  0.1635 -0.3402  0.2789
  231MOL   C10132761   5.491   5.405   0.701 -0.0343 -0.6986  0.2748
  231MOL   O10232762   5.431   5.472   0.808  0.1164  0.2428  0.1653
  231MOL   H10332763   5.614   5.577   0.698  0.8687  0.1579 -0.9611
  231MOL   H10432764   5.648   5.468   0.557  2.9802 -0.4292  0.8835
  231MOL   H10532765   5.494   5.303   0.739 -1.0921 -0.8404  0.0087
  231MOL   H10632766   5.356   5.422   0.835  0.0997 -0.2910 -0.8448
  231MOL   C10732767   5.386   5.412   0.584 -0.4785  0.6886  0.3511
  231MOL   C10832768   5.268   5.308   0.593  0.0663  0.3683 -0.6219
  231MOL   O10932769   5.194   5.340   0.713 -0.6786  0.2744 -0.1539
  231MOL   H11032770   5.360   5.509   0.542  3.0868  0.7978 -1.8500
  231MOL   H11132771   5.440   5.372   0.498 -1.8860 -0.2661 -0.0983
  231MOL   H11232772   5.305   5.207   0.607 -1.9686 -0.0807  2.2370
  231MOL   H11332773   5.101   5.337   0.695 -1.0800  0.6723  1.7709
  231MOL   C11432774   5.159   5.311   0.477 -0.2425  0.3189  0.1385
  231MOL   C11532775   5.217   5.276   0.338  0.0954 -0.4461  0.4584
  231MOL   O11632776   5.171   5.149   0.304 -0.0788 -0.0369 -0.4269
  231MOL   H11732777   5.075   5.247   0.504  0.5052 -1.2605 -1.1749
  231MOL   H11832778   5.123   5.413   0.485  0.0503  0.3885  0.5518
  231MOL   H11932779   5.326   5.278   0.337  0.0908  1.0408  2.0247
  231MOL   H12032780   5.219   5.109   0.234 -0.3920  0.8668 -1.1652
  231MOL   C12132781   5.169   5.376   0.230 -0.0023 -0.1133 -0.1182
  231MOL   C12232782   5.204   5.529   0.244  0.0316 -0.0036 -1.1398
  231MOL   O12332783   5.330   5.555   0.194 -0.5232  0.3519  0.0913
  231MOL   H12432784   5.193   5.328   0.136 -1.5357 -1.4878  0.1700
  231MOL   H12532785   5.061   5.367   0.243  0.1081 -0.3813  0.6460
  231MOL   H12632786   5.193   5.558   0.348 -1.0142 -0.9652 -0.9666
  231MOL   H12732787   5.356   5.624   0.254  1.6689  0.0670 -0.4856
  231MOL   C12832788   5.108   5.630   0.179  0.7780 -0.4413  0.0043
  231MOL   C12932789   5.086   5.626   0.024 -0.1247 -1.1002  0.0851
  231MOL   O13032790   5.000   5.515   7.514 -0.3508 -0.4949 -0.6817
  231MOL   H13132791   5.014   5.623   0.235  2.1905 -0.3248  2.4476
  231MOL   H13232792   5.133   5.727   0.224 -0.4730  0.1885 -0.6183
  231MOL   H13332793   5.180   5.614   7.490  0.6924 -1.8807  1.6553
  231MOL   H13432794   5.018   5.481   7.427  0.4533 -2.0730  0.0653
  231MOL   C13532795   5.028   5.760   7.487  0.0049 -0.2588 -0.6435
  231MOL   C13632796   4.884   5.794   0.024 -0.4183 -0.0491  0.1813
  231MOL   O13732797   4.821   5.897   7.469 -0.6245  0.0632  0.2715
  231MOL   H13832798   5.101   5.838   7.507  1.5145 -1.5005 -1.1960
  231MOL   H13932799   5.020   5.758   7.379  3.9962  4.0259 -1.1856
  231MOL   H14032800   4.890   5.820   0.129  0.1047 -0.8744  0.3585
  231MOL   H14132801   4.728   5.909   7.478 -0.9964 -1.7904 -0.8723
  231MOL   H14232802   4.821   5.706   0.013  1.6573 -1.2922 -2.3738
  232MOL     C132803   5.152   0.755   3.133  0.1108  0.5789  0.2354
  232MOL     C232804   5.055   0.640   3.154 -0.1779  1.1239  0.2623
  232MOL     O332805   5.108   0.572   3.261 -0.5011 -0.1227  0.0797
  232MOL     H432806   5.255   0.720   3.132  0.3036  1.1512  0.0689
  232MOL     H532807   5.141   0.829   3.212  0.3304  2.2271 -1.2327
  232MOL     H632808   5.055   0.582   3.061  0.6301  0.6320  0.5628
  232MOL     H732809   5.067   0.487   3.264 -2.4234  0.8103  0.5019
  232MOL     H832810   5.146   0.821   3.046 -0.0988  0.9707  0.5438
  232MOL     C932811   4.912   0.696   3.193 -0.2327 -0.1322  0.4324
  232MOL    C1032812   4.843   0.782   3.080  0.4690 -0.2300 -0.0426
  232MOL    O1132813   4.774   0.684   3.000 -0.2246 -0.2404  0.0049
  232MOL    H1232814   4.843   0.622   3.235 -1.0654  1.8165  2.6227
  232MOL    H1332815   4.928   0.762   3.278 -0.8350  3.1943 -1.9179
  232MOL    H1432816   4.913   0.835   3.016  1.2673 -1.6538 -0.3806
  232MOL    H1532817   4.839   0.646   2.943 -1.1908 -0.7516 -0.7550
  232MOL    C1632818   4.742   0.886   3.139 -0.0921  0.5036 -0.6949
  232MOL    C1732819   4.801   1.000   3.216 -0.0168  1.3802  0.0466
  232MOL    O1832820   4.879   1.078   3.127 -0.1068  0.6169  0.0497
  232MOL    H1932821   4.685   0.921   3.053  1.7959  2.6248 -1.1328
  232MOL    H2032822   4.684   0.829   3.212  0.5587  0.4116 -0.2548
  232MOL    H2132823   4.868   0.959   3.292 -1.5464 -2.1916 -0.4554
  232MOL    H2232824   4.951   1.125   3.167  0.2272  0.6467 -0.5881
  232MOL    C2332825   4.690   1.096   3.275  0.0590 -0.2704 -0.5478
  232MOL    C2432826   4.581   1.032   3.363 -0.1351  0.2105  0.3325
  232MOL    O2532827   4.645   0.961   3.467  0.5305  0.1490  0.0259
  232MOL    H2632828   4.732   1.177   3.334  0.5023  0.1655 -1.4643
  232MOL    H2732829   4.644   1.151   3.193  0.2231  0.4673 -0.1482
  232MOL    H2832830   4.539   0.950   3.303  1.0785  0.5358 -0.9968
  232MOL    H2932831   4.596   0.881   3.480  2.8771 -1.2557  0.4005
  232MOL    C3032832   4.489   1.138   3.430 -0.5025  0.1330 -0.4307
  232MOL    C3132833   4.364   1.168   3.346 -0.9588 -0.0661  0.3131
  232MOL    O3232834   4.272   1.055   3.358  0.6193  0.0309 -0.2540
  232MOL    H3332835   4.447   1.104   3.525 -0.3484 -1.8624 -1.0617
  232MOL    H3432836   4.543   1.229   3.456 -0.1929 -0.6079  1.5774
  232MOL    H3532837   4.401   1.187   3.245  0.0253 -1.3352  0.4211
  232MOL    H3632838   4.288   0.990   3.291 -1.0314 -0.5133 -0.1276
  232MOL    C3732839   4.295   1.299   3.378  0.2153 -1.0851 -0.7620
  232MOL    C3832840   4.169   1.338   3.307 -0.5446 -0.4070 -0.0133
  232MOL    O3932841   4.111   1.447   3.378  0.5589  0.7460  0.1152
  232MOL    H4032842   4.289   1.302   3.487 -1.4074 -0.2941 -0.8555
  232MOL    H4132843   4.369   1.376   3.356 -0.3362 -0.9370 -2.1549
  232MOL    H4232844   4.097   1.256   3.317  0.1899 -0.9098  1.2145
  232MOL    H4332845   4.180   1.503   3.409 -0.3711  1.8567  0.2484
  232MOL    C4432846   4.206   1.384   3.160  0.0776  0.0877 -0.4938
  232MOL    C4532847   4.092   1.372   3.060 -0.7736 -0.0894 -0.2585
  232MOL    O4632848   4.004   1.481   3.052  0.2659  0.5390 -0.0092
  232MOL    H4732849   4.237   1.489   3.160 -1.0856  0.4359 -0.6359
  232MOL    H4832850   4.286   1.332   3.106 -0.8200  1.1672 -2.9385
  232MOL    H4932851   4.040   1.277   3.075  2.1136 -1.7837 -0.5793
  232MOL    H5032852   3.962   1.479   3.137  0.6353  2.7311  0.2725
  232MOL    C5132853   4.148   1.360   2.913 -0.2589  0.4994  0.6111
  232MOL    C5232854   4.161   1.216   2.859 -0.4732 -0.3243 -0.3597
  232MOL    O5332855   4.050   1.194   2.769 -0.0887 -0.0459 -0.6643
  232MOL    H5432856   4.093   1.413   2.835 -0.2388  2.7391  2.0641
  232MOL    H5532857   4.246   1.408   2.916 -0.3814  0.7952  0.0207
  232MOL    H5632858   4.142   1.137   2.931  0.6361  0.8250  1.2176
  232MOL    H5732859   3.979   1.251   2.794 -0.9683 -2.0327  1.5571
  232MOL    C5832860   4.296   1.194   2.786  0.0078 -0.2454  0.2180
  232MOL    C5932861   4.412   1.141   2.876  0.4544  0.1818 -0.2830
  232MOL    O6032862   4.389   1.017   2.926 -0.4721 -0.2212 -0.4086
  232MOL    H6132863   4.285   1.135   2.695 -0.6882  1.0318 -0.5436
  232MOL    H6232864   4.334   1.288   2.747  0.9699 -0.8175 -0.2245
  232MOL    H6332865   4.415   1.201   2.967 -0.5007 -1.4826  0.8805
  232MOL    H6432866   4.366   0.965   2.850  0.1962  2.9271 -2.8732
  232MOL    C6532867   4.553   1.151   2.810  0.1263  0.2559  0.4399
  232MOL    C6632868   4.593   1.031   2.715 -0.0183  0.1836  0.1640
  232MOL    O6732869   4.492   1.003   2.617  0.0928  0.3868 -0.0521
  232MOL    H6832870   4.559   1.243   2.751 -2.1813 -0.2926 -0.7122
  232MOL    H6932871   4.628   1.162   2.889  0.7043  1.4731 -0.2617
  232MOL    H7032872   4.601   0.939   2.774  2.6088 -0.8179 -1.6512
  232MOL    H7132873   4.513   0.918   2.583 -0.3068  0.3882 -0.3045
  232MOL    C7232874   4.727   1.052   2.643  0.4591 -0.7331 -0.0658
  232MOL    C7332875   4.840   1.114   2.721 -0.0329 -0.0977 -0.1007
  232MOL    O7432876   4.885   1.025   2.820 -0.7109 -0.4656  0.6449
  232MOL    H7532877   4.749   0.959   2.589  0.0252 -0.7311 -0.2490
  232MOL    H7632878   4.707   1.127   2.567 -0.6840 -0.2549  0.6934
  232MOL    H7732879   4.807   1.207   2.766  0.6414  0.1594 -0.1326
  232MOL    H7832880   4.854   1.053   2.904  0.6701 -0.0054  1.0169
  232MOL    C7932881   4.957   1.141   2.623  0.4073  0.2502 -0.3238
  232MOL    C8032882   5.068   1.232   2.680  0.5426  0.0200 -0.3094
  232MOL    O8132883   5.135   1.162   2.784 -0.1757 -0.2098 -0.6490
  232MOL    H8232884   5.006   1.052   2.583 -0.8751 -0.0109 -1.3406
  232MOL    H8332885   4.912   1.195   2.540  0.4633 -2.1122 -1.9452
  232MOL    H8432886   5.022   1.319   2.728 -0.3979  0.2232 -1.5656
  232MOL    H8532887   5.070   1.115   2.835 -1.0517  0.1634 -1.4161
  232MOL    C8632888   5.176   1.280   2.586 -0.8832  0.2361  0.1199
  232MOL    C8732889   5.140   1.383   2.479 -0.0385  0.2255 -0.1717
  232MOL    O8832890   5.066   1.324   2.370 -0.3841  0.2698  0.4544
  232MOL    H8932891   5.247   1.329   2.653 -0.8514 -1.0140  1.0301
  232MOL    H9032892   5.231   1.197   2.542 -0.3833 -0.4263  1.9325
  232MOL    H9132893   5.238   1.407   2.436 -1.5639  3.5047 -2.0690
  232MOL    H9232894   5.116   1.345   2.292 -1.2611  1.0250  0.0739
  232MOL    C9332895   5.074   1.514   2.522  0.6069 -0.6006 -0.5142
  232MOL    C9432896   5.145   1.591   2.636  0.0380  0.3389 -0.3449
  232MOL    O9532897   5.246   1.662   2.572  0.0102  0.0955  0.2529
  232MOL    H9632898   5.062   1.586   2.441 -0.7525 -0.2197  0.0229
  232MOL    H9732899   4.978   1.477   2.557 -0.5489  1.9703 -0.8255
  232MOL    H9832900   5.185   1.528   2.715  1.9762  1.4339 -0.4448
  232MOL    H9932901   5.324   1.612   2.555 -1.2010 -1.5331 -0.6440
  232MOL   C10032902   5.049   1.681   2.713  0.2499 -0.0102  0.4887
  232MOL   C10132903   5.085   1.692   2.859  0.0721  0.2446 -0.2050
  232MOL   O10232904   5.017   1.808   2.906  0.5370  0.1164  0.0073
  232MOL   H10332905   5.055   1.781   2.670 -1.8339  0.0038  0.1371
  232MOL   H10432906   4.944   1.653   2.701  0.7226 -0.7392 -2.2185
  232MOL   H10532907   5.191   1.714   2.868  0.1299  0.1192 -0.5737
  232MOL   H10632908   4.983   1.871   2.844 -0.9029  1.9202  2.5158
  232MOL   C10732909   5.037   1.568   2.935 -0.1659 -0.1548 -0.5309
  232MOL   C10832910   5.151   1.503   3.017 -0.4764 -0.5078  0.3316
  232MOL   O10932911   5.188   1.591   3.128 -0.2112  0.4146 -0.1765
  232MOL   H11032912   4.954   1.594   3.001  1.3394 -0.4732  1.5388
  232MOL   H11132913   4.994   1.495   2.868 -2.5058  0.9648 -0.2983
  232MOL   H11232914   5.220   1.475   2.937  0.1703 -1.8254  1.3328
  232MOL   H11332915   5.268   1.559   3.168 -0.1712  0.4605 -0.2180
  232MOL   C11432916   5.094   1.374   3.084 -0.7024  0.5843 -0.6641
  232MOL   C11532917   5.185   1.286   3.163  0.8403 -0.3467  0.6687
  232MOL   O11632918   5.117   1.188   3.238 -0.3714 -0.0231 -0.6596
  232MOL   H11732919   5.007   1.406   3.141 -0.4695  0.0531 -0.0103
  232MOL   H11832920   5.060   1.311   3.001 -0.1817 -2.0680  1.0638
  232MOL   H11932921   5.226   1.346   3.244 -1.2169  2.8820 -0.5601
  232MOL   H12032922   5.103   1.226   3.324  0.1736  0.2574 -0.6966
  232MOL   C12132923   5.287   1.219   3.071 -1.1823 -0.0219 -0.0327
  232MOL   C12232924   5.388   1.133   3.150  0.3116  0.1797 -0.3064
  232MOL   O12332925   5.327   1.011   3.207 -0.0735  0.3064 -0.4432
  232MOL   H12432926   5.246   1.148   2.999  3.3135 -0.4061 -2.3429
  232MOL   H12532927   5.344   1.289   3.010  0.2518 -0.5490  0.6890
  232MOL   H12632928   5.428   1.198   3.228  0.4434  2.0744 -1.9359
  232MOL   H12732929   5.238   1.036   3.229  0.2785 -0.2091  1.6392
  232MOL   C12832930   5.512   1.096   3.062  0.7755  0.3409 -0.1942
  232MOL   C12932931   5.630   1.033   3.135  0.8043  0.2974  0.3450
  232MOL   O13032932   5.724   0.983   3.041 -0.4269 -0.4182 -0.6486
  232MOL   H13132933   5.472   1.025   2.989 -0.7953 -0.0308  0.9932
  232MOL   H13232934   5.535   1.188   3.008 -0.6584  0.4939 -0.5780
  232MOL   H13332935   5.594   0.948   3.193  0.4352  1.0093  1.1741
  232MOL   H13432936   5.688   0.902   3.008  0.5058 -1.1466  0.1041
  232MOL   C13532937   5.705   1.116   3.238  0.8745  0.1786  0.3685
  232MOL   C13632938   5.805   1.030   3.323 -0.2604 -0.3054 -0.4566
  232MOL   O13732939   5.808   1.088   3.452  0.0454  0.1951 -0.2260
  232MOL   H13832940   5.757   1.199   3.190  0.8942 -0.3377 -0.5137
  232MOL   H13932941   5.647   1.168   3.314 -1.7705  0.5287 -1.7757
  232MOL   H14032942   5.903   1.024   3.276  0.5726 -3.3971  1.5721
  232MOL   H14132943   5.891   1.129   3.466 -0.6634  1.2170  1.1153
  232MOL   H14232944   5.762   0.931   3.331  0.7976 -0.6197  1.7606
  233MOL     C132945   6.347   3.842   3.915 -0.0387 -0.0663  0.4924
  233MOL     C232946   6.483   3.819   3.978  0.2364  0.1479  0.6258
  233MOL     O332947   6.562   3.782   3.867  0.4350  0.4737 -0.5906
  233MOL     H432948   6.350   3.915   3.834 -0.5965 -2.0508 -1.3727
  233MOL     H532949   6.270   3.866   3.988 -2.0480  1.4246 -2.0071
  233MOL     H632950   6.488   3.729   4.041  0.1685  0.6770  1.3954
  233MOL     H732951   6.651   3.787   3.899 -0.1808  2.9200  0.9193
  233MOL     H832952   6.306   3.754   3.865 -0.1950  1.1144 -1.5205
  233MOL     C932953   6.557   3.940   4.045  0.6086 -0.2134  0.5984
  233MOL    C1032954   6.469   4.002   4.150 -0.2163 -0.3370 -0.4863
  233MOL    O1132955   6.406   3.913   4.241 -0.2750 -0.0748 -0.2009
  233MOL    H1232956   6.657   3.919   4.084  0.0858 -1.7632  1.1473
  233MOL    H1332957   6.577   4.013   3.966  2.1478  0.7746  1.8702
  233MOL    H1432958   6.393   4.051   4.090  0.8508  2.8279  0.6516
  233MOL    H1532959   6.316   3.938   4.257  0.1119  1.4864 -0.3407
  233MOL    C1632960   6.543   4.121   4.219  0.0099 -0.4491 -0.6580
  233MOL    C1732961   6.471   4.221   4.314  0.0142  0.4957  0.6333
  233MOL    O1832962   6.411   4.144   4.412 -0.0314 -0.0568 -0.0645
  233MOL    H1932963   6.631   4.081   4.270 -0.0053 -0.7085 -0.8355
  233MOL    H2032964   6.593   4.175   4.139  0.5485 -1.9441 -1.3444
  233MOL    H2132965   6.391   4.275   4.263  0.9242 -0.7702 -2.2488
  233MOL    H2232966   6.407   4.054   4.384  2.7124 -0.3762  0.4529
  233MOL    C2332967   6.569   4.322   4.385  0.2931  0.2502  0.0404
  233MOL    C2432968   6.624   4.431   4.290  0.1200  0.1898  0.0811
  233MOL    O2532969   6.508   4.497   4.235  0.1366  0.4335  1.0051
  233MOL    H2632970   6.518   4.375   4.465 -2.7159 -3.0601  0.4310
  233MOL    H2732971   6.658   4.269   4.419 -0.5733 -1.0381  0.3290
  233MOL    H2832972   6.677   4.381   4.210 -0.6366 -1.1227  0.3896
  233MOL    H2932973   6.446   4.523   4.302 -0.9264  0.7732 -0.0952
  233MOL    C3032974   6.720   4.526   4.359 -0.3384 -0.9608  0.0424
  233MOL    C3132975   6.786   4.630   4.267  0.0763  0.3088 -0.0737
  233MOL    O3232976   6.856   4.723   4.351 -0.0494  0.0353  0.3860
  233MOL    H3332977   6.664   4.591   4.426  3.9535  0.6677  2.1907
  233MOL    H3432978   6.796   4.462   4.405 -0.7361 -1.6224 -0.2082
  233MOL    H3532979   6.708   4.686   4.216 -1.8955 -1.3805  0.9928
  233MOL    H3632980   6.896   4.671   4.420  0.0119 -2.0396 -1.1657
  233MOL    C3732981   6.874   4.564   4.160 -0.5656  0.5890 -0.3404
  233MOL    C3832982   6.925   4.659   4.048 -0.0787  0.1777 -0.4534
  233MOL    O3932983   6.831   4.694   3.955 -0.1046  1.0663  0.2959
  233MOL    H4032984   6.962   4.512   4.196 -0.8473  0.3735  0.0368
  233MOL    H4132985   6.823   4.484   4.107  2.0728 -1.0323 -0.4867
  233MOL    H4232986   6.995   4.603   3.987 -0.4382 -0.3585 -0.3788
  233MOL    H4332987   6.801   4.608   3.927  0.7317  0.4447  1.2921
  233MOL    C4432988   6.994   4.784   4.098  0.0236  0.6830 -0.6509
  233MOL    C4532989   7.093   4.845   4.002  0.9348  0.3598  0.0450
  233MOL    O4632990   7.042   4.848   3.871  0.1105  0.6122 -0.7817
  233MOL    H4732991   6.916   4.850   4.137 -0.1638 -0.5897  1.1914
  233MOL    H4832992   7.060   4.748   4.177 -0.3121  0.2180 -0.5795
  233MOL    H4932993   7.170   4.768   3.994  0.6927 -0.0927  1.7368
  233MOL    H5032994   6.970   4.787   3.875 -0.4173  1.2762 -0.0201
  233MOL    C5132995   7.150   4.972   4.059  0.1025  0.1913 -0.8365
  233MOL    C5232996   7.277   5.022   3.989 -0.3753  0.3420  0.3575
  233MOL    O5332997   7.311   5.149   4.034  0.7264  0.4589 -0.2915
  233MOL    H5432998   7.073   5.048   4.055  0.1148  0.2641  0.1249
  233MOL    H5532999   7.172   4.949   4.163 -0.8768 -1.7058 -1.0277
  233MOL    H5633000   7.259   5.030   3.882  0.8432  2.6866  0.2957
  233MOL    H5733001   7.317   5.147   4.128 -1.9314  1.6219 -0.0662
  233MOL    C5833002   7.407   4.936   4.002  0.0017  0.3196 -0.0021
  233MOL    C5933003   7.517   4.962   3.900  0.5854  0.3021 -0.5351
  233MOL    O6033004   0.111   4.903   3.952 -0.8213 -0.9129  0.8238
  233MOL    H6133005   7.450   4.955   4.100 -0.3015  1.2033 -0.0320
  233MOL    H6233006   7.392   4.829   4.004  0.1801  0.2151 -2.6154
  233MOL    H6333007   0.022   5.069   3.895  1.5895  0.3244  3.2512
  233MOL    H6433008   0.181   4.965   3.941 -1.5446  0.4379  3.3915
  233MOL    C6533009   7.487   4.900   3.758 -0.6975 -0.3922 -0.6260
  233MOL    C6633010   0.046   4.968   3.646  0.2096 -0.5246  0.6825
  233MOL    O6733011   0.189   4.942   3.627  0.1025 -0.2098 -0.4531
  233MOL    H6833012   7.485   4.791   3.756  0.5929 -0.4110 -1.5452
  233MOL    H6933013   7.383   4.932   3.745 -0.9017  0.1055  2.0339
  233MOL    H7033014   0.034   5.073   3.671  0.2869 -0.6309  1.1716
  233MOL    H7133015   0.221   4.932   3.715  0.1238 -0.1459 -0.4531
  233MOL    C7233016   7.495   4.930   3.509 -0.3920 -0.3309  0.7978
  233MOL    C7333017   7.488   5.045   3.397  0.4279  0.1196 -0.2969
  233MOL    O7433018   7.410   4.985   3.294 -0.5582 -0.0352 -0.0217
  233MOL    H7533019   0.027   4.842   3.471 -0.9369  0.1573 -1.0942
  233MOL    H7633020   7.392   4.900   3.527 -0.2498 -0.6904  1.0136
  233MOL    H7733021   0.068   5.077   3.364  1.0178 -0.4638  0.8976
  233MOL    H7833022   7.386   5.053   3.233  0.0523 -0.4989 -0.7780
  233MOL    C7933023   7.419   5.173   3.433  0.1804  0.6955 -0.3469
  233MOL    C8033024   7.433   5.285   3.330 -0.3621  0.3577  0.0639
  233MOL    O8133025   7.380   5.240   3.207 -0.3704 -0.0455 -0.1872
  233MOL    H8233026   7.314   5.151   3.452  0.5825 -3.3273 -2.3343
  233MOL    H8333027   7.475   5.205   3.521 -0.3575 -0.2825  0.3534
  233MOL    H8433028   0.015   5.314   3.302  0.5064 -1.0220  1.6621
  233MOL    H8533029   7.292   5.213   3.228 -1.1877  2.4562 -0.2848
  233MOL    C8633030   7.357   5.411   3.374  0.1103 -0.2193 -0.0436
  233MOL    C8733031   7.369   5.530   3.275 -0.3140  0.1723 -0.6393
  233MOL    O8833032   7.282   5.633   3.315 -0.1328  0.1149 -0.2629
  233MOL    H8933033   7.249   5.391   3.376  0.0419  0.0412 -0.7829
  233MOL    H9033034   7.374   5.437   3.478 -1.0330 -0.4557  0.2100
  233MOL    H9133035   7.325   5.496   3.181 -0.6977  1.8170 -1.0619
  233MOL    H9233036   7.193   5.605   3.301  0.9059 -2.3840 -2.2700
  233MOL    C9333037   0.001   5.579   3.251 -0.6067 -0.5908  0.3359
  233MOL    C9433038   0.088   5.580   3.378  0.4941 -0.3525  0.3003
  233MOL    O9533039   0.219   5.605   3.332  0.1675  0.3149 -0.1376
  233MOL    H9633040   0.045   5.505   3.184 -0.2521 -1.0773  1.1047
  233MOL    H9733041   7.515   5.669   3.190 -2.0739  0.2634  1.6951
  233MOL    H9833042   0.079   5.478   3.416 -2.0148 -0.7216 -1.1552
  233MOL    H9933043   0.274   5.606   3.409 -1.5209  1.9107  1.0921
  233MOL   C10033044   0.038   5.690   3.487 -0.6129 -0.6465 -0.1154
  233MOL   C10133045   0.034   5.833   3.434 -0.2623  0.0383  0.8590
  233MOL   O10233046   7.418   5.858   3.387 -0.3413 -0.6215 -0.4591
  233MOL   H10333047   7.458   5.676   3.528 -1.4030 -3.3101 -2.8006
  233MOL   H10433048   0.108   5.688   3.571 -0.0345  4.1098 -0.3216
  233MOL   H10533049   0.104   5.843   3.351 -1.2772 -1.9764 -0.2750
  233MOL   H10633050   7.381   5.782   3.345 -1.3269 -0.7365  0.5798
  233MOL   C10733051   0.066   5.934   3.551 -0.1192  1.3539 -0.2551
  233MOL   C10833052   0.057   6.082   3.521 -0.3937 -0.3599  0.6012
  233MOL   O10933053   0.084   6.141   3.649  0.7670 -0.3232  0.1082
  233MOL   H11033054   7.516   5.902   3.628  1.5373  0.9364  1.0959
  233MOL   H11133055   0.163   5.924   3.599 -1.0533 -1.6348  1.1421
  233MOL   H11233056   7.476   6.104   3.484 -0.0651  0.4111  0.1454
  233MOL   H11333057   0.003   6.144   3.697  1.2784  1.3405  0.8897
  233MOL   C11433058   0.154   6.136   3.427 -0.0530  0.6378  0.0342
  233MOL   C11533059   0.152   6.282   3.380  0.0400 -0.1956 -0.6659
  233MOL   O11633060   0.258   6.292   3.283  0.2141  0.0970  0.1475
  233MOL   H11733061   0.258   6.114   3.449  0.3095  0.0807 -2.1032
  233MOL   H11833062   0.144   6.083   3.332  1.6822  0.8450 -0.2623
  233MOL   H11933063   0.190   6.351   3.456 -1.5363  1.5519 -1.4621
  233MOL   H12033064   0.334   6.278   3.338 -0.7224 -1.3580  1.1369
  233MOL   C12133065   0.017   6.345   3.331 -0.3937  0.6544  0.1119
  233MOL   C12233066   7.473   6.448   3.421  0.2959  0.5215 -0.3111
  233MOL   O12333067   7.373   6.497   3.344  0.4521  0.2159  1.0466
  233MOL   H12433068   0.037   6.403   3.240 -1.3904  1.0097  0.1137
  233MOL   H12533069   7.463   6.267   3.313 -0.2298  0.6314 -0.4866
  233MOL   H12633070   0.023   6.531   3.432 -0.2557  1.2303 -2.0345
  233MOL   H12733071   7.386   6.590   3.340 -1.7907  0.5668  0.8171
  233MOL   C12833072   7.411   6.394   3.557 -0.5945  0.2417  0.2163
  233MOL   C12933073   7.335   6.506   3.635  0.8622 -0.1460  0.3104
  233MOL   O13033074   7.274   6.447   3.745 -0.0197  0.0947 -0.4199
  233MOL   H13133075   7.349   6.305   3.546  1.9694 -1.7166  1.1473
  233MOL   H13233076   7.497   6.368   3.618 -2.9303 -0.3569  3.4162
  233MOL   H13333077   7.243   6.518   3.578  0.5596  0.3768  0.9109
  233MOL   H13433078   7.187   6.481   3.758 -0.2232 -1.2273  1.9257
  233MOL   C13533079   7.405   6.631   3.673  0.0514  0.0553  0.6214
  233MOL   C13633080   7.312   6.744   3.714  0.2955  0.2017 -0.1620
  233MOL   O13733081   7.387   6.857   3.732 -0.8112  1.0963  1.0135
  233MOL   H13833082   7.482   6.613   3.748  0.4147  2.0686  0.7800
  233MOL   H13933083   7.452   6.662   3.580 -2.5572 -1.6616 -1.3281
  233MOL   H14033084   7.267   6.706   3.806  2.3513 -2.5290 -0.2207
  233MOL   H14133085   7.363   6.919   3.666 -1.2616  0.5934  0.6983
  233MOL   H14233086   7.232   6.751   3.641  0.3900 -0.8363 -0.3716
  234MOL     C133087   0.481   2.111   2.991 -0.0816  0.0582  0.1698
  234MOL     C233088   0.425   1.974   2.958 -0.1274 -0.0115 -0.6961
  234MOL     O333089   0.296   1.992   2.897  0.0708 -0.0167  0.2462
  234MOL     H433090   0.560   2.092   3.064  0.5614  0.6965 -0.3567
  234MOL     H533091   0.401   2.170   3.035 -1.2477  0.5056 -2.4472
  234MOL     H633092   0.401   1.923   3.052  0.7231  1.4207  0.3115
  234MOL     H733093   0.243   2.019   2.970 -0.4221  1.3147 -0.5843
  234MOL     H833094   0.515   2.166   2.903 -0.1976 -1.4719 -0.8503
  234MOL     C933095   0.514   1.880   2.872  0.5144 -0.5340  0.0260
  234MOL    C1033096   0.652   1.834   2.921  0.1791 -0.1876  0.0546
  234MOL    O1133097   0.684   1.718   2.851 -0.4327  0.0002 -0.1658
  234MOL    H1233098   0.453   1.791   2.857 -1.4094  0.7945 -0.2895
  234MOL    H1333099   0.530   1.933   2.778  0.5670  0.5801  0.6469
  234MOL    H1433100   0.654   1.821   3.029 -0.4931 -0.2104  0.0704
  234MOL    H1533101   0.778   1.716   2.840 -0.5492  0.8681 -1.5295
  234MOL    C1633102   0.756   1.946   2.893  0.6832  0.1650 -0.2827
  234MOL    C1733103   0.898   1.928   2.933 -0.7545  0.5207 -0.1389
  234MOL    O1833104   0.943   1.821   2.854  0.3150  0.0499  0.0106
  234MOL    H1933105   0.740   1.982   2.791  1.3882 -0.9606 -0.7982
  234MOL    H2033106   0.728   2.029   2.958  0.1477 -0.0294 -0.2641
  234MOL    H2133107   0.913   1.892   3.035  0.9430 -0.9264 -0.8777
  234MOL    H2233108   1.028   1.848   2.822 -0.4878  2.2107 -0.3352
  234MOL    C2333109   0.985   2.053   2.891  0.3120  0.4887  0.6434
  234MOL    C2433110   1.130   2.030   2.928  0.4832  0.0405 -0.3130
  234MOL    O2533111   1.198   1.938   2.850 -0.0578 -0.2689 -0.1488
  234MOL    H2633112   0.963   2.085   2.789  0.6969 -2.3705 -0.3627
  234MOL    H2733113   0.948   2.143   2.941  1.9420  1.0418  0.8843
  234MOL    H2833114   1.137   1.986   3.028 -0.3994  1.7161  0.5088
  234MOL    H2933115   1.274   1.905   2.896  0.8213 -0.8708 -1.9697
  234MOL    C3033116   1.213   2.162   2.919  0.1430 -0.1168 -0.0099
  234MOL    C3133117   1.200   2.250   2.791 -0.0833 -0.2294 -0.2165
  234MOL    O3233118   1.281   2.363   2.821 -0.1269 -0.8468 -0.2861
  234MOL    H3333119   1.193   2.219   3.009  0.8002 -0.3692  0.2989
  234MOL    H3433120   1.319   2.142   2.930  0.3009 -0.8664 -2.5660
  234MOL    H3533121   1.101   2.291   2.770 -0.2957 -0.3964  0.4342
  234MOL    H3633122   1.363   2.331   2.855 -0.2031 -0.4488  0.2823
  234MOL    C3733123   1.258   2.194   2.659 -0.2847  0.3894  0.0317
  234MOL    C3833124   1.161   2.100   2.575 -0.8455 -0.1424  0.0735
  234MOL    O3933125   1.084   2.180   2.487 -0.0700  0.4810  0.0739
  234MOL    H4033126   1.297   2.276   2.598 -1.6005  0.0960 -1.2347
  234MOL    H4133127   1.342   2.130   2.688 -2.2295 -1.4366  1.7444
  234MOL    H4233128   1.094   2.035   2.633 -0.7745 -1.5726 -1.3948
  234MOL    H4333129   1.126   2.262   2.470  1.0839  0.2796  1.8373
  234MOL    C4433130   1.247   2.002   2.488  0.0037  0.0757  0.1682
  234MOL    C4533131   1.170   1.902   2.402  0.5434  0.5231  0.1972
  234MOL    O4633132   1.267   1.819   2.345 -0.0707  0.0920  0.4029
  234MOL    H4733133   1.321   2.065   2.438 -1.4953  0.6732 -1.3710
  234MOL    H4833134   1.303   1.953   2.568  0.0051 -0.3431 -0.0857
  234MOL    H4933135   1.117   1.951   2.320  1.3854  1.4316  0.1901
  234MOL    H5033136   1.236   1.730   2.342  0.4239 -0.0592 -0.3929
  234MOL    C5133137   1.077   1.807   2.483  0.6067 -0.4782  0.0418
  234MOL    C5233138   1.012   1.690   2.401  0.1311 -0.2987  0.3985
  234MOL    O5333139   1.107   1.580   2.387 -0.1988 -0.1150 -0.3287
  234MOL    H5433140   1.121   1.784   2.580  0.2154  1.1243  0.6167
  234MOL    H5533141   0.986   1.866   2.494  0.9640  0.2220 -0.7339
  234MOL    H5633142   0.975   1.732   2.307 -0.5952  2.1212  1.7367
  234MOL    H5733143   1.051   1.504   2.378  0.4020 -0.6897  0.7965
  234MOL    C5833144   0.891   1.625   2.478 -0.2365 -0.4817  0.1144
  234MOL    C5933145   0.821   1.508   2.395 -0.0296 -1.0471 -0.3314
  234MOL    O6033146   0.908   1.396   2.377  0.1451  0.0662  0.5086
  234MOL    H6133147   0.916   1.574   2.571 -0.5641 -1.6873 -0.4446
  234MOL    H6233148   0.823   1.703   2.512 -1.7522 -0.5800 -2.5845
  234MOL    H6333149   0.800   1.535   2.291  1.9863  1.5251 -0.1359
  234MOL    H6433150   0.931   1.366   2.463 -1.1666 -0.9126  0.5319
  234MOL    C6533151   0.687   1.456   2.460  0.4707  0.1022  0.0726
  234MOL    C6633152   0.570   1.425   2.365 -0.3027  0.1553 -0.4028
  234MOL    O6733153   0.471   1.377   2.444  0.1315  0.1406  0.2304
  234MOL    H6833154   0.710   1.370   2.523  0.4353 -0.7027 -1.0136
  234MOL    H6933155   0.647   1.533   2.527 -2.4247 -0.1532 -1.2707
  234MOL    H7033156   0.602   1.345   2.298 -0.0524 -0.6012  0.6062
  234MOL    H7133157   0.405   1.340   2.388  0.3153  0.5338 -0.2526
  234MOL    C7233158   0.515   1.545   2.279 -0.3295 -0.8519  0.1532
  234MOL    C7333159   0.470   1.675   2.351  0.2918 -0.6728 -0.3066
  234MOL    O7433160   0.466   1.782   2.255  0.0311  0.6123  0.3468
  234MOL    H7533161   0.602   1.569   2.218 -0.6868  2.4280  0.8457
  234MOL    H7633162   0.437   1.523   2.205 -0.8144 -0.3709  0.5204
  234MOL    H7733163   0.548   1.687   2.426  0.7841  0.5927 -1.0169
  234MOL    H7833164   0.435   1.857   2.303  0.2529  0.9089  0.0227
  234MOL    C7933165   0.337   1.666   2.435  0.5243 -0.5866 -0.3045
  234MOL    C8033166   0.295   1.785   2.519 -0.1159 -0.4415 -0.3808
  234MOL    O8133167   0.300   1.902   2.442 -0.7924  0.3264 -0.2826
  234MOL    H8233168   0.265   1.638   2.359  1.0541 -4.5077  0.5115
  234MOL    H8333169   0.343   1.578   2.499  0.8900  0.7144  1.4951
  234MOL    H8433170   0.370   1.806   2.595 -0.2896  2.0615 -0.8696
  234MOL    H8533171   0.288   1.979   2.496 -0.0080  0.6956 -0.6334
  234MOL    C8633172   0.151   1.766   2.575 -0.0740 -0.3438  0.5291
  234MOL    C8733173   0.136   1.724   2.722  0.7310  0.1324 -0.4526
  234MOL    O8833174   7.518   1.697   2.749  0.6002  0.0578 -0.0550
  234MOL    H8933175   0.095   1.858   2.565 -0.4838 -0.7005 -0.6766
  234MOL    H9033176   0.098   1.692   2.514 -0.0123 -0.0319  0.0946
  234MOL    H9133177   0.164   1.815   2.775  1.2823 -1.1063  1.4033
  234MOL    H9233178   7.516   1.644   2.827  2.0645 -0.7440 -0.5366
  234MOL    C9333179   0.210   1.599   2.760 -0.3871 -0.4930 -0.4156
  234MOL    C9433180   0.219   1.581   2.909 -0.3761  0.1388  0.0348
  234MOL    O9533181   0.088   1.542   2.947 -0.5515 -0.3462 -0.4136
  234MOL    H9633182   0.175   1.516   2.700 -0.1037  0.0767 -1.3802
  234MOL    H9733183   0.314   1.617   2.733 -0.3943 -0.8018 -0.6437
  234MOL    H9833184   0.257   1.666   2.966  0.3153  0.2246 -0.5518
  234MOL    H9933185   0.079   1.578   3.034  0.9447  0.4836 -0.5975
  234MOL   C10033186   0.310   1.457   2.935 -0.4540  0.2317  0.2694
  234MOL   C10133187   0.463   1.478   2.919 -0.4691  0.3320 -0.7852
  234MOL   O10233188   0.494   1.577   3.015 -0.9428 -0.3612  0.2442
  234MOL   H10333189   0.285   1.438   3.039  2.4094  2.9106  1.5254
  234MOL   H10433190   0.263   1.373   2.884  0.5472  0.3629 -0.9164
  234MOL   H10533191   0.498   1.508   2.820  1.1577 -0.6521 -0.5079
  234MOL   H10633192   0.566   1.630   2.985 -0.2835 -0.2049  2.0828
  234MOL   C10733193   0.538   1.352   2.963  0.1677  0.6266 -0.1815
  234MOL   C10833194   0.695   1.351   2.952  0.3275 -0.3851 -0.3175
  234MOL   O10933195   0.735   1.238   3.023  0.6971 -0.0397  0.1778
  234MOL   H11033196   0.517   1.321   3.066  0.0108 -0.6688 -0.5953
  234MOL   H11133197   0.494   1.277   2.898 -0.4410  0.1820  0.7232
  234MOL   H11233198   0.744   1.436   2.999 -0.5634 -0.1263  0.1583
  234MOL   H11333199   0.696   1.242   3.110  2.2116 -0.6350  0.9041
  234MOL   C11433200   0.756   1.338   2.811  0.9503 -0.5498 -0.3033
  234MOL   C11533201   0.906   1.336   2.795 -1.0097 -0.1245  0.2997
  234MOL   O11633202   0.943   1.311   2.654  0.0572 -0.3333  0.3730
  234MOL   H11733203   0.709   1.262   2.749 -2.2091 -1.2414  2.7640
  234MOL   H11833204   0.723   1.426   2.756 -1.4891 -1.1023  0.2151
  234MOL   H11933205   0.942   1.251   2.853 -3.9485  0.1757  2.7387
  234MOL   H12033206   0.911   1.226   2.629 -2.8587  0.9621 -0.5149
  234MOL   C12133207   0.979   1.461   2.848  0.3324 -0.0302  0.0211
  234MOL   C12233208   1.130   1.452   2.864 -0.4560  0.2298 -0.0058
  234MOL   O12333209   1.196   1.439   2.739 -0.0908 -0.7071 -0.2912
  234MOL   H12433210   0.961   1.551   2.790 -0.8591 -0.7903 -0.8020
  234MOL   H12533211   0.937   1.497   2.942 -0.3694 -0.9649  0.0708
  234MOL   H12633212   1.166   1.355   2.899 -2.5021 -1.0227 -1.2609
  234MOL   H12733213   1.130   1.405   2.679 -1.6889  0.6136  0.6609
  234MOL   C12833214   1.191   1.564   2.941 -0.5806  0.6607 -0.1379
  234MOL   C12933215   1.207   1.542   3.092  0.2409  0.3726 -0.6193
  234MOL   O13033216   1.342   1.562   3.119 -0.0250 -0.3041  0.3538
  234MOL   H13133217   1.292   1.576   2.900 -1.2714  0.4161 -1.9573
  234MOL   H13233218   1.137   1.658   2.929 -2.1061 -0.3328 -1.2376
  234MOL   H13333219   1.198   1.436   3.117  0.9237  0.2452 -0.9087
  234MOL   H13433220   1.372   1.642   3.080 -1.1672 -0.7865 -1.5795
  234MOL   C13533221   1.136   1.635   3.195 -0.3728 -0.1776  0.0782
  234MOL   C13633222   0.987   1.629   3.200  0.1286 -0.2608 -0.0081
  234MOL   O13733223   0.950   1.656   3.331  0.5297  0.4189 -0.7502
  234MOL   H13833224   1.176   1.605   3.292 -2.3292  0.8701  1.2439
  234MOL   H13933225   1.171   1.738   3.184 -1.5691 -0.0799 -3.2504
  234MOL   H14033226   0.970   1.522   3.186 -0.5434  0.1566 -2.6025
  234MOL   H14133227   0.865   1.699   3.328 -0.6685 -1.9005 -1.0807
  234MOL   H14233228   0.930   1.679   3.122  0.1890  1.0300  0.7670
  235MOL     C133229   4.659   1.783   7.086  0.7208 -0.2420  0.6486
  235MOL     C233230   4.700   1.890   7.191 -0.2414  0.1762  0.3694
  235MOL     O333231   4.843   1.888   7.205 -0.0314  0.5105  0.1124
  235MOL     H433232   4.675   1.816   6.984  0.1209 -1.4529  0.1530
  235MOL     H533233   4.552   1.762   7.091  0.4734  1.0218  0.8430
  235MOL     H633234   4.653   1.866   7.287 -3.6553  0.9205 -1.0699
  235MOL     H733235   4.856   1.940   7.283  0.5346 -0.8941  0.9635
  235MOL     H833236   4.722   1.695   7.100  0.6560 -0.6120 -1.3394
  235MOL     C933237   4.659   2.034   7.161 -0.1930  0.2793  0.3796
  235MOL    C1033238   4.508   2.054   7.149 -0.1993 -0.1181 -0.7957
  235MOL    O1133239   4.468   2.182   7.193  0.0442  0.4712 -0.4343
  235MOL    H1233240   4.705   2.098   7.237 -0.7582  0.6939  0.3699
  235MOL    H1333241   4.702   2.063   7.065 -0.1161  1.6207  0.8017
  235MOL    H1433242   4.467   1.975   7.213 -0.1443  0.7276  0.3049
  235MOL    H1533243   4.392   2.164   7.246  0.7115 -1.5494 -0.1106
  235MOL    C1633244   4.459   2.042   7.008 -0.8152 -0.3865  0.5554
  235MOL    C1733245   4.301   2.037   6.979 -0.2823  0.7268  0.7242
  235MOL    O1833246   4.270   2.064   6.847 -0.1127  0.1844  0.1207
  235MOL    H1933247   4.505   2.127   6.957 -1.8465 -0.4153 -0.4551
  235MOL    H2033248   4.501   1.957   6.954  0.1208  0.9918 -0.9805
  235MOL    H2133249   4.248   2.119   7.029 -2.1789  0.1127 -0.2058
  235MOL    H2233250   4.317   2.146   6.839  0.4716 -0.1830 -0.3213
  235MOL    C2333251   4.220   1.913   7.018  0.2004 -0.1829  0.1543
  235MOL    C2433252   4.176   1.907   7.165 -0.4215 -0.2733  0.1556
  235MOL    O2533253   4.061   1.985   7.182 -0.1720  0.2924 -0.0088
  235MOL    H2633254   4.139   1.891   6.948  0.2201 -1.8246  0.6375
  235MOL    H2733255   4.284   1.828   6.996  1.4668  0.9053 -0.4257
  235MOL    H2833256   4.255   1.944   7.229 -2.2670 -1.6514  3.3252
  235MOL    H2933257   4.013   1.976   7.102  2.3631  0.8046 -1.6534
  235MOL    C3033258   4.144   1.765   7.219 -0.6835 -0.0511  0.4604
  235MOL    C3133259   4.267   1.670   7.237  0.9400  0.6112  0.3304
  235MOL    O3233260   4.341   1.725   7.347  0.1316  0.0284  0.3115
  235MOL    H3333261   4.087   1.765   7.312  2.3479 -0.2704  2.3934
  235MOL    H3433262   4.077   1.710   7.152  0.3526 -0.2775 -0.4057
  235MOL    H3533263   4.321   1.674   7.143 -0.3425  0.4708 -0.4323
  235MOL    H3633264   4.391   1.652   7.380 -0.6071 -0.6676 -0.0746
  235MOL    C3733265   4.220   1.529   7.277 -0.1279  0.0694  0.6138
  235MOL    C3833266   4.328   1.419   7.250  0.2365 -0.2661  0.1554
  235MOL    O3933267   4.399   1.426   7.377 -0.2276 -0.0380 -0.2775
  235MOL    H4033268   4.170   1.528   7.374 -1.5222  0.2357 -0.0840
  235MOL    H4133269   4.139   1.509   7.206  1.7376  0.1096 -1.5792
  235MOL    H4233270   4.386   1.451   7.164 -1.3895 -4.1093 -2.4932
  235MOL    H4333271   4.480   1.380   7.360 -0.0068 -0.7814  2.5270
  235MOL    C4433272   4.266   1.282   7.227  0.8253 -0.3965 -0.1363
  235MOL    C4533273   4.364   1.180   7.184  0.1039  0.4622  0.0337
  235MOL    O4633274   4.289   1.063   7.171 -0.0836 -1.0243 -0.2889
  235MOL    H4733275   4.226   1.235   7.317 -0.6433  1.2202  0.0940
  235MOL    H4833276   4.186   1.293   7.154  1.4383 -1.5007 -0.9830
  235MOL    H4933277   4.442   1.164   7.259  2.1068  2.4023 -1.5589
  235MOL    H5033278   4.296   1.024   7.257  2.6835 -1.6835 -0.7446
  235MOL    C5133279   4.444   1.199   7.050 -0.4104  0.1413  0.7306
  235MOL    C5233280   4.565   1.106   7.019  0.3192  0.1207 -0.1357
  235MOL    O5333281   4.504   0.983   6.977  0.2696 -0.5035 -0.0940
  235MOL    H5433282   4.383   1.188   6.960 -2.0777  1.8242  1.6019
  235MOL    H5533283   4.481   1.302   7.047 -1.2868  0.4326 -1.0749
  235MOL    H5633284   4.627   1.085   7.106  1.6400  1.0323 -0.8377
  235MOL    H5733285   4.437   0.963   7.040 -3.2625 -1.1616 -3.9111
  235MOL    C5833286   4.654   1.173   6.913 -0.3209 -0.2336 -0.7373
  235MOL    C5933287   4.735   1.287   6.976 -0.5610 -1.0159  0.3687
  235MOL    O6033288   4.832   1.242   7.078  0.3384  0.0315 -0.2188
  235MOL    H6133289   4.714   1.088   6.879 -1.3067 -2.5524  3.0149
  235MOL    H6233290   4.597   1.195   6.823 -1.1229 -3.4251 -1.0785
  235MOL    H6333291   4.672   1.351   7.038  0.3936 -0.0982  0.4117
  235MOL    H6433292   4.869   1.161   7.047  0.3097 -0.1707  0.2667
  235MOL    C6533293   4.804   1.370   6.871 -0.1425  0.1007  0.1651
  235MOL    C6633294   4.727   1.498   6.826  0.1417  0.2651  0.2061
  235MOL    O6733295   4.815   1.567   6.739 -0.3132  0.8344 -0.2223
  235MOL    H6833296   4.895   1.413   6.912  1.7420 -1.2748 -2.4209
  235MOL    H6933297   4.828   1.301   6.791 -0.7582 -2.2624  1.9685
  235MOL    H7033298   4.702   1.554   6.915 -0.0675  1.2438 -0.4654
  235MOL    H7133299   4.759   1.636   6.705 -1.5076  1.4547  2.8240
  235MOL    C7233300   4.601   1.479   6.743  0.0626  0.3246  0.5512
  235MOL    C7333301   4.526   1.614   6.731  0.3504 -0.2385 -0.1648
  235MOL    O7433302   4.603   1.705   6.655 -0.0314 -0.1866  0.1831
  235MOL    H7533303   4.605   1.415   6.655 -3.0031  1.3032 -0.3421
  235MOL    H7633304   4.533   1.428   6.811 -0.2695  0.9326  0.6770
  235MOL    H7733305   4.515   1.647   6.834 -2.7489  1.4094 -0.9567
  235MOL    H7833306   4.550   1.731   6.581 -0.9373  0.8501  1.1844
  235MOL    C7933307   4.387   1.604   6.669  0.5690 -0.3409 -0.8168
  235MOL    C8033308   4.295   1.491   6.726 -0.7971 -0.0841 -0.2677
  235MOL    O8133309   4.279   1.516   6.867 -0.1877 -0.3966 -0.0433
  235MOL    H8233310   4.352   1.707   6.671 -0.1890 -0.5775 -1.9620
  235MOL    H8333311   4.411   1.585   6.565  2.1784  0.1978 -0.5590
  235MOL    H8433312   4.346   1.395   6.713 -0.2864  0.3084 -1.1386
  235MOL    H8533313   4.192   1.484   6.886  0.8723 -2.3374  1.7455
  235MOL    C8633314   4.159   1.481   6.651  0.6417  0.4781 -0.6005
  235MOL    C8733315   4.166   1.460   6.504  0.9315  0.0553  0.1117
  235MOL    O8833316   4.225   1.332   6.469 -0.2352 -0.0372  0.0466
  235MOL    H8933317   4.095   1.406   6.696  0.7256 -0.6212 -2.2996
  235MOL    H9033318   4.110   1.577   6.670 -2.8148 -1.2502 -0.5791
  235MOL    H9133319   4.212   1.546   6.456  0.5098  0.5131  0.5161
  235MOL    H9233320   4.188   1.267   6.526  2.7093  0.4334  2.6032
  235MOL    C9333321   4.022   1.457   6.431  0.5858 -0.3129  0.0744
  235MOL    C9433322   3.967   1.592   6.385  0.1957 -0.4921  0.1012
  235MOL    O9533323   3.862   1.585   6.296  0.0803  0.1768 -0.6642
  235MOL    H9633324   4.042   1.398   6.341  1.5907  2.5872 -1.6706
  235MOL    H9733325   3.951   1.392   6.483  1.1133 -2.4140 -1.7243
  235MOL    H9833326   4.046   1.639   6.327  0.4290  0.2096  0.9688
  235MOL    H9933327   3.823   1.670   6.284 -0.2301  0.3510  1.2989
  235MOL   C10033328   3.920   1.688   6.489  0.0555  0.5374 -0.3588
  235MOL   C10133329   3.874   1.828   6.446 -0.4819 -0.0875 -0.1771
  235MOL   O10233330   3.758   1.826   6.370  0.0376 -0.7187  0.0661
  235MOL   H10333331   3.846   1.639   6.553  1.5392 -1.6789 -0.2954
  235MOL   H10433332   4.000   1.705   6.560  1.0146 -0.5719 -1.1598
  235MOL   H10533333   3.940   1.876   6.374  1.4879 -0.3459  1.4318
  235MOL   H10633334   3.747   1.910   6.329 -2.4104 -0.3550  1.4122
  235MOL   C10733335   3.851   1.924   6.561 -0.6831  0.0200 -0.1065
  235MOL   C10833336   3.947   1.920   6.678  0.9096 -0.3431 -0.0713
  235MOL   O10933337   4.081   1.932   6.634  0.2758  0.9271 -0.4637
  235MOL   H11033338   3.828   2.020   6.515  0.7183  0.4663  0.0945
  235MOL   H11133339   3.756   1.911   6.612 -0.0387  0.0821  1.1409
  235MOL   H11233340   3.921   1.830   6.734 -0.5500 -0.7695 -1.3777
  235MOL   H11333341   4.132   1.944   6.713 -0.3658 -0.5365  0.2049
  235MOL   C11433342   3.925   2.047   6.763  0.4923  0.5573 -0.3381
  235MOL   C11533343   3.825   2.021   6.876 -0.4790  0.1367 -0.6230
  235MOL   O11633344   3.887   1.933   6.968  0.5803 -0.4008  0.2242
  235MOL   H11733345   4.018   2.088   6.803  0.5522 -1.3086  1.5730
  235MOL   H11833346   3.882   2.125   6.701  0.6775  1.0578  0.1579
  235MOL   H11933347   3.739   1.966   6.838  1.0106 -0.5716 -3.0130
  235MOL   H12033348   3.846   1.947   7.052  1.4544  2.9197  0.1421
  235MOL   C12133349   3.783   2.159   6.933  0.2846 -0.1451 -0.9233
  235MOL   C12233350   3.665   2.144   7.040 -0.5165  0.7351  0.1049
  235MOL   O12333351   3.721   2.162   7.165 -0.7471  0.5834 -0.2614
  235MOL   H12433352   3.869   2.198   6.988 -0.5818 -0.9093  1.0093
  235MOL   H12533353   3.759   2.232   6.856 -1.2126  0.7353  0.3465
  235MOL   H12633354   3.615   2.047   7.040 -2.1310  1.5433 -0.5024
  235MOL   H12733355   3.715   2.078   7.207  0.6306  0.8592  0.5289
  235MOL   C12833356   3.560   2.253   7.026  0.1252 -0.0463 -0.0373
  235MOL   C12933357   3.458   2.238   6.912  0.9969 -0.1877  0.7120
  235MOL   O13033358   3.380   2.124   6.936  0.0358  0.3004 -1.3339
  235MOL   H13133359   3.514   2.266   7.124  1.0740  1.8972  0.1824
  235MOL   H13233360   3.621   2.342   7.008 -0.9491  0.2839 -2.1620
  235MOL   H13333361   3.500   2.233   6.811 -1.1299  0.5681 -0.2337
  235MOL   H13433362   3.425   2.056   6.889 -0.0083 -2.2945  2.2122
  235MOL   C13533363   3.363   2.357   6.890  0.2382  0.6168 -0.2924
  235MOL   C13633364   3.439   2.483   6.840  0.3445 -0.0645 -0.4607
  235MOL   O13733365   3.349   2.591   6.829  0.0127  0.0349 -0.2787
  235MOL   H13833366   3.287   2.330   6.818 -1.8682  2.9530  0.9896
  235MOL   H13933367   3.329   2.374   6.992  0.5543  1.7544 -0.3665
  235MOL   H14033368   3.482   2.462   6.742 -2.0154 -0.9031 -1.3514
  235MOL   H14133369   3.285   2.571   6.762  0.7685 -0.4418 -0.8848
  235MOL   H14233370   3.523   2.506   6.905 -1.1143 -1.0024  1.8362
  236MOL     C133371   7.112   3.734   3.678 -0.0462 -0.6556  0.0074
  236MOL     C233372   7.004   3.633   3.642 -0.4871 -1.0343  0.5651
  236MOL     O333373   7.061   3.518   3.576  0.0271  1.0549 -0.7187
  236MOL     H433374   7.072   3.827   3.721  1.7788 -0.5945  1.6167
  236MOL     H533375   7.171   3.760   3.590  0.3294 -1.3376  0.0608
  236MOL     H633376   6.934   3.679   3.571  0.0475 -0.6050  0.3119
  236MOL     H733377   6.989   3.459   3.560  1.0095  0.1927 -2.1207
  236MOL     H833378   7.170   3.673   3.747 -1.2431 -2.1037 -0.2297
  236MOL     C933379   6.911   3.592   3.756  0.2117 -0.3299  0.5424
  236MOL    C1033380   6.967   3.527   3.890  0.0941 -0.2924 -0.0222
  236MOL    O1133381   6.871   3.521   3.987 -0.3110  0.4442  0.2590
  236MOL    H1233382   6.860   3.681   3.793  1.2382  0.8343 -0.7587
  236MOL    H1333383   6.832   3.529   3.716 -0.3050 -0.0389  1.1129
  236MOL    H1433384   7.047   3.590   3.929 -1.4051  1.7328 -0.1268
  236MOL    H1533385   6.917   3.528   4.069 -2.1934  0.4779  1.3373
  236MOL    C1633386   7.021   3.387   3.856 -0.0701  0.2026  0.0162
  236MOL    C1733387   7.100   3.319   3.977 -0.1035 -0.1874 -0.6617
  236MOL    O1833388   7.063   3.188   3.990 -0.3951  0.5115  0.0545
  236MOL    H1933389   6.943   3.320   3.821  0.7622 -0.7083 -0.1403
  236MOL    H2033390   7.084   3.377   3.767  0.8457  1.0339  0.5619
  236MOL    H2133391   7.084   3.367   4.073 -1.3697  0.3470 -1.1316
  236MOL    H2233392   7.088   3.146   3.909 -1.3071 -2.0375  1.0686
  236MOL    C2333393   7.251   3.319   3.946  0.3228 -0.0221 -0.4132
  236MOL    C2433394   7.327   3.448   3.960  0.3275 -0.1279  0.1298
  236MOL    O2533395   7.329   3.477   4.097 -0.3621 -0.2820  0.0645
  236MOL    H2633396   7.294   3.255   4.024  0.5792  0.6375  0.0010
  236MOL    H2733397   7.260   3.268   3.850 -2.1491 -0.3316 -0.5105
  236MOL    H2833398   7.281   3.532   3.907 -1.4666 -0.7482  0.6456
  236MOL    H2933399   7.356   3.396   4.135 -0.1129 -0.4806 -0.5337
  236MOL    C3033400   7.467   3.434   3.913  0.3672  0.1835 -0.2752
  236MOL    C3133401   0.018   3.566   3.895  0.1980 -0.2393  0.5825
  236MOL    O3233402   0.161   3.543   3.881  0.0452 -0.2885 -0.2785
  236MOL    H3333403   7.518   3.367   3.982 -0.9945 -1.6458 -1.0037
  236MOL    H3433404   7.481   3.381   3.819 -0.8642  0.5026 -0.6498
  236MOL    H3533405   0.004   3.627   3.984  1.7563 -0.4146  0.9606
  236MOL    H3633406   0.187   3.628   3.848 -0.2417  0.4231  1.3026
  236MOL    C3733407   7.505   3.632   3.761 -0.3815  0.1956 -0.0044
  236MOL    C3833408   0.011   3.785   3.761 -0.4942 -1.0050 -0.1931
  236MOL    O3933409   0.146   3.799   3.807  0.4759 -0.1986 -0.0339
  236MOL    H4033410   0.031   3.572   3.682  1.2482  0.2421  0.8701
  236MOL    H4133411   7.399   3.629   3.734 -0.4267  2.3546 -0.1223
  236MOL    H4233412   7.459   3.825   3.833  0.1986  0.4600 -0.3148
  236MOL    H4333413   0.164   3.892   3.809  2.6945 -0.5382 -1.7596
  236MOL    C4433414   7.507   3.845   3.618 -0.5215  0.1326 -0.9246
  236MOL    C4533415   0.015   3.999   3.606  0.1337  0.2027  0.2347
  236MOL    O4633416   0.154   4.016   3.604 -0.3227  0.2629  0.0324
  236MOL    H4733417   0.061   3.791   3.558  0.2590 -2.7343  2.4316
  236MOL    H4833418   7.407   3.819   3.584 -1.2736  2.2192 -0.3535
  236MOL    H4933419   7.486   4.048   3.691 -2.7751 -0.0268 -1.2083
  236MOL    H5033420   0.173   4.103   3.571 -0.6876 -0.3912 -2.0259
  236MOL    C5133421   7.471   4.074   3.479 -0.0218  0.3009  0.4152
  236MOL    C5233422   7.318   4.093   3.486  0.5094  0.6598  0.1299
  236MOL    O5333423   7.289   4.206   3.563 -0.5183 -0.0785  0.0799
  236MOL    H5433424   7.512   4.173   3.459 -2.4998  0.9835 -1.5708
  236MOL    H5533425   7.486   4.012   3.391 -0.9173  0.8489 -0.1300
  236MOL    H5633426   7.269   4.016   3.545  0.5150  1.1480  0.7661
  236MOL    H5733427   7.277   4.186   3.654 -0.3832 -0.4430  0.0169
  236MOL    C5833428   7.241   4.109   3.346 -0.6525  0.3052 -0.9423
  236MOL    C5933429   7.227   3.979   3.260 -0.6210 -0.4253 -0.3835
  236MOL    O6033430   7.121   3.901   3.312 -0.2741  0.1105 -0.6815
  236MOL    H6133431   7.138   4.135   3.369 -0.1336  0.9067  0.7202
  236MOL    H6233432   7.295   4.186   3.292  0.0381  0.3663 -0.1538
  236MOL    H6333433   7.319   3.923   3.281 -1.9581 -2.2336  0.8162
  236MOL    H6433434   7.155   3.813   3.314  2.1682  0.9739 -2.2589
  236MOL    C6533435   7.217   3.994   3.101 -1.3333  0.4622 -0.1387
  236MOL    C6633436   7.126   4.113   3.060 -0.6408  0.9005 -0.4864
  236MOL    O6733437   7.119   4.116   2.922  0.4728  0.5398  0.2187
  236MOL    H6833438   7.312   3.999   3.047 -1.3350 -1.0293 -0.3033
  236MOL    H6933439   7.173   3.901   3.065 -1.1151 -0.7730  2.6811
  236MOL    H7033440   7.178   4.202   3.097  1.5426 -0.8455  0.7664
  236MOL    H7133441   7.040   4.165   2.904  1.3781  1.4773 -1.3556
  236MOL    C7233442   6.976   4.085   3.097 -0.4681 -0.2394 -0.4106
  236MOL    C7333443   6.893   4.216   3.099  0.1856  0.2837 -0.5321
  236MOL    O7433444   6.853   4.247   2.962 -0.5656  0.7052 -0.1147
  236MOL    H7533445   6.930   4.007   3.036 -0.4414 -1.0250  0.5781
  236MOL    H7633446   6.978   4.027   3.189  2.6180 -1.2662 -1.0558
  236MOL    H7733447   6.949   4.295   3.148 -1.6102  0.6268  0.9891
  236MOL    H7833448   6.812   4.332   2.969 -1.1405  0.2284  2.6913
  236MOL    C7933449   6.760   4.194   3.185 -0.7876 -0.0106 -0.2591
  236MOL    C8033450   6.792   4.187   3.334 -0.1324 -0.2834 -0.0612
  236MOL    O8133451   6.838   4.316   3.369 -0.2164  0.1324  0.8094
  236MOL    H8233452   6.698   4.283   3.176 -2.1996 -0.9099  0.2857
  236MOL    H8333453   6.704   4.106   3.152 -0.9876 -1.0354  2.6807
  236MOL    H8433454   6.870   4.116   3.361 -1.3270 -0.8901  1.9530
  236MOL    H8533455   6.920   4.311   3.417 -0.5358  0.0570  1.3592
  236MOL    C8633456   6.660   4.165   3.418 -0.0733 -0.1272 -0.2088
  236MOL    C8733457   6.625   4.020   3.441 -0.3647  0.4103  0.3265
  236MOL    O8833458   6.729   3.957   3.506 -0.3434  0.5992 -0.2352
  236MOL    H8933459   6.667   4.204   3.519  1.4172 -1.1289  0.0762
  236MOL    H9033460   6.582   4.223   3.367 -1.5575 -0.3236  1.7991
  236MOL    H9133461   6.607   3.975   3.343  2.0999  0.0813 -0.0195
  236MOL    H9233462   6.752   3.885   3.450  0.8010  0.8664 -0.1110
  236MOL    C9333463   6.500   4.000   3.524  0.3524  0.1780  0.6011
  236MOL    C9433464   6.431   3.863   3.502  0.0428  0.6856  0.3255
  236MOL    O9533465   6.498   3.760   3.577 -0.3039  0.6843 -0.2368
  236MOL    H9633466   6.521   4.006   3.631  0.9848  3.6937  0.3279
  236MOL    H9733467   6.431   4.081   3.504 -0.6722 -1.1026 -1.2080
  236MOL    H9833468   6.441   3.842   3.396 -1.3421 -0.9637  0.5072
  236MOL    H9933469   6.511   3.785   3.668 -0.7153 -1.9281  0.5747
  236MOL   C10033470   6.276   3.873   3.527 -0.2539  0.1727 -0.4065
  236MOL   C10133471   6.202   3.941   3.405 -0.1518  0.5636 -0.7939
  236MOL   O10233472   6.204   3.854   3.299 -0.3292 -0.2759  0.3485
  236MOL   H10333473   6.229   3.777   3.547  2.7922 -1.1080  0.9149
  236MOL   H10433474   6.240   3.935   3.609 -2.5733 -0.1226 -1.1720
  236MOL   H10533475   6.261   4.026   3.368  0.8585  0.3016  0.1736
  236MOL   H10633476   6.132   3.882   3.244  0.3791 -0.3146 -0.6126
  236MOL   C10733477   6.054   3.981   3.439 -0.7536 -0.1371  0.2727
  236MOL   C10833478   5.986   4.097   3.363  0.4916 -0.5242 -0.6437
  236MOL   O10933479   5.988   4.057   3.229 -0.5639  0.3165 -0.2893
  236MOL   H11033480   5.975   3.907   3.455 -1.2008 -0.3498 -2.7530
  236MOL   H11133481   6.070   4.028   3.536 -1.2002 -0.6704  0.6079
  236MOL   H11233482   6.042   4.189   3.379  0.3122 -0.6853  0.9755
  236MOL   H11333483   5.979   4.138   3.181  1.0986  0.9526  0.4365
  236MOL   C11433484   5.836   4.111   3.408 -0.3593 -0.1968  0.2475
  236MOL   C11533485   5.821   4.194   3.536 -0.1362  0.1994  0.2698
  236MOL   O11633486   5.690   4.244   3.514 -0.5043 -0.2677 -0.0239
  236MOL   H11733487   5.803   4.180   3.331 -0.4592 -0.6618 -0.1295
  236MOL   H11833488   5.773   4.022   3.405  0.4759 -0.8304  0.8993
  236MOL   H11933489   5.893   4.275   3.546 -0.2043  0.0972  1.6404
  236MOL   H12033490   5.678   4.313   3.577  1.8232 -0.1257  0.3173
  236MOL   C12133491   5.819   4.105   3.667 -0.1973 -0.5907  0.0311
  236MOL   C12233492   5.871   4.179   3.797  0.8236 -0.2864  0.5375
  236MOL   O12333493   5.845   4.098   3.908  0.0955  0.4511  0.1921
  236MOL   H12433494   5.715   4.078   3.685 -0.2723 -1.6560 -1.8870
  236MOL   H12533495   5.859   4.005   3.653 -1.1720 -0.6227 -2.7829
  236MOL   H12633496   5.819   4.273   3.816 -0.6609 -1.3644  2.0008
  236MOL   H12733497   5.905   4.125   3.976 -0.5923  1.8323  0.2552
  236MOL   C12833498   6.019   4.209   3.796  0.1614  0.0245  0.7687
  236MOL   C12933499   6.075   4.292   3.911 -0.7740 -0.1606 -0.1770
  236MOL   O13033500   6.038   4.233   4.028  0.2068  0.1481  0.1048
  236MOL   H13133501   6.066   4.111   3.792  1.4387  0.6003  1.3312
  236MOL   H13233502   6.033   4.255   3.699  0.1001 -2.6598 -0.5527
  236MOL   H13333503   6.028   4.390   3.914  1.3976  0.9440 -1.7098
  236MOL   H13433504   6.027   4.299   4.094 -1.6893 -0.1233  0.0986
  236MOL   C13533505   6.231   4.297   3.903 -0.2814 -0.2939 -0.4808
  236MOL   C13633506   6.293   4.401   4.000 -0.7374  0.3034  0.4025
  236MOL   O13733507   6.432   4.386   3.987 -0.4469 -0.1221  0.4154
  236MOL   H13833508   6.273   4.197   3.910 -0.4181 -0.3903 -1.0366
  236MOL   H13933509   6.257   4.323   3.800 -2.1964 -0.2305 -0.9576
  236MOL   H14033510   6.265   4.374   4.102 -0.1200  0.7214  0.6850
  236MOL   H14133511   6.459   4.426   4.069  0.9210  2.9508 -1.4498
  236MOL   H14233512   6.264   4.505   3.988 -0.2959  0.3170 -0.5830
  237MOL     C133513   3.249   5.848   6.351  0.2127 -0.0561 -0.0902
  237MOL     C233514   3.309   5.715   6.401  0.7463 -0.7743 -0.0624
  237MOL     O333515   3.393   5.670   6.295  0.3685 -0.4082 -0.2501
  237MOL     H433516   3.320   5.925   6.322 -0.3129  0.3162 -0.3997
  237MOL     H533517   3.173   5.896   6.413  0.0631  0.9442 -1.0265
  237MOL     H633518   3.230   5.642   6.419 -1.9746  1.8460 -0.8987
  237MOL     H733519   3.333   5.648   6.225  2.0937  0.0722 -1.9441
  237MOL     H833520   3.203   5.822   6.255 -2.6776 -1.7072  1.6573
  237MOL     C933521   3.396   5.730   6.521 -0.1113  0.1168 -0.8955
  237MOL    C1033522   3.331   5.720   6.660 -0.3443 -0.1869 -0.1978
  237MOL    O1133523   3.444   5.712   6.752  0.3330 -0.2742 -0.2231
  237MOL    H1233524   3.476   5.657   6.520  1.5495  1.8671  0.9107
  237MOL    H1333525   3.441   5.829   6.527 -0.7470  0.3778 -0.3808
  237MOL    H1433526   3.269   5.631   6.667  0.5894 -0.7306  1.4419
  237MOL    H1533527   3.413   5.738   6.837  1.5727 -1.0321  0.4764
  237MOL    C1633528   3.248   5.841   6.708  0.9726 -0.1676 -0.6550
  237MOL    C1733529   3.186   5.830   6.855 -0.6760 -0.2421  0.3015
  237MOL    O1833530   3.283   5.800   6.953  0.2383  0.2678  0.0466
  237MOL    H1933531   3.305   5.933   6.698  1.4952 -0.2129  1.7139
  237MOL    H2033532   3.172   5.851   6.631 -0.7107 -0.4118  0.9333
  237MOL    H2133533   3.109   5.753   6.862 -0.4207 -0.5068  0.1932
  237MOL    H2233534   3.251   5.740   7.018  1.0236  0.5548  0.7083
  237MOL    C2333535   3.116   5.956   6.902 -0.3438 -0.7549 -0.2887
  237MOL    C2433536   2.986   5.985   6.816 -0.3637  0.1572  0.0458
  237MOL    O2533537   2.888   5.896   6.867 -0.1430  0.1953 -0.0810
  237MOL    H2633538   3.101   5.952   7.010  0.5561  3.1614  0.0672
  237MOL    H2733539   3.186   6.039   6.890 -1.0400 -0.5683 -3.3449
  237MOL    H2833540   3.008   5.950   6.715  1.2274  0.1923  0.3558
  237MOL    H2933541   2.881   5.825   6.805 -0.7614 -0.3838  0.6482
  237MOL    C3033542   2.931   6.129   6.801  0.6001  0.1353  0.3485
  237MOL    C3133543   3.009   6.209   6.698  0.1096  0.2140  0.1751
  237MOL    O3233544   2.977   6.163   6.568 -0.3781  0.4941 -0.5974
  237MOL    H3333545   2.825   6.125   6.776  1.0788  0.0525 -1.7518
  237MOL    H3433546   2.934   6.166   6.904 -2.4653 -0.2045  0.6063
  237MOL    H3533547   3.112   6.190   6.727  0.2686  0.0996 -0.4640
  237MOL    H3633548   3.045   6.186   6.507  0.8378 -3.1113 -0.7293
  237MOL    C3733549   2.987   6.360   6.697 -0.1110 -0.5334  0.4508
  237MOL    C3833550   3.029   6.424   6.832 -0.0640  0.2088  0.6237
  237MOL    O3933551   3.163   6.393   6.854  0.3949  0.9184  0.3870
  237MOL    H4033552   3.040   6.394   6.608  1.2172 -4.5741 -0.4134
  237MOL    H4133553   2.882   6.382   6.677 -0.4203 -1.0030  1.5268
  237MOL    H4233554   2.975   6.390   6.921 -1.1868 -1.3274 -0.6119
  237MOL    H4333555   3.201   6.472   6.891  2.8556 -0.5114  1.0222
  237MOL    C4433556   3.010   6.573   6.820  0.3998 -0.8461 -0.8659
  237MOL    C4533557   3.028   6.657   6.950  0.0505  0.5424  0.6084
  237MOL    O4633558   3.174   6.650   6.959  0.2785  0.4697 -0.1216
  237MOL    H4733559   3.069   6.610   6.736  0.2022 -1.0999 -1.1163
  237MOL    H4833560   2.909   6.595   6.786  0.5146  0.1687 -0.5754
  237MOL    H4933561   2.991   6.602   7.037  2.1349 -0.8156  0.6523
  237MOL    H5033562   3.195   6.646   7.051 -0.6125  2.5020  0.1918
  237MOL    C5133563   2.980   6.803   6.939 -0.1187  0.3751 -0.7502
  237MOL    C5233564   2.854   6.834   7.024 -0.1371 -0.0669 -0.0857
  237MOL    O5333565   2.835   6.974   6.997  0.6213 -0.4513 -0.3731
  237MOL    H5433566   3.056   6.864   6.988 -1.1593  0.5048  0.7300
  237MOL    H5533567   2.969   6.841   6.837 -0.8532  1.6918 -0.1906
  237MOL    H5633568   2.873   6.821   7.130  0.2221  0.4802 -0.0818
  237MOL    H5733569   2.755   7.008   7.035  1.0798 -1.0705  1.1768
  237MOL    C5833570   2.726   6.762   6.974 -0.4736 -0.4861 -0.8309
  237MOL    C5933571   2.690   6.628   7.044  0.5337 -0.3718  0.6331
  237MOL    O6033572   2.657   6.661   7.185 -0.3944 -0.4958 -0.0766
  237MOL    H6133573   2.639   6.829   6.977 -0.1753 -0.1297  0.5668
  237MOL    H6233574   2.755   6.754   6.870 -0.2966  0.3078 -0.8448
  237MOL    H6333575   2.775   6.560   7.040 -1.0854 -2.3877 -0.6774
  237MOL    H6433576   2.696   6.593   7.237  1.5882 -0.4315 -1.4111
  237MOL    C6533577   2.573   6.558   6.982  0.4849 -0.0499  0.4746
  237MOL    C6633578   2.613   6.475   6.851 -0.4233 -0.0928  0.1671
  237MOL    O6733579   2.694   6.369   6.894  0.2040  0.3362 -0.5237
  237MOL    H6833580   2.509   6.504   7.051 -3.9432  0.9800 -2.6028
  237MOL    H6933581   2.511   6.645   6.962 -0.1245 -0.1470  1.8914
  237MOL    H7033582   2.672   6.537   6.783  2.3782 -0.6135  2.0369
  237MOL    H7133583   2.655   6.311   6.957 -2.4294  0.1092 -2.2565
  237MOL    C7233584   2.493   6.404   6.780 -0.4623  0.2118 -0.0986
  237MOL    C7333585   2.377   6.493   6.728  0.2849  0.2668  0.1259
  237MOL    O7433586   2.419   6.576   6.620 -0.3476  0.4865 -0.0279
  237MOL    H7533587   2.534   6.351   6.695 -0.7005 -1.3444  0.7332
  237MOL    H7633588   2.456   6.331   6.853  0.3904  0.0682  0.1924
  237MOL    H7733589   2.336   6.554   6.809  0.3291 -1.6530  1.6220
  237MOL    H7833590   2.424   6.515   6.548 -0.7678  0.4226 -0.0066
  237MOL    C7933591   2.261   6.403   6.684  0.4681 -0.2630 -0.3802
  237MOL    C8033592   2.119   6.463   6.706  0.1293 -0.6295  0.2969
  237MOL    O8133593   2.068   6.421   6.827 -0.0301 -0.2320 -0.1262
  237MOL    H8233594   2.269   6.379   6.579 -1.3092  0.5480 -0.7286
  237MOL    H8333595   2.275   6.304   6.728 -0.7421 -0.3941 -0.2659
  237MOL    H8433596   2.061   6.409   6.631 -0.6344  0.6686 -0.0587
  237MOL    H8533597   1.995   6.481   6.836  1.3799  1.3671  1.0923
  237MOL    C8633598   2.089   6.615   6.668  0.2541  0.1329  0.6604
  237MOL    C8733599   1.941   6.666   6.673  0.0849  0.0357 -0.0530
  237MOL    O8833600   1.889   6.646   6.806 -0.0941  0.0673  0.0184
  237MOL    H8933601   2.156   6.679   6.727  0.1689  0.0452  0.8525
  237MOL    H9033602   2.129   6.631   6.568 -2.2706  2.3348 -0.0759
  237MOL    H9133603   1.880   6.617   6.597 -1.9614  2.1149  0.2119
  237MOL    H9233604   1.929   6.708   6.865 -0.2596 -2.5256  2.9893
  237MOL    C9333605   1.935   6.819   6.651 -0.3309  0.0016  0.2906
  237MOL    C9433606   1.955   6.863   6.508  0.3707 -0.8053  0.1568
  237MOL    O9533607   1.864   6.799   6.416  0.2406  0.0275  0.0352
  237MOL    H9633608   1.838   6.852   6.688 -0.6009 -1.7220  1.1483
  237MOL    H9733609   2.014   6.868   6.708  0.0768 -1.4838  0.9999
  237MOL    H9833610   2.057   6.852   6.471  0.7259  0.5709  0.6585
  237MOL    H9933611   1.865   6.860   6.343 -0.0644  1.9907  1.6438
  237MOL   C10033612   1.919   7.013   6.487 -0.4758  0.2263  0.8450
  237MOL   C10133613   2.001   7.120   6.561  0.1968  0.3592 -0.1778
  237MOL   O10233614   2.135   7.126   6.511 -0.1920  0.6962 -0.0279
  237MOL   H10333615   1.909   7.037   6.381 -0.4948  0.4911  0.9062
  237MOL   H10433616   1.814   7.015   6.516 -1.0914 -0.9431 -1.2049
  237MOL   H10533617   2.001   7.101   6.668  1.6596  1.4031  0.0322
  237MOL   H10633618   2.132   7.155   6.421 -1.3348  4.0722  1.0181
  237MOL   C10733619   1.946   7.256   6.539 -0.4152 -0.6436 -0.4793
  237MOL   C10833620   2.001   7.358   6.637  0.2005  0.3900 -0.6781
  237MOL   O10933621   2.016   7.482   6.584  0.4587  0.1092 -0.4585
  237MOL   H11033622   1.969   7.290   6.438  1.0405  1.7690  0.6224
  237MOL   H11133623   1.837   7.266   6.543 -0.1995  2.3877 -0.9473
  237MOL   H11233624   2.104   7.336   6.663 -0.7830  1.6110  4.8600
  237MOL   H11333625   1.929   7.514   6.570  0.8225  0.9649 -0.8362
  237MOL   C11433626   1.912   7.364   6.759 -0.4549 -0.1087 -0.2719
  237MOL   C11533627   1.976   7.418   6.884 -0.3949 -0.4992 -0.3713
  237MOL   O11633628   1.869   7.411   6.980  0.1054 -0.0429  0.0841
  237MOL   H11733629   1.816   7.413   6.740 -0.8866 -0.3116  1.3346
  237MOL   H11833630   1.896   7.257   6.772 -1.9191 -0.1391 -2.0960
  237MOL   H11933631   2.017   7.518   6.870 -0.5606 -0.2349  0.9078
  237MOL   H12033632   1.902   7.444   7.062  0.9761  0.5353 -0.4794
  237MOL   C12133633   2.085   7.331   6.951  0.1766  0.9227  0.6684
  237MOL   C12233634   2.166   7.388   7.067 -0.2155 -0.5635  0.2515
  237MOL   O12333635   2.083   7.429   7.174  0.0511  0.3549  0.4935
  237MOL   H12433636   2.055   7.228   6.974 -1.0128  1.3264  0.9392
  237MOL   H12533637   2.164   7.301   6.881  0.9399 -0.0031  1.8959
  237MOL   H12633638   2.217   7.479   7.037  0.7708 -1.8850 -2.2943
  237MOL   H12733639   2.111   7.389   7.255 -1.3079  0.7920  1.2111
  237MOL   C12833640   2.271   7.285   7.113 -0.0123 -1.0367  0.1799
  237MOL   C12933641   2.374   7.239   7.015 -0.3585  0.6016  0.4310
  237MOL   O13033642   2.437   7.354   6.964  0.0292  0.1985  0.6378
  237MOL   H13133643   2.330   7.313   7.200  3.9730 -3.2717 -1.6262
  237MOL   H13233644   2.214   7.197   7.143  0.4635 -1.1038  0.9006
  237MOL   H13333645   2.329   7.185   6.931  0.6504  1.6775 -0.8255
  237MOL   H13433646   2.399   7.370   6.878 -3.3931 -1.7617  1.6702
  237MOL   C13533647   2.467   7.129   7.058  0.3041 -0.0856  0.1664
  237MOL   C13633648   2.550   7.146   7.188  0.3234 -0.0338 -0.8046
  237MOL   O13733649   2.626   7.024   7.196 -0.3750  0.0216  0.3996
  237MOL   H13833650   2.407   7.038   7.061 -1.3346  0.9745  0.3850
  237MOL   H13933651   2.549   7.124   6.987 -0.9042  2.3536 -1.5057
  237MOL   H14033652   2.498   7.144   7.284  2.1548 -0.1569  0.2220
  237MOL   H14133653   2.564   6.954   7.209  0.6372 -0.8066  0.8502
  237MOL   H14233654   2.626   7.225   7.194  0.7188 -0.4328 -0.5587
  238MOL     C133655   2.028   5.501   0.587 -0.4053  0.2792  0.5259
  238MOL     C233656   1.923   5.439   0.492 -0.4512  0.4211 -0.7964
  238MOL     O333657   1.823   5.407   0.591  0.3893 -0.4664 -0.4932
  238MOL     H433658   2.123   5.518   0.536 -0.7107  1.4306  0.3272
  238MOL     H533659   2.049   5.432   0.668  0.6230  0.8435  0.7396
  238MOL     H633660   1.959   5.343   0.456 -3.1708 -0.5253 -1.0844
  238MOL     H733661   1.774   5.333   0.558 -2.4134  0.6037  1.1078
  238MOL     H833662   2.005   5.595   0.636 -1.1558  1.2112 -1.5445
  238MOL     C933663   1.880   5.547   0.401  0.2478  0.4266  0.9661
  238MOL    C1033664   1.968   5.560   0.277  0.5170  0.3443  0.0055
  238MOL    O1133665   1.943   5.449   0.193 -0.5575 -0.0832 -0.2986
  238MOL    H1233666   1.776   5.536   0.369  0.3112 -1.3829  1.3490
  238MOL    H1333667   1.895   5.641   0.454 -0.5481  0.7070  0.7094
  238MOL    H1433668   2.073   5.557   0.307  0.4761  2.1765  0.3799
  238MOL    H1533669   1.985   5.375   0.234 -2.4878 -1.4402 -0.7449
  238MOL    C1633670   1.943   5.682   0.193 -0.1240 -0.4649  0.3837
  238MOL    C1733671   1.990   5.820   0.248  0.0164  0.6523  0.3420
  238MOL    O1833672   2.130   5.829   0.261 -0.9772 -0.0519 -0.0847
  238MOL    H1933673   1.992   5.664   0.097 -0.3476 -0.2356  0.2253
  238MOL    H2033674   1.837   5.686   0.168  0.7310  3.5839 -3.1927
  238MOL    H2133675   1.952   5.827   0.350 -0.6566  2.4360 -0.0182
  238MOL    H2233676   2.145   5.828   0.354 -0.8252 -0.2406 -0.1122
  238MOL    C2333677   1.932   5.924   0.150  0.6109  0.0054  0.4025
  238MOL    C2433678   1.862   6.043   0.212  0.3473  0.3401  0.1798
  238MOL    O2533679   1.737   6.005   0.264 -0.2021  0.3697 -0.2639
  238MOL    H2633680   2.015   5.957   0.089  0.5342 -2.1059 -0.8843
  238MOL    H2733681   1.859   5.879   0.083  0.9114  1.0801 -0.6574
  238MOL    H2833682   1.842   6.108   0.126  0.3002  0.2941  0.1557
  238MOL    H2933683   1.676   5.984   0.195  1.0761  1.6351 -1.8227
  238MOL    C3033684   1.938   6.136   0.313 -0.1768 -0.4131  0.3590
  238MOL    C3133685   2.039   6.246   0.256  0.5140 -0.2581 -0.1696
  238MOL    O3233686   1.965   6.341   0.181 -0.3613  0.3726 -0.2365
  238MOL    H3333687   1.875   6.192   0.382 -0.6340 -1.2086  0.5802
  238MOL    H3433688   1.980   6.071   0.389  1.0025  1.0807  1.0285
  238MOL    H3533689   2.105   6.192   0.188 -0.0178  0.1122 -0.9893
  238MOL    H3633690   1.902   6.377   0.241 -0.3994 -1.2581  0.7341
  238MOL    C3733691   2.123   6.311   0.358 -0.2888  0.1405  0.7572
  238MOL    C3833692   2.240   6.220   0.417 -0.6960  0.5760  0.8994
  238MOL    O3933693   2.343   6.186   0.322 -0.4321  0.0302  0.4248
  238MOL    H4033694   2.148   6.406   0.312  0.1173 -0.3300 -0.0088
  238MOL    H4133695   2.054   6.342   0.437 -0.1684  1.3835  0.3858
  238MOL    H4233696   2.196   6.126   0.450 -0.9074  1.4932  3.3444
  238MOL    H4333697   2.370   6.257   0.266 -0.7530 -1.3654 -1.5582
  238MOL    C4433698   2.314   6.285   0.537 -0.3813 -0.6338  0.7379
  238MOL    C4533699   2.234   6.315   0.665 -0.2963 -0.0808  0.3896
  238MOL    O4633700   2.125   6.224   0.681 -0.1706  0.0901  0.1020
  238MOL    H4733701   2.403   6.224   0.552  1.2036  0.5770 -2.9924
  238MOL    H4833702   2.359   6.375   0.495  1.6012 -1.2160  1.5920
  238MOL    H4933703   2.184   6.409   0.642 -0.6328 -0.1545  0.8227
  238MOL    H5033704   2.061   6.269   0.734 -2.8031 -0.9346 -2.0579
  238MOL    C5133705   2.311   6.328   0.799  0.1906  0.8770 -0.5625
  238MOL    C5233706   2.406   6.448   0.815  0.4245  0.0580 -0.2690
  238MOL    O5333707   2.322   6.570   0.827 -0.4714  0.2833  0.4460
  238MOL    H5433708   2.236   6.344   0.877  0.8633 -0.7921  0.4458
  238MOL    H5533709   2.358   6.235   0.830  1.0416  1.4616 -0.0461
  238MOL    H5633710   2.457   6.455   0.720  1.5153  0.1961  0.3189
  238MOL    H5733711   2.381   6.633   0.864  1.4070  0.7367 -3.1421
  238MOL    C5833712   2.503   6.436   0.927 -0.7282 -0.5957 -0.0425
  238MOL    C5933713   2.605   6.322   0.913 -0.2204 -1.1362 -0.2325
  238MOL    O6033714   2.669   6.333   0.781  0.1179  0.2171  0.2909
  238MOL    H6133715   2.543   6.535   0.947 -0.6668 -0.4962 -0.6699
  238MOL    H6233716   2.447   6.413   1.018  1.1956 -1.1927  1.0157
  238MOL    H6333717   2.558   6.223   0.920 -0.4065 -1.1817 -2.0147
  238MOL    H6433718   2.667   6.241   0.757 -2.9210  0.5938 -1.1425
  238MOL    C6533719   2.709   6.327   1.027  0.3072 -1.1565 -0.1324
  238MOL    C6633720   2.796   6.204   1.046 -0.7911  0.6192 -0.1827
  238MOL    O6733721   2.896   6.243   1.141  0.5383 -0.6462  0.0157
  238MOL    H6833722   2.755   6.425   1.033  0.4412 -1.3644  2.8639
  238MOL    H6933723   2.654   6.339   1.121  1.2374  1.0223  0.1482
  238MOL    H7033724   2.837   6.180   0.948 -1.7135 -2.2176  0.0546
  238MOL    H7133725   2.972   6.281   1.098  0.7987  0.2643  1.2507
  238MOL    C7233726   2.722   6.080   1.106  0.0118 -0.1800 -0.5381
  238MOL    C7333727   2.776   5.942   1.071  0.1588 -0.3413  0.2349
  238MOL    O7433728   2.731   5.862   1.177  0.6942 -0.2870  0.6967
  238MOL    H7533729   2.723   6.099   1.213  1.0201 -3.6386  0.1223
  238MOL    H7633730   2.614   6.086   1.089 -0.1650  0.4949  0.7543
  238MOL    H7733731   2.885   5.936   1.064 -0.0345 -1.7634 -2.1122
  238MOL    H7833732   2.785   5.787   1.194 -1.8852 -2.1434  0.9644
  238MOL    C7933733   2.723   5.898   0.935 -0.2078  0.2214 -0.0248
  238MOL    C8033734   2.718   5.747   0.904 -0.0752 -1.0200 -0.6189
  238MOL    O8133735   2.635   5.713   0.798  0.6697 -0.0952 -0.1358
  238MOL    H8233736   2.620   5.932   0.927 -0.2138 -0.0179 -1.0349
  238MOL    H8333737   2.763   5.945   0.845  1.2645 -0.8559  0.0440
  238MOL    H8433738   2.673   5.707   0.995  1.9286 -0.5324  0.6125
  238MOL    H8533739   2.555   5.762   0.805  1.7834  1.4278  3.1846
  238MOL    C8633740   2.859   5.687   0.886  0.6475  0.2104 -0.1670
  238MOL    C8733741   2.939   5.725   0.767  0.1330 -0.5317  0.0471
  238MOL    O8833742   3.012   5.844   0.801 -0.8058  0.7201  0.1447
  238MOL    H8933743   2.921   5.710   0.973 -0.5465  0.1108  0.7167
  238MOL    H9033744   2.849   5.579   0.888  1.4695  0.1551  0.9922
  238MOL    H9133745   2.877   5.734   0.678 -1.0328 -1.0491  0.7949
  238MOL    H9233746   3.023   5.901   0.726  1.1632  1.7474  1.1768
  238MOL    C9333747   3.043   5.620   0.725  0.0999  0.4826 -0.0100
  238MOL    C9433748   2.987   5.506   0.647 -0.2670 -0.6910 -0.6325
  238MOL    O9533749   2.978   5.553   0.516  0.0993 -0.7658 -0.1006
  238MOL    H9633750   3.116   5.675   0.665 -1.3703  2.1344 -0.3484
  238MOL    H9733751   3.092   5.592   0.818  2.7944 -0.8200 -1.7764
  238MOL    H9833752   2.885   5.475   0.671 -0.3626  0.7052  0.8130
  238MOL    H9933753   2.930   5.491   0.463 -0.3947 -1.3194  0.9788
  238MOL   C10033754   3.081   5.381   0.646  0.1516 -0.4523 -0.1461
  238MOL   C10133755   3.111   5.307   0.774 -0.0499  0.1287  0.1162
  238MOL   O10233756   2.993   5.291   0.849  0.7963  0.0523 -0.0712
  238MOL   H10333757   3.033   5.313   0.576  1.2388 -0.1372 -1.2167
  238MOL   H10433758   3.171   5.394   0.585  0.5335 -1.2051  0.2398
  238MOL   H10533759   3.171   5.364   0.845 -1.6632 -0.2418  1.8087
  238MOL   H10633760   2.917   5.267   0.798  0.1834 -3.2377  2.1770
  238MOL   C10733761   3.181   5.168   0.749  0.2738 -0.8287 -1.1243
  238MOL   C10833762   3.257   5.118   0.873  0.3019  0.0680  0.0830
  238MOL   O10933763   3.302   4.987   0.856  0.2562  0.3063 -0.0072
  238MOL   H11033764   3.113   5.094   0.706  0.8453 -1.4403 -0.9874
  238MOL   H11133765   3.262   5.190   0.680  1.0598 -0.5441 -0.1314
  238MOL   H11233766   3.184   5.120   0.954  2.0391  3.5130  1.6647
  238MOL   H11333767   3.312   4.978   0.762 -1.1228  0.9191 -0.2225
  238MOL   C11433768   3.379   5.206   0.915 -0.3076 -0.4079 -0.5165
  238MOL   C11533769   3.446   5.167   1.044  0.1281 -0.1218 -0.0959
  238MOL   O11633770   3.547   5.268   1.067  0.3402 -0.0096 -0.2662
  238MOL   H11733771   3.453   5.195   0.836  2.5425  0.2956  1.9327
  238MOL   H11833772   3.366   5.313   0.902 -2.0176 -0.7943 -2.2622
  238MOL   H11933773   3.491   5.068   1.039  0.7729 -0.0096  2.6839
  238MOL   H12033774   3.496   5.343   1.092  2.7476  1.0622  1.6485
  238MOL   C12133775   3.347   5.163   1.163 -0.0390  0.5393  0.6960
  238MOL   C12233776   3.412   5.141   1.301 -0.4236  0.4542  0.4494
  238MOL   O12333777   3.303   5.136   1.392  0.0361  0.5401 -0.0645
  238MOL   H12433778   3.288   5.254   1.164 -2.1655 -0.7985 -0.4693
  238MOL   H12533779   3.274   5.086   1.140 -1.7373  1.1854  3.7019
  238MOL   H12633780   3.471   5.229   1.326 -0.0229  0.2840  0.1155
  238MOL   H12733781   3.230   5.177   1.348  0.3862  1.1245 -0.1129
  238MOL   C12833782   3.522   5.029   1.323  0.2433  0.4385 -0.1204
  238MOL   C12933783   3.468   4.891   1.317  0.4466 -0.8798  0.2058
  238MOL   O13033784   3.423   4.857   1.185  0.0465  0.3646  0.0615
  238MOL   H13133785   3.608   5.030   1.256 -0.8934 -0.8740 -1.6525
  238MOL   H13233786   3.565   5.061   1.417 -0.2920 -0.3328  0.3920
  238MOL   H13333787   3.386   4.876   1.387  2.0762 -1.5467  2.0298
  238MOL   H13433788   3.485   4.893   1.123  2.3050 -2.3053  0.6078
  238MOL   C13533789   3.583   4.791   1.346  0.4231 -0.0770  0.4004
  238MOL   C13633790   3.557   4.637   1.355 -0.0509  0.0739 -0.2535
  238MOL   O13733791   3.676   4.570   1.322  0.2923 -0.1362  0.3474
  238MOL   H13833792   3.655   4.803   1.265 -0.1403  2.6169  0.2361
  238MOL   H13933793   3.638   4.814   1.437  2.0780  1.4477 -0.9402
  238MOL   H14033794   3.485   4.612   1.278  0.5975  0.8922 -1.1301
  238MOL   H14133795   3.728   4.569   1.402 -3.0813  0.3750  2.6662
  238MOL   H14233796   3.527   4.603   1.454 -0.0340  2.7032  0.6739
  239MOL     C133797   4.343   2.657   5.193 -0.1451 -0.3267 -0.0229
  239MOL     C233798   4.248   2.631   5.300 -0.6837 -0.0933 -0.8188
  239MOL     O333799   4.121   2.610   5.243  0.0227 -0.0686 -0.0353
  239MOL     H433800   4.361   2.575   5.124 -1.3717 -0.6698  0.0478
  239MOL     H533801   4.440   2.687   5.232  0.1204 -0.2147 -0.7660
  239MOL     H633802   4.242   2.714   5.370 -0.7005  0.2271 -1.1965
  239MOL     H733803   4.054   2.638   5.303 -0.1478 -3.4228  1.4890
  239MOL     H833804   4.310   2.744   5.136  1.3879 -1.3667 -2.5984
  239MOL     C933805   4.293   2.507   5.377  0.3635  0.1601  0.1038
  239MOL    C1033806   4.427   2.515   5.451  0.2550 -0.0913 -0.0456
  239MOL    O1133807   4.404   2.620   5.537 -0.3703  0.2428 -0.1338
  239MOL    H1233808   4.216   2.485   5.451  0.8687  3.1011  1.6186
  239MOL    H1333809   4.310   2.429   5.303  1.0326  0.9975 -0.6460
  239MOL    H1433810   4.515   2.529   5.389  0.8925 -1.0949  0.6082
  239MOL    H1533811   4.462   2.603   5.610 -0.4403  0.2726 -0.0723
  239MOL    C1633812   4.456   2.392   5.533  0.2450 -0.1441  0.5647
  239MOL    C1733813   4.481   2.258   5.451 -0.3820 -0.3213  0.2521
  239MOL    O1833814   4.571   2.269   5.340 -0.2909  0.2590 -0.8123
  239MOL    H1933815   4.546   2.415   5.590 -0.2032 -2.6965  2.3863
  239MOL    H2033816   4.372   2.374   5.600  0.0546  0.3251  0.4526
  239MOL    H2133817   4.386   2.236   5.401  0.1563  0.4560 -1.1439
  239MOL    H2233818   4.657   2.276   5.379 -0.0237 -3.2156 -0.5515
  239MOL    C2333819   4.534   2.136   5.538 -0.0609  0.3327 -0.2884
  239MOL    C2433820   4.538   1.989   5.484 -0.0550  0.9802 -0.2436
  239MOL    O2533821   4.611   1.908   5.570  0.1898  0.3486  0.0170
  239MOL    H2633822   4.631   2.172   5.572 -0.5258  1.6367 -0.3271
  239MOL    H2733823   4.476   2.137   5.630 -0.5525 -0.8096 -0.5769
  239MOL    H2833824   4.592   1.990   5.390 -0.3091 -4.9446 -0.6146
  239MOL    H2933825   4.686   1.954   5.604 -0.5369  1.9720 -0.5288
  239MOL    C3033826   4.398   1.942   5.470  0.5060 -0.3890  0.0369
  239MOL    C3133827   4.375   1.830   5.362 -1.2032 -0.7228 -0.2281
  239MOL    O3233828   4.254   1.778   5.400  0.1560 -0.2099 -0.3465
  239MOL    H3333829   4.370   1.900   5.567  2.0707  0.4597  0.8790
  239MOL    H3433830   4.331   2.027   5.460  2.3865  0.8895 -1.9523
  239MOL    H3533831   4.442   1.746   5.383  1.4303  1.3686  0.0771
  239MOL    H3633832   4.262   1.724   5.477 -1.8893 -0.5504 -0.3401
  239MOL    C3733833   4.380   1.878   5.217 -0.3499 -0.3297  0.5309
  239MOL    C3833834   4.400   1.765   5.116 -0.2913  0.0078 -0.2738
  239MOL    O3933835   4.529   1.716   5.115  0.6115  0.9524  0.0949
  239MOL    H4033836   4.281   1.922   5.204 -0.5508  0.6478  4.7589
  239MOL    H4133837   4.454   1.954   5.192 -1.8750  1.3959  1.1689
  239MOL    H4233838   4.386   1.817   5.022  0.5843  1.0454  0.1604
  239MOL    H4333839   4.581   1.791   5.090 -0.3215  1.8320  0.7418
  239MOL    C4433840   4.302   1.645   5.102 -0.0115  0.5621  0.5074
  239MOL    C4533841   4.294   1.560   4.976  0.0272 -0.5819 -0.1702
  239MOL    O4633842   4.235   1.438   5.018 -0.0330  0.4776  0.1573
  239MOL    H4733843   4.326   1.583   5.187 -0.4485 -0.3710 -0.0413
  239MOL    H4833844   4.199   1.674   5.125 -0.4501 -2.0433  1.9291
  239MOL    H4933845   4.397   1.536   4.948  1.1144  2.1655  1.3523
  239MOL    H5033846   4.301   1.375   5.040 -0.2389  0.4981  0.8312
  239MOL    C5133847   4.213   1.626   4.865 -0.3304 -0.6141 -0.5486
  239MOL    C5233848   4.195   1.544   4.736  0.1552 -0.3025  0.7179
  239MOL    O5333849   4.108   1.626   4.663  0.1033 -0.1648  0.0399
  239MOL    H5433850   4.118   1.659   4.907  1.3085  2.3275  1.0714
  239MOL    H5533851   4.269   1.714   4.833  0.0340  0.4157  2.7104
  239MOL    H5633852   4.140   1.454   4.760 -1.2688 -0.5215 -3.0445
  239MOL    H5733853   4.049   1.570   4.616  0.1617  0.6973 -1.0774
  239MOL    C5833854   4.326   1.521   4.651  0.1442  0.2535  0.3373
  239MOL    C5933855   4.384   1.386   4.695  0.3238  0.7455  0.2435
  239MOL    O6033856   4.332   1.273   4.623 -0.0818 -0.4401 -0.2268
  239MOL    H6133857   4.312   1.517   4.543  1.7908 -0.9755  0.1429
  239MOL    H6233858   4.396   1.600   4.678  1.2921 -1.0872  1.3689
  239MOL    H6333859   4.362   1.372   4.801 -1.6709  1.3459 -0.0759
  239MOL    H6433860   4.373   1.192   4.649  3.4826  1.2593 -0.1376
  239MOL    C6533861   4.535   1.394   4.648  0.1475  0.1491 -0.3356
  239MOL    C6633862   4.615   1.271   4.699 -0.4498 -0.1616 -0.0068
  239MOL    O6733863   4.723   1.251   4.605  0.5760  0.0562 -0.7033
  239MOL    H6833864   4.532   1.401   4.539 -1.8392  1.5440 -0.2262
  239MOL    H6933865   4.586   1.485   4.683 -0.0154  0.2520 -0.3664
  239MOL    H7033866   4.559   1.178   4.696 -0.5321 -0.1144  0.0683
  239MOL    H7133867   4.698   1.189   4.539 -1.2856 -0.1496  0.1789
  239MOL    C7233868   4.675   1.278   4.839 -0.0061 -0.4328  0.1833
  239MOL    C7333869   4.589   1.228   4.951  0.1640  0.0954  0.5105
  239MOL    O7433870   4.563   1.085   4.937 -0.5750 -0.0264 -0.0529
  239MOL    H7533871   4.760   1.210   4.836  0.9197  0.7403 -0.5017
  239MOL    H7633872   4.722   1.374   4.859  0.8987 -0.7792 -0.2901
  239MOL    H7733873   4.492   1.278   4.950 -0.3874 -0.9605  1.0643
  239MOL    H7833874   4.511   1.063   5.013  1.5598  0.7933  1.6886
  239MOL    C7933875   4.664   1.247   5.085  0.9416  0.1434 -0.3577
  239MOL    C8033876   4.672   1.397   5.141 -0.0681  0.3269 -0.2230
  239MOL    O8133877   4.545   1.449   5.149  0.2996 -0.2044 -0.1765
  239MOL    H8233878   4.615   1.194   5.167  1.4181  1.7623  1.0096
  239MOL    H8333879   4.761   1.200   5.072  0.4033 -0.6061 -1.7555
  239MOL    H8433880   4.724   1.457   5.066 -1.3016 -0.6337 -1.8754
  239MOL    H8533881   4.548   1.544   5.148  0.8838 -0.1455  2.4427
  239MOL    C8633882   4.751   1.398   5.269 -0.6654 -0.0550 -0.0480
  239MOL    C8733883   4.773   1.543   5.325  0.4444 -0.1235 -0.3958
  239MOL    O8833884   4.872   1.538   5.418  0.2594 -0.5434 -0.1966
  239MOL    H8933885   4.710   1.333   5.346  0.9411 -2.7654 -1.3760
  239MOL    H9033886   4.848   1.363   5.234 -0.6907  0.7673 -0.9778
  239MOL    H9133887   4.686   1.575   5.382  0.8119 -3.1155  1.9243
  239MOL    H9233888   4.848   1.495   5.499  0.1397  0.5693  0.3731
  239MOL    C9333889   4.835   1.642   5.219 -0.0820 -0.7205  0.0248
  239MOL    C9433890   4.860   1.795   5.250 -0.9934  0.0314 -0.5870
  239MOL    O9533891   4.969   1.794   5.339  0.3421 -0.3174  0.3586
  239MOL    H9633892   4.924   1.597   5.175 -0.3750 -0.0752 -1.2290
  239MOL    H9733893   4.763   1.643   5.138  0.1580 -2.1156 -0.2249
  239MOL    H9833894   4.779   1.837   5.310 -2.3577 -3.1360 -0.0687
  239MOL    H9933895   4.971   1.708   5.378  2.8154 -0.0311  0.9366
  239MOL   C10033896   4.894   1.889   5.121  0.5457  0.3021 -0.3960
  239MOL   C10133897   4.789   1.889   5.008 -0.1488  0.1021  0.5435
  239MOL   O10233898   4.672   1.938   5.072 -0.0948 -0.0643 -0.0280
  239MOL   H10333899   4.919   1.989   5.154 -0.3509  0.7199 -0.9843
  239MOL   H10433900   4.989   1.854   5.078  1.6242  1.4328  1.0248
  239MOL   H10533901   4.765   1.788   4.975  0.7863 -0.2808  1.0193
  239MOL   H10633902   4.660   2.028   5.048  2.3738 -0.2048 -1.9969
  239MOL   C10733903   4.830   1.990   4.894  0.1012  0.5888 -0.5655
  239MOL   C10833904   4.741   2.002   4.763  0.2365  0.3005  0.2489
  239MOL   O10933905   4.820   2.067   4.659 -0.1615  0.1723  0.4517
  239MOL   H11033906   4.850   2.086   4.942 -2.1309  0.9419 -0.2867
  239MOL   H11133907   4.923   1.958   4.847 -0.2929 -0.7637 -0.4348
  239MOL   H11233908   4.661   2.072   4.786  0.8673  1.1875 -0.2540
  239MOL   H11333909   4.904   2.027   4.639  0.2282  1.7977 -1.3899
  239MOL   C11433910   4.692   1.858   4.716  0.8519 -0.2811 -0.4800
  239MOL   C11533911   4.582   1.858   4.607  0.4116  0.7679  0.2392
  239MOL   O11633912   4.574   1.729   4.549 -0.1500  0.2799  0.2917
  239MOL   H11733913   4.783   1.802   4.697  1.1389  0.1049 -0.2692
  239MOL   H11833914   4.645   1.802   4.797 -0.4812  0.9291 -0.3939
  239MOL   H11933915   4.603   1.925   4.524 -0.9202  1.2749  0.3037
  239MOL   H12033916   4.662   1.707   4.522 -0.2108 -1.1449  1.1725
  239MOL   C12133917   4.440   1.887   4.668  0.6088 -0.3113  0.3042
  239MOL   C12233918   4.316   1.883   4.569 -0.6269 -0.2271 -0.0831
  239MOL   O12333919   4.203   1.903   4.657 -0.2085  0.4741  0.3918
  239MOL   H12433920   4.410   1.821   4.749 -1.0169  0.8766  0.6943
  239MOL   H12533921   4.442   1.980   4.723 -3.4623 -0.5293  0.9758
  239MOL   H12633922   4.311   1.780   4.532  0.7205  0.1063 -1.2359
  239MOL   H12733923   4.174   1.816   4.680  3.6561 -0.5045  2.0312
  239MOL   C12833924   4.333   1.987   4.454 -0.1829  0.1620 -1.2385
  239MOL   C12933925   4.220   1.995   4.354  0.2458 -0.3842 -0.0048
  239MOL   O13033926   4.242   2.111   4.276 -0.2613  0.2154  0.0990
  239MOL   H13133927   4.340   2.083   4.507  0.8899  0.9714 -2.8017
  239MOL   H13233928   4.430   1.971   4.405  0.9716  1.2971  0.5874
  239MOL   H13333929   4.126   2.013   4.406 -0.2150 -0.4278 -0.8183
  239MOL   H13433930   4.310   2.099   4.212 -0.1055  1.5181  0.0166
  239MOL   C13533931   4.203   1.872   4.266  0.2609  0.2615 -0.0646
  239MOL   C13633932   4.117   1.891   4.137 -0.1070 -0.4271 -0.4921
  239MOL   O13733933   4.069   1.768   4.082  0.6324  0.2176  0.5153
  239MOL   H13833934   4.285   1.805   4.238  0.0197  0.7120 -1.9640
  239MOL   H13933935   4.134   1.813   4.325 -2.9000  2.8382 -1.0374
  239MOL   H14033936   4.155   1.961   4.061 -3.6017 -1.2578 -3.1380
  239MOL   H14133937   3.979   1.764   4.109  0.3595 -2.3078 -0.7176
  239MOL   H14233938   4.029   1.940   4.179 -0.8625 -0.0834 -2.4126
  240MOL     C133939   7.341   0.741   3.401  0.9636 -0.0740 -0.1984
  240MOL     C233940   7.368   0.687   3.260 -0.0179 -0.5590 -0.2072
  240MOL     O333941   7.426   0.559   3.255 -0.2329  0.5461 -0.0786
  240MOL     H433942   7.438   0.763   3.445  0.7104  3.4561 -1.2578
  240MOL     H533943   7.301   0.663   3.466  0.1472  0.1823 -0.3965
  240MOL     H633944   7.448   0.744   3.214  0.0943 -0.3473  0.2467
  240MOL     H733945   7.447   0.535   3.344  1.0940 -1.1691 -0.8291
  240MOL     H833946   7.270   0.823   3.406 -0.3887 -1.2553  0.1208
  240MOL     C933947   7.243   0.684   3.169  0.2185 -0.2327 -0.5684
  240MOL    C1033948   7.178   0.821   3.128 -0.5575 -0.7073  0.1920
  240MOL    O1133949   7.275   0.882   3.037  0.0147 -0.1160 -0.4075
  240MOL    H1233950   7.268   0.622   3.082 -0.0256  1.9610 -2.2547
  240MOL    H1333951   7.168   0.624   3.221  0.6355 -1.3641 -1.2454
  240MOL    H1433952   7.163   0.894   3.207  1.5511  1.6381 -1.5217
  240MOL    H1533953   7.233   0.955   2.994  2.6084  0.9819 -1.1760
  240MOL    C1633954   7.047   0.797   3.040  0.2241 -0.1999  0.8884
  240MOL    C1733955   6.942   0.908   3.040 -0.2965 -0.2347  0.1957
  240MOL    O1833956   6.991   1.020   2.978 -0.4085 -0.1560  0.1751
  240MOL    H1933957   7.078   0.769   2.939 -0.6924  0.5076  0.4072
  240MOL    H2033958   6.989   0.712   3.077  1.2745 -1.2417  0.1756
  240MOL    H2133959   6.919   0.941   3.142 -1.6086 -1.1813  0.2153
  240MOL    H2233960   6.915   1.075   2.973 -1.7246 -2.0116 -0.9554
  240MOL    C2333961   6.813   0.877   2.970  0.4352 -0.3551  0.0216
  240MOL    C2433962   6.690   0.966   3.011  0.2678 -0.0443  0.2636
  240MOL    O2533963   6.716   1.098   2.964  0.1356 -0.2581  0.2525
  240MOL    H2633964   6.830   0.878   2.863  1.3648 -1.2302  0.1458
  240MOL    H2733965   6.788   0.775   3.001  2.4830 -1.0944 -0.6363
  240MOL    H2833966   6.681   0.969   3.120  1.5024  0.8654  0.3570
  240MOL    H2933967   6.633   1.135   2.938  0.1035  0.2461  1.0407
  240MOL    C3033968   6.551   0.917   2.961 -0.5139 -0.1494 -0.1041
  240MOL    C3133969   6.427   1.000   3.000  0.0738  0.2854  0.3013
  240MOL    O3233970   6.433   1.129   2.922  0.0693  0.1615 -0.1987
  240MOL    H3333971   6.559   0.921   2.852 -1.1185  1.2648 -0.1040
  240MOL    H3433972   6.558   0.814   2.997  0.2796  0.0983  0.4623
  240MOL    H3533973   6.431   1.022   3.107  0.2250 -1.5662  0.6848
  240MOL    H3633974   6.342   1.152   2.932 -0.0584  0.2651 -1.5372
  240MOL    C3733975   6.293   0.920   2.975 -0.6080  0.2496  0.7726
  240MOL    C3833976   6.196   0.939   3.087 -0.3008 -0.0314 -0.3555
  240MOL    O3933977   6.144   1.073   3.080  0.0012 -0.0625  0.4768
  240MOL    H4033978   6.259   0.922   2.872 -0.6407 -1.2914  0.7499
  240MOL    H4133979   6.316   0.814   2.983 -3.1502 -0.3145  1.1408
  240MOL    H4233980   6.243   0.934   3.185 -1.4008 -0.1662  0.1692
  240MOL    H4333981   6.195   1.121   3.143 -1.7414  1.3160  0.8984
  240MOL    C4433982   6.074   0.847   3.075  0.4481 -0.1063 -0.1107
  240MOL    C4533983   6.084   0.698   3.128  0.3894 -0.4286  0.1835
  240MOL    O4633984   6.180   0.622   3.058  0.0098 -0.1784  0.2376
  240MOL    H4733985   5.985   0.895   3.114  0.2949 -0.2436 -0.2872
  240MOL    H4833986   6.043   0.849   2.970 -0.1278 -1.1010  0.0350
  240MOL    H4933987   5.983   0.663   3.104 -0.6474  2.8607 -0.6459
  240MOL    H5033988   6.142   0.541   3.025 -1.6980  0.8176 -0.2767
  240MOL    C5133989   6.117   0.681   3.284  0.4901  0.1349 -0.5353
  240MOL    C5233990   6.004   0.675   3.391  0.2024  0.3635 -0.1682
  240MOL    O5333991   5.917   0.570   3.353  0.4234  0.4356  0.0595
  240MOL    H5433992   6.166   0.583   3.292  0.2977  0.0826 -0.0262
  240MOL    H5533993   6.190   0.748   3.329  0.5088 -0.4125  0.2696
  240MOL    H5633994   5.938   0.762   3.397 -0.6189 -0.2853  0.2085
  240MOL    H5733995   5.928   0.494   3.407 -0.0502  0.2209 -0.1409
  240MOL    C5833996   6.056   0.654   3.534  0.3883  0.2403 -0.0085
  240MOL    C5933997   6.153   0.767   3.592  1.1911  0.1390  0.6928
  240MOL    O6033998   6.079   0.888   3.604 -0.2032 -0.2230 -0.3742
  240MOL    H6133999   5.974   0.647   3.606 -2.5838  0.1640 -3.2633
  240MOL    H6234000   6.117   0.564   3.529 -0.6513 -0.4601 -0.3475
  240MOL    H6334001   6.252   0.785   3.550  0.8627  0.8150  0.1985
  240MOL    H6434002   6.011   0.881   3.669 -0.0025 -2.5200 -0.3824
  240MOL    C6534003   6.186   0.739   3.738 -1.0949  0.0912 -0.0841
  240MOL    C6634004   6.285   0.625   3.761  0.2686 -0.3006 -0.0574
  240MOL    O6734005   6.412   0.672   3.731  0.0313  0.1912 -0.1884
  240MOL    H6834006   6.236   0.831   3.770  2.4909 -1.2324 -1.5460
  240MOL    H6934007   6.098   0.715   3.798 -1.0398  1.3108  0.5122
  240MOL    H7034008   6.262   0.543   3.693  3.2992 -1.2487 -0.0226
  240MOL    H7134009   6.476   0.602   3.740  0.4344  0.5170 -0.4951
  240MOL    C7234010   6.306   0.592   3.911  0.8701 -1.0311  0.1782
  240MOL    C7334011   6.213   0.469   3.954 -0.3230 -1.2517  0.2408
  240MOL    O7434012   6.266   0.346   3.911 -0.4164  0.1794  0.6406
  240MOL    H7534013   6.407   0.560   3.934  1.7143  0.8467 -0.8002
  240MOL    H7634014   6.266   0.671   3.976  0.4355 -1.6672  0.6885
  240MOL    H7734015   6.108   0.481   3.926  0.1086  0.2919 -0.8092
  240MOL    H7834016   6.307   0.306   3.986  1.6431 -1.9745 -1.5177
  240MOL    C7934017   6.209   0.458   4.106  0.1921  0.0884 -0.7119
  240MOL    C8034018   6.081   0.507   4.188 -0.8243 -0.0967 -0.0310
  240MOL    O8134019   5.962   0.428   4.156 -0.9854  0.0411 -0.0000
  240MOL    H8234020   6.187   0.354   4.130 -3.2679  0.9568  0.3134
  240MOL    H8334021   6.295   0.501   4.157 -0.1826 -0.7663  0.6853
  240MOL    H8434022   6.056   0.611   4.165 -1.5965 -0.4651 -0.8994
  240MOL    H8534023   5.925   0.459   4.074 -0.1808 -2.7949 -1.5237
  240MOL    C8634024   6.101   0.503   4.341 -0.4439 -0.6763  0.3144
  240MOL    C8734025   5.977   0.515   4.432 -0.2406 -0.7295 -0.2038
  240MOL    O8834026   6.014   0.489   4.567 -0.2320  0.3848 -0.0174
  240MOL    H8934027   6.149   0.408   4.362 -0.2337 -1.3781 -3.0603
  240MOL    H9034028   6.171   0.580   4.373  0.2676 -1.2050  0.0333
  240MOL    H9134029   5.901   0.441   4.410 -1.9710  0.8374  0.3661
  240MOL    H9234030   6.038   0.398   4.572  0.7302  0.6574  0.4085
  240MOL    C9334031   5.919   0.664   4.430 -0.2055 -0.6734  0.5025
  240MOL    C9434032   5.776   0.670   4.487  0.0365  0.4561 -0.3989
  240MOL    O9534033   5.725   0.792   4.545 -0.3069 -0.5754 -0.2410
  240MOL    H9634034   5.985   0.731   4.486  2.3554  0.1338 -3.3384
  240MOL    H9734035   5.919   0.715   4.334 -1.2086  0.1354  0.9110
  240MOL    H9834036   5.764   0.586   4.556  0.4926 -0.0941 -0.9800
  240MOL    H9934037   5.645   0.762   4.586  0.8282 -1.4326  1.3981
  240MOL   C10034038   5.687   0.652   4.364 -1.0196  0.2063 -0.7294
  240MOL   C10134039   5.556   0.572   4.393 -0.9774 -0.6426 -0.3875
  240MOL   O10234040   5.475   0.563   4.280  0.2985  0.3089 -0.2334
  240MOL   H10334041   5.664   0.752   4.325  0.6845 -0.0361 -2.4510
  240MOL   H10434042   5.741   0.602   4.283  0.7770  1.0272 -0.0585
  240MOL   H10534043   5.504   0.638   4.463  0.6846  0.8034 -0.4806
  240MOL   H10634044   5.386   0.556   4.311 -0.2313 -0.6872 -1.9384
  240MOL   C10734045   5.573   0.427   4.438 -0.3060 -0.0581  1.2786
  240MOL   C10834046   5.448   0.329   4.439  0.6406  0.0224  0.5278
  240MOL   O10934047   5.491   0.201   4.467  0.1708  0.8170  0.2031
  240MOL   H11034048   5.650   0.378   4.379 -0.3892  2.0213 -0.6065
  240MOL   H11134049   5.606   0.428   4.542  0.2956 -0.4628  1.0938
  240MOL   H11234050   5.415   0.333   4.335  2.8829 -0.0169 -0.2083
  240MOL   H11334051   5.528   0.207   4.554  0.5932  1.9586 -0.0536
  240MOL   C11434052   5.340   0.355   4.541  0.5300 -0.6028 -0.5865
  240MOL   C11534053   5.194   0.302   4.520  0.6917 -0.4037  0.4870
  240MOL   O11634054   5.112   0.326   4.636  0.3884  0.5644  0.2109
  240MOL   H11734055   5.369   0.325   4.642 -0.2013 -0.4499 -0.3300
  240MOL   H11834056   5.341   0.464   4.550  1.9428 -0.7152  0.9610
  240MOL   H11934057   5.194   0.193   4.532  1.2026 -0.5332 -0.6080
  240MOL   H12034058   5.130   0.257   4.698  0.8944  1.5385  1.1547
  240MOL   C12134059   5.130   0.353   4.385  0.6615 -0.2434  0.1950
  240MOL   C12234060   5.094   0.508   4.382  0.4480 -0.1565  0.3520
  240MOL   O12334061   5.202   0.594   4.371 -0.0905  0.0578 -0.0238
  240MOL   H12434062   5.208   0.341   4.310  1.0115 -0.6140  0.6093
  240MOL   H12534063   5.042   0.294   4.361  1.7284 -1.2414 -1.4185
  240MOL   H12634064   5.051   0.536   4.478 -0.7464  2.3064 -0.8731
  240MOL   H12734065   5.170   0.683   4.377 -0.9754 -0.1991 -0.9126
  240MOL   C12834066   4.988   0.544   4.272  0.0589 -0.1847  0.5178
  240MOL   C12934067   4.846   0.490   4.286 -0.7053  0.0356  0.0743
  240MOL   O13034068   4.786   0.571   4.388  0.0729  0.6732  0.3149
  240MOL   H13134069   4.974   0.650   4.252  0.7328  0.0724  1.4159
  240MOL   H13234070   5.024   0.506   4.177  0.3107  1.7204 -0.1616
  240MOL   H13334071   4.847   0.391   4.331  0.3813 -0.3302 -0.7318
  240MOL   H13434072   4.792   0.529   4.473 -0.5864  0.0231  0.0473
  240MOL   C13534073   4.766   0.506   4.147 -0.3577 -0.2614  0.1359
  240MOL   C13634074   4.612   0.496   4.157 -0.2088  0.0950  0.4378
  240MOL   O13734075   4.547   0.468   4.036 -0.3925 -0.3340  0.3280
  240MOL   H13834076   4.790   0.599   4.094 -1.3568 -1.3696 -2.3324
  240MOL   H13934077   4.810   0.432   4.081 -0.1830 -0.0274 -0.0093
  240MOL   H14034078   4.561   0.579   4.205  2.3417  1.3019  1.1580
  240MOL   H14134079   4.454   0.472   4.047 -0.4900  0.6875 -0.7414
  240MOL   H14234080   4.585   0.412   4.220  0.5236  0.2309  0.9325
  241MOL     C134081   4.335   4.910   1.403 -0.5668 -0.5657 -0.2505
  241MOL     C234082   4.403   4.870   1.531  0.4117  0.2115 -0.1537
  241MOL     O334083   4.297   4.879   1.620  0.9584 -0.0554 -0.0109
  241MOL     H434084   4.410   4.920   1.324 -0.2580  0.5932  0.1777
  241MOL     H534085   4.273   5.000   1.401 -2.0501 -1.5067  1.6750
  241MOL     H634086   4.488   4.930   1.561 -0.1771  1.1599 -0.3769
  241MOL     H734087   4.339   4.884   1.704 -1.6099  0.8101  1.2733
  241MOL     H834088   4.268   4.833   1.366  0.7551 -0.7822 -2.2850
  241MOL     C934089   4.455   4.723   1.519 -0.1236  0.4913 -0.7178
  241MOL    C1034090   4.566   4.699   1.417  0.0065 -0.4303  0.2414
  241MOL    O1134091   4.673   4.787   1.446 -0.5345  0.2455 -0.1442
  241MOL    H1234092   4.491   4.688   1.615  0.6784 -1.5413 -1.7335
  241MOL    H1334093   4.364   4.668   1.493 -0.4435  0.8533 -0.3703
  241MOL    H1434094   4.527   4.731   1.321  0.2533 -0.0274  0.2724
  241MOL    H1534095   4.685   4.847   1.374  0.6760 -0.7800 -0.8271
  241MOL    C1634096   4.629   4.560   1.418  0.0702 -0.2355 -0.8016
  241MOL    C1734097   4.544   4.462   1.336  0.2277  0.7977  0.0408
  241MOL    O1834098   4.626   4.357   1.278  0.0690 -0.3446  0.2855
  241MOL    H1934099   4.727   4.564   1.371 -0.9301  0.8668 -2.8278
  241MOL    H2034100   4.662   4.523   1.515 -0.4663 -0.7315 -0.8026
  241MOL    H2134101   4.479   4.519   1.270 -1.7330  0.3026  1.5289
  241MOL    H2234102   4.665   4.392   1.200  0.9609  1.1292  1.3575
  241MOL    C2334103   4.460   4.389   1.446 -0.4632  0.6983 -0.2982
  241MOL    C2434104   4.352   4.305   1.382  0.3007 -0.0391  0.1510
  241MOL    O2534105   4.294   4.210   1.483 -0.0160 -0.5312  0.1431
  241MOL    H2634106   4.525   4.324   1.504 -2.6522 -0.5022  0.8773
  241MOL    H2734107   4.411   4.456   1.517 -2.1418 -2.3045  1.4739
  241MOL    H2834108   4.400   4.257   1.296 -0.7733 -0.4596 -0.2244
  241MOL    H2934109   4.255   4.256   1.556 -1.5222 -1.9707  0.2853
  241MOL    C3034110   4.228   4.392   1.327  0.0199 -0.0814 -0.6254
  241MOL    C3134111   4.147   4.329   1.210 -0.5177 -0.1544 -0.7572
  241MOL    O3234112   4.231   4.314   1.105 -0.0483  0.2713 -0.2047
  241MOL    H3334113   4.170   4.416   1.416  0.4285  1.4507 -0.7553
  241MOL    H3434114   4.262   4.491   1.297  2.0538 -0.9327 -1.2515
  241MOL    H3534115   4.079   4.412   1.193 -0.5900  0.1680  0.9837
  241MOL    H3634116   4.278   4.394   1.091 -0.1213  0.2378 -0.6729
  241MOL    C3734117   4.071   4.195   1.252 -0.4617 -0.2507  0.4797
  241MOL    C3834118   3.972   4.151   1.141  0.6594 -0.3854 -0.5962
  241MOL    O3934119   3.931   4.024   1.162 -0.0598  0.6642 -0.2961
  241MOL    H4034120   4.139   4.110   1.263  0.9168  0.7993  0.1228
  241MOL    H4134121   4.024   4.201   1.350 -1.8540 -1.9406 -0.0552
  241MOL    H4234122   4.031   4.144   1.049  2.2841  0.0723  0.3877
  241MOL    H4334123   4.004   3.963   1.157 -1.6171 -1.3038  0.2973
  241MOL    C4434124   3.857   4.253   1.112 -0.6105 -0.0845 -0.2202
  241MOL    C4534125   3.771   4.230   0.984 -0.4505  0.2274  0.4072
  241MOL    O4634126   3.663   4.315   0.985  0.4969  0.0398  0.1263
  241MOL    H4734127   3.794   4.259   1.201 -2.3838 -1.7990 -1.3061
  241MOL    H4834128   3.889   4.356   1.115  0.8412 -0.5546  1.7687
  241MOL    H4934129   3.742   4.125   0.980 -1.6532  0.5244  1.1568
  241MOL    H5034130   3.627   4.301   1.071 -1.5734  0.4388 -0.6400
  241MOL    C5134131   3.846   4.258   0.854  0.6328  0.1931  0.0580
  241MOL    C5234132   3.774   4.222   0.721  0.5070 -0.3511 -0.1106
  241MOL    O5334133   3.834   4.301   0.613 -0.1232 -0.3690  0.5101
  241MOL    H5434134   3.873   4.363   0.857  1.2088  0.0524 -0.2188
  241MOL    H5534135   3.935   4.195   0.856 -0.3944 -1.3414 -0.9134
  241MOL    H5634136   3.673   4.263   0.724  0.8992  0.5403  1.3803
  241MOL    H5734137   3.928   4.292   0.610  0.1438  1.9096  1.2957
  241MOL    C5834138   3.791   4.068   0.687 -0.7616 -0.2651 -0.2030
  241MOL    C5934139   3.709   4.009   0.569  0.2299  0.2498 -0.6058
  241MOL    O6034140   3.704   4.116   0.479  0.1326 -0.0549  0.3171
  241MOL    H6134141   3.899   4.054   0.683 -0.4585  2.0446 -0.7353
  241MOL    H6234142   3.773   4.004   0.773  2.9059  0.6752  1.3628
  241MOL    H6334143   3.605   3.995   0.599 -0.0623  1.6319 -0.9730
  241MOL    H6434144   3.758   4.186   0.513 -1.1862  0.8803  0.5484
  241MOL    C6534145   3.771   3.884   0.499  0.6110 -0.3966 -0.5360
  241MOL    C6634146   3.747   3.750   0.568  1.0724 -0.3590 -0.7428
  241MOL    O6734147   3.610   3.728   0.536 -0.4129 -0.3572 -0.1178
  241MOL    H6834148   3.739   3.898   0.396 -2.0273  1.0406  0.4283
  241MOL    H6934149   3.879   3.899   0.494  0.7485 -0.1136  2.3157
  241MOL    H7034150   3.774   3.766   0.673 -2.6047  0.2649  0.1564
  241MOL    H7134151   3.577   3.652   0.581 -2.5777  0.4410 -0.3230
  241MOL    C7234152   3.819   3.632   0.510 -0.1292 -0.2803  0.5659
  241MOL    C7334153   3.970   3.615   0.561  0.6011  0.3685  0.1812
  241MOL    O7434154   3.967   3.597   0.705 -0.0441  0.0159  1.0795
  241MOL    H7534155   3.764   3.549   0.553  1.9935  0.0355  4.1835
  241MOL    H7634156   3.812   3.646   0.402 -0.4421  1.3912  0.7854
  241MOL    H7734157   4.036   3.698   0.539 -0.2682  0.4444 -2.3184
  241MOL    H7834158   4.037   3.535   0.722  0.3580 -0.2767 -1.4389
  241MOL    C7934159   4.021   3.490   0.496 -0.8793 -0.2816 -0.7719
  241MOL    C8034160   4.176   3.468   0.509 -0.2110 -0.2553 -0.5817
  241MOL    O8134161   4.198   3.465   0.652  0.1839  1.1212  0.4923
  241MOL    H8234162   3.983   3.402   0.548 -1.5225  1.1142  1.1608
  241MOL    H8334163   3.997   3.478   0.390  0.6798 -0.6053 -1.1045
  241MOL    H8434164   4.229   3.560   0.483  0.4166 -0.7046 -0.8757
  241MOL    H8534165   4.289   3.443   0.665 -0.4584 -1.3405  1.1472
  241MOL    C8634166   4.229   3.344   0.448  0.0991 -0.3148 -0.4256
  241MOL    C8734167   4.158   3.215   0.482 -0.0760  0.2841 -0.1147
  241MOL    O8834168   4.058   3.176   0.388  1.0673 -0.3587 -0.4447
  241MOL    H8934169   4.225   3.348   0.339 -1.9078 -1.2593 -0.4174
  241MOL    H9034170   4.335   3.356   0.468 -0.0522  1.5912 -0.6382
  241MOL    H9134171   4.107   3.218   0.579 -0.1358  0.9735 -0.1595
  241MOL    H9234172   3.982   3.145   0.435  2.2910  0.4008  2.0567
  241MOL    C9334173   4.254   3.094   0.500  0.2545  0.2292 -0.2658
  241MOL    C9434174   4.204   2.975   0.581 -1.1552 -0.2634 -0.2267
  241MOL    O9534175   4.296   2.874   0.558 -0.3850 -0.5431 -0.0101
  241MOL    H9634176   4.270   3.064   0.397 -0.2390 -0.1332 -0.2398
  241MOL    H9734177   4.350   3.122   0.544 -0.8041  0.6505  1.8237
  241MOL    H9834178   4.107   2.954   0.536 -1.7144 -0.2655  0.9586
  241MOL    H9934179   4.290   2.813   0.630 -3.3708 -0.9069 -0.4782
  241MOL   C10034180   4.195   2.990   0.735  0.0167  0.3061  0.3227
  241MOL   C10134181   4.123   2.866   0.799 -0.1073  0.8187 -0.0510
  241MOL   O10234182   4.195   2.744   0.783  0.1094 -1.0369 -0.2488
  241MOL   H10334183   4.295   3.000   0.779  0.7382  0.4713 -1.3272
  241MOL   H10434184   4.137   3.077   0.764  0.6666  0.8597 -0.0332
  241MOL   H10534185   4.027   2.854   0.748 -0.7851  0.6673  1.2228
  241MOL   H10634186   4.143   2.685   0.835 -3.1056 -0.2989 -2.4375
  241MOL   C10734187   4.081   2.876   0.945  0.2035  0.2005  0.0480
  241MOL   C10834188   3.964   2.784   0.977  0.8318  0.0116 -0.2860
  241MOL   O10934189   4.019   2.652   0.985 -0.2462 -0.1060 -0.5769
  241MOL   H11034190   4.170   2.854   1.003  0.9013  1.8171 -0.3679
  241MOL   H11134191   4.053   2.981   0.957 -4.6812 -1.0008  0.5133
  241MOL   H11234192   3.886   2.803   0.903  0.8975  0.1226 -0.3271
  241MOL   H11334193   3.988   2.609   1.064 -0.3001  0.2099 -0.4260
  241MOL   C11434194   3.906   2.807   1.112 -0.1471 -0.4661 -0.1946
  241MOL   C11534195   3.795   2.716   1.161  0.1954  0.0883  0.1821
  241MOL   O11634196   3.870   2.596   1.192  0.1984  0.2777  0.0318
  241MOL   H11734197   3.985   2.806   1.186 -0.7513 -1.1728  0.4495
  241MOL   H11834198   3.874   2.910   1.129 -1.2203 -1.0500  1.4940
  241MOL   H11934199   3.715   2.709   1.088  1.8358 -0.7543 -1.5673
  241MOL   H12034200   3.811   2.530   1.223 -0.5470  1.4359  1.1608
  241MOL   C12134201   3.730   2.771   1.294  0.3321  0.2441 -0.1858
  241MOL   C12234202   3.626   2.883   1.287 -0.0077 -0.8492 -0.1459
  241MOL   O12334203   3.529   2.856   1.189 -0.3198 -0.2475 -0.5354
  241MOL   H12434204   3.673   2.689   1.337 -1.3604  1.1623 -0.6504
  241MOL   H12534205   3.810   2.791   1.365  1.7586 -1.0307 -1.3966
  241MOL   H12634206   3.669   2.978   1.253 -0.6203 -0.3399  0.5061
  241MOL   H12734207   3.565   2.869   1.102 -1.4927  2.1698 -0.6949
  241MOL   C12834208   3.561   2.905   1.421  0.7981 -0.6577 -0.2676
  241MOL   C12934209   3.491   3.043   1.447  0.6182 -0.6145  0.6157
  241MOL   O13034210   3.388   3.034   1.359 -0.0004  0.2053 -0.0933
  241MOL   H13134211   3.498   2.822   1.455 -0.0505 -0.5042 -1.4130
  241MOL   H13234212   3.644   2.904   1.491  0.4125 -0.5719  0.2004
  241MOL   H13334213   3.554   3.130   1.425 -0.7387  0.1215 -0.4176
  241MOL   H13434214   3.438   2.997   1.288  0.1567 -0.3709  0.3196
  241MOL   C13534215   3.434   3.056   1.594 -0.2799 -0.7533 -0.4495
  241MOL   C13634216   3.537   3.106   1.694 -0.4990  0.6977 -0.7127
  241MOL   O13734217   3.607   3.225   1.651 -0.7293 -0.0406  0.1888
  241MOL   H13834218   3.348   3.123   1.589  0.1387 -0.2874 -1.7576
  241MOL   H13934219   3.387   2.963   1.626 -1.0169  0.6922  2.9257
  241MOL   H14034220   3.612   3.032   1.723  1.6929  3.6351  1.4335
  241MOL   H14134221   3.599   3.292   1.717 -0.4743  0.4968 -0.3264
  241MOL   H14234222   3.487   3.124   1.789  1.2345 -3.3825  1.0797
  242MOL     C134223   5.885   3.280   6.865  0.2042 -0.3341 -0.0253
  242MOL     C234224   5.876   3.179   6.987  0.8912  0.5226  0.0404
  242MOL     O334225   5.750   3.112   6.965 -0.0012  0.1804  0.0978
  242MOL     H434226   5.811   3.361   6.862 -1.2739 -1.6980 -1.0362
  242MOL     H534227   5.887   3.229   6.769 -3.4314  0.2364 -0.4897
  242MOL     H634228   5.868   3.237   7.079 -0.3055 -0.6690  0.7005
  242MOL     H734229   5.764   3.064   6.885  1.2167 -0.4385  0.6640
  242MOL     H834230   5.977   3.336   6.881  0.0530  0.1895 -0.9067
  242MOL     C934231   5.984   3.075   6.994 -0.0062  0.1839  0.1183
  242MOL    C1034232   6.135   3.127   6.990  0.2717 -0.5163 -0.2861
  242MOL    O1134233   6.155   3.239   7.067 -0.0014 -0.1347  0.0533
  242MOL    H1234234   5.969   3.024   7.090 -1.0435  1.0195  0.4034
  242MOL    H1334235   5.965   3.002   6.916  0.7689 -0.8431  0.8547
  242MOL    H1434236   6.159   3.150   6.886 -1.1312 -2.6191 -1.1122
  242MOL    H1534237   6.241   3.279   7.059 -0.5819  1.3546  1.1212
  242MOL    C1634238   6.242   3.016   7.022  0.0359  0.0965 -0.2534
  242MOL    C1734239   6.222   2.879   6.949  0.3526  0.1772  0.1128
  242MOL    O1834240   6.252   2.904   6.815  0.5907 -0.0070 -0.4566
  242MOL    H1934241   6.341   3.058   7.005  0.3434 -0.1589  0.8653
  242MOL    H2034242   6.232   2.993   7.128  1.2140 -1.5664 -0.4907
  242MOL    H2134243   6.116   2.854   6.952  0.6647 -1.0913  0.6163
  242MOL    H2234244   6.209   2.830   6.776 -3.4570  0.9933  1.8296
  242MOL    C2334245   6.306   2.763   6.993  0.8504 -0.6632 -0.4662
  242MOL    C2434246   6.242   2.683   7.113 -0.1583 -0.0130  0.6053
  242MOL    O2534247   6.111   2.626   7.084  0.4327  0.1749 -0.3733
  242MOL    H2634248   6.330   2.691   6.914  0.4396  1.9129 -3.0139
  242MOL    H2734249   6.401   2.795   7.036  0.6909 -0.6833 -0.0981
  242MOL    H2834250   6.231   2.757   7.192  0.1864  1.9716 -1.1590
  242MOL    H2934251   6.051   2.690   7.118 -0.5825  1.1124 -3.7689
  242MOL    C3034252   6.319   2.558   7.156 -0.0997  0.8282  0.5333
  242MOL    C3134253   6.456   2.587   7.220  0.0001 -0.1481 -0.8572
  242MOL    O3234254   6.428   2.627   7.349 -0.5881  0.1342 -0.4292
  242MOL    H3334255   6.252   2.496   7.216 -0.3076  2.2975  1.8569
  242MOL    H3434256   6.335   2.500   7.065 -1.0468 -0.1488  0.9752
  242MOL    H3534257   6.503   2.667   7.163 -0.2843  1.3200  0.9132
  242MOL    H3634258   6.421   2.721   7.340  2.2675  0.6535  1.8078
  242MOL    C3734259   6.545   2.462   7.222  0.4476 -0.3982 -0.4597
  242MOL    C3834260   6.692   2.509   7.219  0.4581 -0.1455  0.6192
  242MOL    O3934261   6.768   2.389   7.245 -0.2999  0.0187  0.4290
  242MOL    H4034262   6.522   2.411   7.315 -1.1496  0.5569 -0.3327
  242MOL    H4134263   6.527   2.396   7.137  4.3962  0.9086 -2.4732
  242MOL    H4234264   6.709   2.579   7.300 -0.9431  1.9989 -0.8867
  242MOL    H4334265   6.820   2.411   7.321 -0.8622  4.1569 -0.2474
  242MOL    C4434266   6.750   2.559   7.088  0.2744  0.3197  0.2758
  242MOL    C4534267   6.888   2.612   7.082  0.1769 -0.4100 -0.0089
  242MOL    O4634268   6.908   2.651   6.942  0.0393 -0.3227 -0.5212
  242MOL    H4734269   6.738   2.480   7.015  1.9032  0.4303 -0.1250
  242MOL    H4834270   6.687   2.644   7.060  0.5640  1.3322  2.5379
  242MOL    H4934271   6.959   2.533   7.106 -1.3988 -1.7829  0.1815
  242MOL    H5034272   6.831   2.696   6.913 -2.4368 -2.7235  1.9834
  242MOL    C5134273   6.910   2.733   7.172  0.1303  0.0262 -0.3806
  242MOL    C5234274   7.042   2.816   7.171 -0.3059 -0.1811  1.1392
  242MOL    O5334275   7.029   2.925   7.263  0.2741  0.2691  0.7881
  242MOL    H5434276   6.829   2.805   7.162 -0.5519 -0.4411  1.3982
  242MOL    H5534277   6.904   2.705   7.278 -1.2380  1.7652  0.0214
  242MOL    H5634278   7.076   2.856   7.075  2.3324  0.5222  2.3371
  242MOL    H5734279   7.007   3.003   7.215 -0.9478 -0.3795  0.2804
  242MOL    C5834280   7.155   2.733   7.226  0.2940  0.3590  0.2782
  242MOL    C5934281   7.290   2.803   7.223  0.1311 -0.7734  0.3936
  242MOL    O6034282   7.399   2.734   7.280  1.0174  0.0201  0.1409
  242MOL    H6134283   7.138   2.700   7.329  0.4954 -0.0584  0.1773
  242MOL    H6234284   7.164   2.639   7.172 -0.8884  0.9900 -1.0345
  242MOL    H6334285   7.285   2.888   7.291 -1.1578 -0.5050 -0.0238
  242MOL    H6434286   7.469   2.796   7.293  0.3087  1.4436 -2.4751
  242MOL    C6534287   7.342   2.861   7.086 -0.0298 -0.3676 -0.1175
  242MOL    C6634288   7.349   2.771   6.967  0.3326 -0.8985 -0.5065
  242MOL    O6734289   7.397   2.855   6.870  0.4719  0.1241 -0.0611
  242MOL    H6834290   7.278   2.946   7.062  1.8131  1.9142  2.5502
  242MOL    H6934291   7.438   2.908   7.107  1.0414 -1.6437 -2.0007
  242MOL    H7034292   7.243   2.750   6.953 -0.4217  1.3571  1.5867
  242MOL    H7134293   7.383   2.822   6.783 -1.0852 -0.7186  0.4906
  242MOL    C7234294   7.443   2.651   6.989  0.0895  0.6138 -0.7098
  242MOL    C7334295   7.454   2.551   6.877 -0.2294  0.4413  0.3895
  242MOL    O7434296   0.051   2.463   6.899  0.1701  0.3853  0.0242
  242MOL    H7534297   0.025   2.689   7.003  0.1895 -0.2139  0.9905
  242MOL    H7634298   7.426   2.598   7.083 -1.9843  2.5690  0.0699
  242MOL    H7734299   7.464   2.603   6.782  0.0006  0.5052  0.4488
  242MOL    H7834300   0.114   2.521   6.940  0.4768  0.3155 -0.3457
  242MOL    C7934301   7.331   2.460   6.879  0.2201  0.0567  0.5831
  242MOL    C8034302   7.308   2.378   6.756 -0.2311 -0.3327 -0.4303
  242MOL    O8134303   7.408   2.271   6.760 -0.2153  0.3483  0.1514
  242MOL    H8234304   7.317   2.395   6.965 -2.2672  0.5984  0.6177
  242MOL    H8334305   7.243   2.524   6.877  0.1760 -0.0268 -1.1902
  242MOL    H8434306   7.333   2.431   6.663  2.5075 -1.9497 -0.6764
  242MOL    H8534307   7.481   2.297   6.814 -1.1094  1.2339  0.9486
  242MOL    C8634308   7.176   2.306   6.744 -0.0699  0.1848 -0.3436
  242MOL    C8734309   7.052   2.383   6.699  0.7937  0.0288 -0.2592
  242MOL    O8834310   7.075   2.456   6.585  0.0746  0.0914 -1.0758
  242MOL    H8934311   7.195   2.230   6.668  0.5072  0.3440 -0.3673
  242MOL    H9034312   7.153   2.251   6.835  3.3202  0.0378  0.5069
  242MOL    H9134313   7.026   2.452   6.779 -1.3987 -0.0918 -0.8341
  242MOL    H9234314   6.997   2.510   6.588 -1.6712 -2.4725  3.3253
  242MOL    C9334315   6.930   2.293   6.684  0.5868 -0.2494 -0.2799
  242MOL    C9434316   6.886   2.218   6.809  0.4813  0.5096  1.3291
  242MOL    O9534317   6.751   2.205   6.802  0.0176  0.1446 -0.4393
  242MOL    H9634318   6.842   2.348   6.651 -1.2424 -3.6846 -1.4030
  242MOL    H9734319   6.952   2.209   6.617 -0.8279 -1.1292  0.3172
  242MOL    H9834320   6.900   2.271   6.904  1.4267  1.3822  0.7023
  242MOL    H9934321   6.730   2.117   6.831  1.5533 -0.7893 -2.0991
  242MOL   C10034322   6.941   2.073   6.817  0.1857 -0.2367 -0.0723
  242MOL   C10134323   6.913   2.011   6.962 -0.4471 -0.0017  0.0212
  242MOL   O10234324   6.772   1.993   6.970 -0.1353 -0.3114 -0.7351
  242MOL   H10334325   6.887   2.015   6.743  0.0060  0.0026 -0.1309
  242MOL   H10434326   7.046   2.075   6.786  0.9000 -1.4215  2.1816
  242MOL   H10534327   6.951   2.091   7.025  0.9304  0.6661 -1.6231
  242MOL   H10634328   6.737   1.972   7.055 -0.4115  0.0642 -0.7553
  242MOL   C10734329   6.973   1.873   6.999 -0.1675 -0.1059 -0.4217
  242MOL   C10834330   7.127   1.867   6.984  0.4834  0.5776 -0.0038
  242MOL   O10934331   7.192   1.961   7.065 -0.4045 -0.1194 -0.4041
  242MOL   H11034332   6.939   1.844   7.099  0.5998 -1.0882 -0.4356
  242MOL   H11134333   6.926   1.792   6.943 -0.9953 -1.4801  2.1633
  242MOL   H11234334   7.138   1.887   6.877 -1.1287 -0.5170 -0.4062
  242MOL   H11334335   7.276   1.976   7.024  0.9391 -0.0110  2.2693
  242MOL   C11434336   7.179   1.724   7.002 -0.4933 -0.4673 -0.4988
  242MOL   C11534337   7.156   1.623   6.886 -0.6672  0.3270  0.1196
  242MOL   O11634338   7.272   1.602   6.808  0.2903 -0.6480 -0.1588
  242MOL   H11734339   7.285   1.728   7.029 -0.8104 -1.8586  0.9743
  242MOL   H11834340   7.149   1.683   7.098 -0.2946  0.3551 -0.0733
  242MOL   H11934341   7.070   1.655   6.828 -2.3345 -1.4682  1.5074
  242MOL   H12034342   7.282   1.677   6.751 -1.6509  1.3017  1.9838
  242MOL   C12134343   7.123   1.484   6.930  0.8207  0.2099  0.1788
  242MOL   C12234344   6.986   1.464   7.008 -0.1845 -0.4236  0.7879
  242MOL   O12334345   6.879   1.479   6.912 -0.0158  0.4906  0.4411
  242MOL   H12434346   7.132   1.409   6.851  2.4867 -0.1374  0.6625
  242MOL   H12534347   7.200   1.452   7.000  0.5728  0.6532  0.6511
  242MOL   H12634348   6.989   1.548   7.077 -1.9288  0.4311 -0.1577
  242MOL   H12734349   6.805   1.427   6.939 -2.2278  1.5231 -3.3837
  242MOL   C12834350   6.981   1.329   7.076 -0.3033  0.2178  0.2407
  242MOL   C12934351   6.864   1.314   7.180  0.0110  0.5001 -0.2204
  242MOL   O13034352   6.740   1.333   7.115 -0.4361 -0.5485 -0.1127
  242MOL   H13134353   6.979   1.256   6.996 -0.3152  1.3448 -0.8014
  242MOL   H13234354   7.083   1.318   7.114 -0.6902  0.7595  1.4761
  242MOL   H13334355   6.876   1.392   7.255 -3.1378 -1.1241  2.0835
  242MOL   H13434356   6.736   1.255   7.062 -0.9033 -0.8455  0.3579
  242MOL   C13534357   6.863   1.179   7.251  0.6951  0.3534  0.2206
  242MOL   C13634358   6.975   1.153   7.350  0.0175 -0.2121 -0.4467
  242MOL   O13734359   6.938   1.043   7.428  0.1945 -0.2097  0.4218
  242MOL   H13834360   6.768   1.162   7.301  0.0980  0.1882 -0.9600
  242MOL   H13934361   6.871   1.107   7.171 -2.9787  1.8657 -1.6030
  242MOL   H14034362   7.012   1.236   7.410  2.3259 -0.1661 -1.8870
  242MOL   H14134363   7.006   1.040   7.493 -0.7240 -1.3243  1.3356
  242MOL   H14234364   7.054   1.115   7.285 -1.2343  0.6866 -2.5548
  243MOL     C134365   0.448   5.859   0.467 -0.2517  0.7014  0.5689
  243MOL     C234366   0.449   5.722   0.532 -0.1329 -0.5652  0.3047
  243MOL     O334367   0.491   5.741   0.666 -0.2922  0.2660  0.3141
  243MOL     H434368   0.552   5.891   0.473 -0.7684  2.6061 -0.2611
  243MOL     H534369   0.365   5.910   0.516 -0.4578 -0.1954  1.1624
  243MOL     H634370   0.512   5.652   0.478  0.4366 -1.2897  1.8644
  243MOL     H734371   0.434   5.812   0.693 -0.2807 -0.3813  2.1269
  243MOL     H834372   0.430   5.850   0.360  0.5471  3.7409  0.1418
  243MOL     C934373   0.304   5.674   0.536 -0.3556  0.1996 -0.0237
  243MOL    C1034374   0.253   5.607   0.404 -0.3698 -0.1587  0.1148
  243MOL    O1134375   0.331   5.490   0.383 -0.4882 -0.3518 -0.2866
  243MOL    H1234376   0.293   5.608   0.622  2.8280 -0.3204  0.0293
  243MOL    H1334377   0.234   5.754   0.560 -0.8128 -0.2859  0.2887
  243MOL    H1434378   0.276   5.660   0.311  0.0326 -2.4164 -1.1004
  243MOL    H1534379   0.291   5.412   0.416  1.1564 -0.4300  1.5638
  243MOL    C1634380   0.099   5.573   0.424 -0.0836  0.1921  0.6967
  243MOL    C1734381   0.002   5.676   0.362  0.0389  0.7271 -0.4133
  243MOL    O1834382   7.395   5.619   0.379  0.2452 -0.1398  0.0486
  243MOL    H1934383   0.072   5.478   0.378  1.2867 -0.1862  0.6395
  243MOL    H2034384   0.081   5.558   0.530 -2.4252  2.3692  0.6412
  243MOL    H2134385   0.028   5.683   0.257 -0.1553 -2.3354 -0.7123
  243MOL    H2234386   7.377   5.540   0.331 -0.8053  1.5746 -2.4922
  243MOL    C2334387   0.002   5.811   0.424 -0.0063 -0.1724  0.4123
  243MOL    C2434388   7.432   5.924   0.373  0.0452  0.3600 -0.1489
  243MOL    O2534389   7.451   6.032   0.461 -0.4079 -0.3431  0.1319
  243MOL    H2634390   7.511   5.802   0.533 -0.3557  0.4074  0.4263
  243MOL    H2734391   0.100   5.856   0.408  0.3146 -0.8085  0.5728
  243MOL    H2834392   7.327   5.904   0.394  0.4181 -1.7089 -0.1397
  243MOL    H2934393   0.014   6.073   0.440 -1.4206  1.3090 -0.7395
  243MOL    C3034394   7.451   5.964   0.227 -0.2402  0.5155 -0.1955
  243MOL    C3134395   0.075   6.003   0.182  0.4518  0.0138 -0.3127
  243MOL    O3234396   0.147   5.880   0.184 -0.0738 -0.4900 -0.3335
  243MOL    H3334397   7.412   5.879   0.171 -0.4271  1.3089 -1.2990
  243MOL    H3434398   7.392   6.047   0.189  1.1609  1.1318 -1.0737
  243MOL    H3534399   0.118   6.073   0.253  1.1796  1.1720 -1.8568
  243MOL    H3634400   0.235   5.887   0.149 -0.2132 -1.4649 -0.8943
  243MOL    C3734401   0.089   6.068   0.045 -0.1342 -0.7957 -0.7278
  243MOL    C3834402   0.229   6.131   0.015  0.4032  0.1384 -0.4924
  243MOL    O3934403   0.339   6.055   0.040  0.0420 -0.2622  0.0857
  243MOL    H4034404   0.065   5.992   7.490 -1.0386  0.2612 -1.5244
  243MOL    H4134405   7.519   6.127   0.026 -1.2602 -1.1515  2.9839
  243MOL    H4234406   0.226   6.228   0.065  0.5843  0.0191 -0.2468
  243MOL    H4334407   0.394   6.047   7.483 -0.9105 -0.1533 -0.6186
  243MOL    C4434408   0.232   6.161   7.386 -0.4770  0.3347  0.1828
  243MOL    C4534409   0.311   6.293   7.359  0.2626  0.4333 -0.2544
  243MOL    O4634410   0.343   6.292   7.223 -0.1682  0.2397 -0.3607
  243MOL    H4734411   0.290   6.086   7.331 -1.1701 -1.4102  1.7697
  243MOL    H4834412   0.133   6.176   7.344 -0.6425 -0.7262  0.1744
  243MOL    H4934413   0.408   6.295   7.408  1.3511  0.0942 -2.3157
  243MOL    H5034414   0.366   6.203   7.202 -0.9473  0.3432 -1.7402
  243MOL    C5134415   0.234   6.425   7.394 -0.0483  0.1451  0.6426
  243MOL    C5234416   0.316   6.559   7.400  0.0227 -0.3602 -0.2970
  243MOL    O5334417   0.221   6.665   7.406  0.3698 -0.2409  0.0422
  243MOL    H5434418   0.149   6.437   7.327 -0.7370 -1.0233  1.2960
  243MOL    H5534419   0.175   6.411   7.485 -0.4755 -1.8903  0.0679
  243MOL    H5634420   0.379   6.566   7.312  0.0566 -2.3673 -0.4506
  243MOL    H5734421   0.213   6.694   7.316 -1.4082 -3.0338 -0.7529
  243MOL    C5834422   0.408   6.572   0.004  0.2942  0.3445 -0.7377
  243MOL    C5934423   0.495   6.699   0.005 -0.1352  0.1417  0.0051
  243MOL    O6034424   0.554   6.695   0.134  0.0728 -0.0266 -0.0096
  243MOL    H6134425   0.349   6.584   0.095  1.6028 -0.0325  0.1634
  243MOL    H6234426   0.475   6.489   0.021  1.7889  1.9176  1.3780
  243MOL    H6334427   0.432   6.788   7.517  1.4513  1.5121  2.3767
  243MOL    H6434428   0.546   6.781   0.173  0.5038 -0.5901  1.3443
  243MOL    C6534429   0.603   6.701   7.415 -0.3824  0.0254  0.0910
  243MOL    C6634430   0.620   6.849   7.365  0.5545 -0.6150 -0.2764
  243MOL    O6734431   0.691   6.930   7.458  0.6175 -0.0401  0.0215
  243MOL    H6834432   0.700   6.668   7.451  0.0906  0.3355 -0.8716
  243MOL    H6934433   0.573   6.634   7.335  0.0303  1.3846 -1.2212
  243MOL    H7034434   0.524   6.901   7.354 -0.1509 -1.6468  0.9120
  243MOL    H7134435   0.641   6.934   0.019 -1.4307 -0.9515 -1.1576
  243MOL    C7234436   0.711   6.848   7.246  0.4263 -0.5209 -0.9052
  243MOL    C7334437   0.659   6.942   7.137 -0.7443  0.4620 -0.3936
  243MOL    O7434438   0.756   6.956   7.037  0.3346  0.6715 -0.1308
  243MOL    H7534439   0.814   6.867   7.275  0.7185 -1.1097 -1.5392
  243MOL    H7634440   0.704   6.746   7.207 -1.3937 -1.1250  0.8873
  243MOL    H7734441   0.648   7.038   7.187 -0.0126  0.8736 -1.0087
  243MOL    H7834442   0.785   7.045   7.050 -0.3881  0.8083  0.6285
  243MOL    C7934443   0.521   6.907   7.079  0.3752 -0.5517  0.4606
  243MOL    C8034444   0.466   7.009   6.973 -0.2796 -0.2220  0.0237
  243MOL    O8134445   0.350   6.943   6.925  0.5105 -0.1828 -0.0741
  243MOL    H8234446   0.542   6.810   7.036 -0.0198 -0.4647  0.0760
  243MOL    H8334447   0.451   6.888   7.161  2.5075 -0.5547  2.3519
  243MOL    H8434448   0.531   7.019   6.886 -1.4459 -0.5116 -0.9054
  243MOL    H8534449   0.303   7.021   6.899  3.1171  1.0994 -1.1746
  243MOL    C8634450   0.424   7.151   7.030 -0.4253  0.4743  0.7903
  243MOL    C8734451   0.390   7.249   6.916 -0.0819  0.3910 -1.0162
  243MOL    O8834452   0.304   7.194   6.829  0.3136  0.2900  0.0196
  243MOL    H8934453   0.346   7.149   7.106 -0.3306 -3.3416  0.8665
  243MOL    H9034454   0.514   7.193   7.076  0.2329  0.9118 -0.8907
  243MOL    H9134455   0.477   7.273   6.856 -0.1096  3.4824  0.1101
  243MOL    H9234456   0.356   7.179   6.751 -1.4687  0.7198 -1.2708
  243MOL    C9334457   0.342   7.385   6.979  0.0307  0.3306  0.1147
  243MOL    C9434458   0.437   7.490   7.026 -0.5851 -0.3986 -0.2888
  243MOL    O9534459   0.480   7.441   7.151 -0.1400 -0.4494  0.0692
  243MOL    H9634460   0.299   7.441   6.895 -1.2634 -0.7023  0.0727
  243MOL    H9734461   0.259   7.376   7.049  1.1441  2.0385  1.7021
  243MOL    H9834462   0.377   0.061   7.035 -1.6424 -1.0825 -0.3043
  243MOL    H9934463   0.556   7.489   7.179 -0.3041  1.0186 -1.9324
  243MOL   C10034464   0.559   0.001   6.936 -0.6562 -0.6754 -0.1850
  243MOL   C10134465   0.520   0.084   6.809  0.1322 -0.1339  0.5375
  243MOL   O10234466   0.453   0.203   6.836  0.2287  0.3049 -0.1904
  243MOL   H10334467   0.635   0.064   6.983 -1.2008 -0.1690  0.0241
  243MOL   H10434468   0.604   7.424   6.914 -3.6434 -2.1927  0.0617
  243MOL   H10534469   0.457   0.020   6.747 -0.6938  1.8358 -0.7166
  243MOL   H10634470   0.432   0.240   6.752 -1.4449 -0.5366 -0.1608
  243MOL   C10734471   0.650   0.117   6.734 -0.0658  0.3866  0.2600
  243MOL   C10834472   0.629   0.156   6.585 -0.0579  0.6649 -0.0510
  243MOL   O10934473   0.547   0.275   6.567  0.4123  0.0439 -0.4117
  243MOL   H11034474   0.698   0.200   6.785  1.0784 -1.4885  2.3289
  243MOL   H11134475   0.713   0.028   6.739 -0.1187  0.4068  1.3293
  243MOL   H11234476   0.588   0.068   6.536 -0.0663  1.0035 -0.6597
  243MOL   H11334477   0.601   0.350   6.549 -2.1908  1.7770 -1.2409
  243MOL   C11434478   0.762   0.173   6.518 -0.2080 -0.4760  0.0667
  243MOL   C11534479   0.760   0.131   6.365  0.0648 -0.4364 -0.1604
  243MOL   O11634480   0.741   0.254   6.292  0.5153  0.0400 -0.1052
  243MOL   H11734481   0.807   0.266   6.551 -1.4988  0.2824 -0.2789
  243MOL   H11834482   0.828   0.103   6.571  1.5885  1.6562  0.7243
  243MOL   H11934483   0.679   0.063   6.339 -0.9903  1.1443 -1.1174
  243MOL   H12034484   0.660   0.291   6.323 -1.0260 -0.4674 -3.3300
  243MOL   C12134485   0.889   0.069   6.317  0.2492 -0.2840 -0.7503
  243MOL   C12234486   0.880   0.014   6.167  0.4660 -0.4679 -0.5311
  243MOL   O12334487   0.894   0.122   6.081  0.2900  0.3981 -0.0178
  243MOL   H12434488   0.976   0.129   6.341 -0.4928  0.8852 -0.9243
  243MOL   H12534489   0.918   7.505   6.380 -1.1736 -0.7837 -0.7405
  243MOL   H12634490   0.777   7.496   6.161  0.1019  0.6681 -1.7877
  243MOL   H12734491   0.829   0.184   6.111  2.3426  2.9688 -0.7101
  243MOL   C12834492   0.977   7.423   6.124 -0.1901  0.3957  0.3502
  243MOL   C12934493   0.967   7.292   6.212 -0.0212  0.6838  0.3387
  243MOL   O13034494   0.837   7.232   6.216 -0.8103 -0.6462  0.0136
  243MOL   H13134495   0.952   7.401   6.021 -2.3475 -0.2225  0.9897
  243MOL   H13234496   1.071   7.479   6.127 -1.4782  2.5648  2.1165
  243MOL   H13334497   0.973   7.319   6.317  0.1928 -1.1536  0.8222
  243MOL   H13434498   0.795   7.270   6.292 -0.8996  0.9859 -0.8131
  243MOL   C13534499   1.073   7.186   6.177  0.2093 -0.6870 -0.3873
  243MOL   C13634500   1.215   7.228   6.143  0.0287  0.1850  0.1557
  243MOL   O13734501   1.285   7.122   6.066  0.0942  0.3451  0.0864
  243MOL   H13834502   1.068   7.109   6.254  0.7366 -2.2162 -1.8471
  243MOL   H13934503   1.044   7.132   6.087  3.6441 -0.9627 -1.4069
  243MOL   H14034504   1.270   7.271   6.227 -0.0771 -1.9465  1.3284
  243MOL   H14134505   1.334   7.075   6.132  3.2752  0.4600 -2.0609
  243MOL   H14234506   1.200   7.308   6.070  1.7529 -1.0437 -1.6092
  244MOL     C134507   7.172   4.606   3.682  0.0765  0.2038 -0.6691
  244MOL     C234508   7.206   4.538   3.553 -0.2739 -0.2572 -0.2758
  244MOL     O334509   7.120   4.427   3.527  0.4094 -0.2832 -0.5349
  244MOL     H434510   7.248   4.680   3.705 -1.4404  2.2312 -2.0004
  244MOL     H534511   7.166   4.535   3.765  0.0973  2.8679  1.6764
  244MOL     H634512   7.306   4.498   3.568 -0.6381 -0.1590  2.5961
  244MOL     H734513   7.176   4.359   3.492  0.5934  0.2973 -1.4002
  244MOL     H834514   7.076   4.657   3.684 -0.6664 -1.2192  1.2019
  244MOL     C934515   7.203   4.643   3.433 -0.3870  0.2264  0.1467
  244MOL    C1034516   7.272   4.606   3.299 -0.3280 -0.3496 -0.2926
  244MOL    O1134517   7.267   4.727   3.223 -0.3042 -0.2135  1.2193
  244MOL    H1234518   7.103   4.677   3.405 -0.8716 -1.8666 -0.7617
  244MOL    H1334519   7.232   4.741   3.469  0.5016 -0.0183  0.0968
  244MOL    H1434520   7.228   4.518   3.253 -0.9886 -0.0804 -0.1841
  244MOL    H1534521   7.295   4.797   3.279  0.4275 -1.2394  2.1585
  244MOL    C1634522   7.417   4.561   3.334 -0.3556  0.0616  0.1802
  244MOL    C1734523   7.498   4.538   3.207  0.5588 -0.0957  0.8030
  244MOL    O1834524   0.117   4.515   3.237  0.1799  0.0274  0.1115
  244MOL    H1934525   7.471   4.628   3.401 -0.2402 -1.2280  1.3996
  244MOL    H2034526   7.417   4.468   3.391 -1.7415 -0.5382 -0.7727
  244MOL    H2134527   7.493   4.612   3.128 -0.1863 -2.1020 -1.0741
  244MOL    H2234528   0.158   4.479   3.160 -0.3615  2.4276 -1.3562
  244MOL    C2334529   7.446   4.407   3.133  0.0975  0.0071 -0.3453
  244MOL    C2434530   7.506   4.367   2.992  0.1105 -0.2072  0.7053
  244MOL    O2534531   0.111   4.307   3.012 -0.3128 -0.1748 -0.4575
  244MOL    H2634532   7.450   4.326   3.206  2.9377  0.2227 -0.2263
  244MOL    H2734533   7.338   4.413   3.115 -0.5501  0.8315  3.3324
  244MOL    H2834534   0.002   4.464   2.944 -0.5630 -1.8625 -2.9755
  244MOL    H2934535   0.147   4.280   2.928 -0.4969 -0.1880 -0.5323
  244MOL    C3034536   7.410   4.281   2.905  0.2617 -0.0171  0.1062
  244MOL    C3134537   7.379   4.319   2.763  0.1729 -0.4912  0.8794
  244MOL    O3234538   7.309   4.209   2.710 -0.0774  0.4812 -0.0261
  244MOL    H3334539   7.457   4.182   2.905 -2.0647 -1.1692 -0.4130
  244MOL    H3434540   7.322   4.246   2.961  1.3298 -2.2011  0.4719
  244MOL    H3534541   7.474   4.333   2.712  1.0895  1.6261  3.0680
  244MOL    H3634542   7.241   4.184   2.771  0.7882 -1.6400  0.1061
  244MOL    C3734543   7.283   4.438   2.756  0.1419 -0.3770 -0.2753
  244MOL    C3834544   7.258   4.503   2.617  0.2025  0.3194 -0.1763
  244MOL    O3934545   7.153   4.607   2.619 -0.4338 -0.3194  0.3848
  244MOL    H4034546   7.195   4.398   2.807 -0.2893 -0.4271 -1.0426
  244MOL    H4134547   7.327   4.519   2.813  1.1279 -0.9723 -0.1815
  244MOL    H4234548   7.221   4.423   2.553 -0.2535  0.3212  0.0855
  244MOL    H4334549   7.118   4.614   2.707 -1.3627  0.4779 -0.0320
  244MOL    C4434550   7.382   4.576   2.556 -0.1698 -0.1545  0.1629
  244MOL    C4534551   7.425   4.704   2.624 -0.4073 -0.1242  0.2730
  244MOL    O4634552   7.508   4.678   2.736  0.5682 -0.6606  0.5286
  244MOL    H4734553   7.469   4.512   2.571  2.5051  2.6059 -2.5788
  244MOL    H4834554   7.365   4.587   2.449  0.0849  0.9594  0.2337
  244MOL    H4934555   7.339   4.748   2.673  1.6362  3.0930  1.1836
  244MOL    H5034556   7.503   4.745   2.803  3.9181  0.2049  0.0004
  244MOL    C5134557   7.510   4.805   2.546  0.5013  0.1129 -0.2133
  244MOL    C5234558   7.432   4.871   2.431  0.4279 -0.9803  0.5681
  244MOL    O5334559   7.338   4.959   2.485 -0.0561  0.1128 -0.1599
  244MOL    H5434560   0.043   4.885   2.598  0.2300 -0.3090  0.7351
  244MOL    H5534561   0.070   4.750   2.496 -0.8649 -0.1716 -2.1073
  244MOL    H5634562   7.386   4.792   2.371 -0.6805 -0.6702  0.9893
  244MOL    H5734563   7.262   4.904   2.483  0.5168 -0.7987  1.8633
  244MOL    C5834564   0.003   4.946   2.327  0.1024  0.2396 -0.9449
  244MOL    C5934565   0.090   4.865   2.230 -0.4233  0.4526  0.0194
  244MOL    O6034566   0.004   4.809   2.126  0.6614 -0.0540 -0.0218
  244MOL    H6134567   7.472   5.027   2.275 -1.3229  0.5594  0.8713
  244MOL    H6234568   0.068   5.009   2.388 -3.0986 -0.2958  3.2212
  244MOL    H6334569   0.131   4.783   2.288  0.0225  1.1959  0.7694
  244MOL    H6434570   7.444   4.770   2.160  1.4171 -2.6797 -1.1638
  244MOL    C6534571   0.197   4.963   2.172 -0.5882 -0.3741  0.5270
  244MOL    C6634572   0.289   4.908   2.060  0.8386  0.1994  1.0481
  244MOL    O6734573   0.367   5.012   2.007 -0.0502  0.1519 -0.3286
  244MOL    H6834574   0.152   5.057   2.142  0.8384 -0.2028 -1.1241
  244MOL    H6934575   0.267   4.979   2.254 -3.0485  0.7121  2.4912
  244MOL    H7034576   0.230   4.873   1.975  1.9483 -0.3811  0.5065
  244MOL    H7134577   0.410   5.053   2.081  1.6163  0.6079 -1.5135
  244MOL    C7234578   0.377   4.791   2.116 -0.5165 -0.2545  0.4585
  244MOL    C7334579   0.405   4.682   2.020  0.2861 -0.1406  0.1991
  244MOL    O7434580   0.508   4.600   2.078  0.3602 -0.4180 -0.0724
  244MOL    H7534581   0.472   4.838   2.141 -1.4131  1.1106  1.3808
  244MOL    H7634582   0.354   4.758   2.217 -0.1333 -0.9780  0.3131
  244MOL    H7734583   0.444   4.725   1.928 -1.5700  0.8785 -0.1229
  244MOL    H7834584   0.510   4.516   2.036  0.4667  0.2792 -1.4892
  244MOL    C7934585   0.279   4.585   2.003 -0.0799 -0.0443  0.4322
  244MOL    C8034586   0.291   4.478   1.893 -0.2726  0.0495  0.3310
  244MOL    O8134587   0.333   4.362   1.964  0.0924  0.7904  0.4193
  244MOL    H8234588   0.248   4.545   2.099  0.6947  1.2219  1.2221
  244MOL    H8334589   0.192   4.645   1.976  0.7749  1.6061  1.2781
  244MOL    H8434590   0.362   4.510   1.818 -0.6122 -2.0734 -0.9292
  244MOL    H8534591   0.425   4.376   1.975  0.0199 -0.3090  2.7789
  244MOL    C8634592   0.162   4.448   1.821  0.5446 -0.2324  0.0617
  244MOL    C8734593   0.088   4.558   1.731  0.1186  0.7219 -0.0755
  244MOL    O8834594   0.154   4.616   1.625 -0.1383  0.0657 -0.8320
  244MOL    H8934595   0.181   4.360   1.761  0.4915 -0.5802  0.5537
  244MOL    H9034596   0.087   4.409   1.890 -1.9110  1.0312 -1.8153
  244MOL    H9134597   0.076   4.645   1.796  0.7997 -0.3257  1.4905
  244MOL    H9234598   0.167   4.559   1.550 -1.0245  0.6190 -1.4059
  244MOL    C9334599   7.468   4.508   1.680 -0.1219 -0.1281  0.4265
  244MOL    C9434600   7.354   4.618   1.673 -0.0423  0.4427  0.0262
  244MOL    O9534601   7.250   4.571   1.601  0.4067  0.3913  0.1512
  244MOL    H9634602   7.492   4.488   1.576 -2.0726 -0.2713 -0.0034
  244MOL    H9734603   7.438   4.413   1.724 -1.8740  1.1868  2.2148
  244MOL    H9834604   7.378   4.715   1.630  0.0482 -0.5355 -2.2166
  244MOL    H9934605   7.272   4.592   1.511 -1.6278  0.4869 -0.3647
  244MOL   C10034606   7.307   4.647   1.820  0.0329 -0.5626  0.7286
  244MOL   C10134607   7.199   4.759   1.833  0.1198 -0.2128 -0.7327
  244MOL   O10234608   7.076   4.710   1.796 -0.6000  0.1554 -0.0684
  244MOL   H10334609   7.282   4.552   1.866  0.3957 -1.9606 -1.8541
  244MOL   H10434610   7.397   4.686   1.868 -0.1979  0.1558  0.5926
  244MOL   H10534611   7.202   4.840   1.760 -1.1156 -0.3585 -0.9624
  244MOL   H10634612   7.097   4.679   1.709 -0.5647  1.1583 -0.4214
  244MOL   C10734613   7.192   4.814   1.982 -0.2142  0.0988  0.5496
  244MOL   C10834614   7.154   4.721   2.102  0.5070 -0.5398  0.2220
  244MOL   O10934615   7.277   4.658   2.139 -0.5617 -0.6698 -0.1893
  244MOL   H11034616   7.292   4.855   2.000 -0.7896  1.4250  0.7978
  244MOL   H11134617   7.121   4.896   1.986 -0.9635 -0.6255  3.3341
  244MOL   H11234618   7.079   4.645   2.078 -0.3906  0.4161 -0.0106
  244MOL   H11334619   7.288   4.580   2.088  2.0283 -0.0248 -0.6837
  244MOL   C11434620   7.112   4.808   2.220 -0.2046 -0.3285  0.0554
  244MOL   C11534621   7.064   4.737   2.350 -0.2555 -0.0403 -0.4071
  244MOL   O11634622   7.123   4.802   2.459 -0.4872  0.5877  0.2899
  244MOL   H11734623   7.201   4.863   2.249 -1.2912  1.0544  0.8575
  244MOL   H11834624   7.037   4.884   2.197  0.4236  0.3811  0.3285
  244MOL   H11934625   7.104   4.636   2.356 -0.2104  0.0455  1.1053
  244MOL   H12034626   7.125   4.737   2.528 -0.0985  0.1640 -0.1146
  244MOL   C12134627   6.911   4.755   2.369  0.0922  0.0949  0.5213
  244MOL   C12234628   6.839   4.678   2.484  0.3622  0.1616 -0.9431
  244MOL   O12334629   6.709   4.728   2.489 -0.1425  0.2891  0.2207
  244MOL   H12434630   6.886   4.861   2.376 -0.6710 -0.1534  1.6902
  244MOL   H12534631   6.859   4.743   2.275  0.3214  3.2874 -0.0825
  244MOL   H12634632   6.882   4.697   2.583  2.0974  0.3420 -1.7131
  244MOL   H12734633   6.702   4.822   2.492 -2.1256  0.2741 -2.2987
  244MOL   C12834634   6.832   4.519   2.482 -0.0922 -0.4039 -0.6869
  244MOL   C12934635   6.787   4.453   2.617 -0.2485  0.1805 -0.3287
  244MOL   O13034636   6.696   4.542   2.679  0.1195 -0.1014  0.2660
  244MOL   H13134637   6.748   4.493   2.418 -0.4842  0.8829 -0.7097
  244MOL   H13234638   6.926   4.479   2.444  0.5616 -0.7572  1.2536
  244MOL   H13334639   6.874   4.449   2.681 -1.2043 -0.9063  0.9215
  244MOL   H13434640   6.682   4.609   2.614  1.0784 -0.4615 -0.3206
  244MOL   C13534641   6.732   4.315   2.598  0.2504  0.1814  0.1344
  244MOL   C13634642   6.833   4.229   2.526  0.1036 -0.4350  0.3912
  244MOL   O13734643   6.770   4.104   2.502  0.2179 -0.2248 -0.0136
  244MOL   H13834644   6.696   4.268   2.690  0.8618 -0.5363  0.0132
  244MOL   H13934645   6.643   4.333   2.536  0.8034 -0.4986 -0.8624
  244MOL   H14034646   6.930   4.222   2.577  1.2772 -0.2432 -1.7863
  244MOL   H14134647   6.688   4.118   2.458  0.1491  1.9896  0.7995
  244MOL   H14234648   6.858   4.271   2.429  0.1001 -1.1896  0.0564
  245MOL     C134649   7.467   2.371   1.056  0.4015 -0.2291  0.2382
  245MOL     C234650   0.022   2.301   0.935  0.2076  0.4655 -0.4726
  245MOL     O334651   0.159   2.337   0.935 -0.3374  0.0187 -0.1217
  245MOL     H434652   7.478   2.479   1.066 -0.7650 -0.1293  0.4881
  245MOL     H534653   7.497   2.326   1.150  0.0568 -2.3251 -0.6174
  245MOL     H634654   7.498   2.343   0.845 -0.9091  1.2146  0.4096
  245MOL     H734655   0.192   2.284   0.864 -1.2425 -0.5392 -0.1375
  245MOL     H834656   7.362   2.349   1.039  0.2979  0.7634 -0.4777
  245MOL     C934657   0.009   2.151   0.958 -0.3528 -0.5334  0.3759
  245MOL    C1034658   7.388   2.094   0.967 -0.0964 -0.4364  0.2232
  245MOL    O1134659   7.311   2.132   0.857  0.6972  0.0374 -0.1135
  245MOL    H1234660   0.056   2.116   0.866  0.4062 -1.8942  1.2741
  245MOL    H1334661   0.066   2.115   1.043 -0.0624 -0.7899  0.0740
  245MOL    H1434662   7.325   2.128   1.049 -0.7711 -0.6371 -0.2100
  245MOL    H1534663   7.357   2.103   0.780 -1.3049  1.0450 -1.7202
  245MOL    C1634664   7.392   1.940   0.987 -0.3145  0.4488  0.1584
  245MOL    C1734665   7.261   1.864   0.989  0.6266 -0.2773  0.7796
  245MOL    O1834666   7.282   1.723   0.986 -0.2733  0.2583  0.2565
  245MOL    H1934667   7.446   1.899   0.902 -1.1336  1.4536 -0.8677
  245MOL    H2034668   7.457   1.919   1.072 -0.6477 -0.6476  0.1458
  245MOL    H2134669   7.215   1.894   0.895 -0.8244 -1.6612  1.0395
  245MOL    H2234670   7.232   1.675   1.050  0.0432 -2.2036 -1.2247
  245MOL    C2334671   7.170   1.885   1.113 -0.0588  0.6003  0.8417
  245MOL    C2434672   7.027   1.825   1.130 -0.0482 -0.0101  0.1032
  245MOL    O2534673   6.996   1.824   1.269 -0.3866 -0.3799 -0.2352
  245MOL    H2634674   7.224   1.845   1.199  0.7934 -0.2125 -0.0599
  245MOL    H2734675   7.157   1.992   1.130  2.9723  1.2475 -0.5968
  245MOL    H2834676   7.032   1.725   1.087 -0.6146  0.1186 -0.2721
  245MOL    H2934677   7.012   1.909   1.309  3.3819 -0.1322 -2.0926
  245MOL    C3034678   6.927   1.900   1.044  0.7352 -0.9504 -0.0440
  245MOL    C3134679   6.799   1.822   1.019 -0.4313  1.0222 -0.8339
  245MOL    O3234680   6.680   1.894   1.051  0.2028  1.1558  0.1728
  245MOL    H3334681   6.905   1.999   1.084 -1.0528 -0.1320 -2.8921
  245MOL    H3434682   6.971   1.926   0.948  0.2756  1.1125  0.2807
  245MOL    H3534683   6.803   1.730   1.077 -0.2654  0.2811 -2.0010
  245MOL    H3634684   6.631   1.849   1.119  0.9850  2.4279  1.6015
  245MOL    C3734685   6.776   1.794   0.868 -0.7689 -0.5582 -0.2498
  245MOL    C3834686   6.863   1.691   0.795 -0.4164 -0.6514 -0.8883
  245MOL    O3934687   6.774   1.597   0.734 -0.0934 -0.1518 -0.1515
  245MOL    H4034688   6.674   1.761   0.848 -1.1747  0.1073  0.7025
  245MOL    H4134689   6.790   1.893   0.824  0.6448 -0.1397  1.1000
  245MOL    H4234690   6.930   1.631   0.857  2.3460  0.0430 -3.1003
  245MOL    H4334691   6.734   1.556   0.809 -1.2752  0.6525 -0.3212
  245MOL    C4434692   6.937   1.766   0.689 -0.4576 -0.2549  0.4611
  245MOL    C4534693   7.048   1.701   0.610  0.1429  1.0374 -0.1377
  245MOL    O4634694   7.099   1.789   0.509  0.4109 -0.3569 -0.4050
  245MOL    H4734695   6.859   1.807   0.625  0.9999  2.7054  0.4990
  245MOL    H4834696   6.983   1.856   0.730 -0.5974 -0.2920  0.6985
  245MOL    H4934697   6.999   1.617   0.561  2.8770 -0.6117 -0.1689
  245MOL    H5034698   7.035   1.804   0.441 -0.6790  2.4798  1.1843
  245MOL    C5134699   7.163   1.657   0.703 -0.8745 -0.1650 -0.6371
  245MOL    C5234700   7.255   1.546   0.656 -0.1673  0.1269 -0.0164
  245MOL    O5334701   7.365   1.554   0.743 -0.4263  0.1785 -0.0148
  245MOL    H5434702   7.227   1.744   0.720  0.4684 -1.3475  0.4842
  245MOL    H5534703   7.121   1.626   0.799 -0.0696  0.4442 -0.0789
  245MOL    H5634704   7.294   1.566   0.556 -0.4916  0.2298 -0.1247
  245MOL    H5734705   7.329   1.572   0.828  1.5757  0.9752  0.7066
  245MOL    C5834706   7.202   1.406   0.645 -0.3830 -0.0836 -0.1061
  245MOL    C5934707   7.137   1.372   0.504  0.3279 -0.3300  0.5223
  245MOL    O6034708   7.229   1.316   0.407 -0.3398  0.0487 -0.3070
  245MOL    H6134709   7.286   1.338   0.647  0.6012  1.0474 -1.8979
  245MOL    H6234710   7.144   1.369   0.729  3.0924  0.7019  2.7601
  245MOL    H6334711   7.102   1.467   0.462  2.0227  1.1093  2.2144
  245MOL    H6434712   7.274   1.383   0.358  0.4675 -0.2645  0.0076
  245MOL    C6534713   7.013   1.281   0.507  0.1274 -0.2087 -0.7756
  245MOL    C6634714   6.884   1.358   0.537  0.1513 -0.9980 -0.7780
  245MOL    O6734715   6.841   1.450   0.432 -0.2921  0.2811 -0.2446
  245MOL    H6834716   6.992   1.229   0.414 -2.5833 -0.3478 -0.1304
  245MOL    H6934717   7.039   1.205   0.581 -2.3545 -0.5368 -0.2192
  245MOL    H7034718   6.889   1.420   0.627  1.3947  0.6041 -1.9235
  245MOL    H7134719   6.767   1.496   0.468 -1.2120 -2.1096  1.0113
  245MOL    C7234720   6.762   1.262   0.550 -0.3576 -0.3566 -0.0428
  245MOL    C7334721   6.770   1.128   0.629 -0.3333 -0.1393 -0.4232
  245MOL    O7434722   6.781   1.148   0.769  0.2288 -0.3776  0.3820
  245MOL    H7534723   6.679   1.322   0.586  0.0367 -0.4452  1.0133
  245MOL    H7634724   6.747   1.248   0.443  0.5642  0.4824 -0.2913
  245MOL    H7734725   6.861   1.082   0.590 -0.3227  1.4382 -2.3432
  245MOL    H7834726   6.777   1.061   0.806  1.5346 -1.6277 -2.2819
  245MOL    C7934727   6.650   1.030   0.611  0.0113  0.4156 -0.2609
  245MOL    C8034728   6.663   0.945   0.483 -0.1064 -0.0568 -0.5738
  245MOL    O8134729   6.599   0.822   0.501 -0.3526  0.2898  0.2384
  245MOL    H8234730   6.633   0.962   0.694  0.8129 -0.0129 -0.4367
  245MOL    H8334731   6.554   1.080   0.602 -0.6016 -0.7976 -0.5834
  245MOL    H8434732   6.770   0.929   0.481  0.0166  0.5992  0.7142
  245MOL    H8534733   6.511   0.840   0.530 -0.7786 -0.5957 -0.4688
  245MOL    C8634734   6.618   1.021   0.356 -0.2759 -0.1781  0.6785
  245MOL    C8734735   6.716   1.019   0.230 -0.6521 -0.4931  0.3477
  245MOL    O8834736   6.849   1.025   0.278 -0.4550 -0.3983  0.2693
  245MOL    H8934737   6.520   0.978   0.336 -0.4253  0.3197  0.3174
  245MOL    H9034738   6.598   1.127   0.373  0.8151  0.4912 -1.9317
  245MOL    H9134739   6.695   1.113   0.179  1.5867  1.0367  2.1275
  245MOL    H9234740   6.904   1.056   0.208 -1.5216 -0.7830 -0.7670
  245MOL    C9334741   6.699   0.897   0.140  0.2118  0.5503 -0.7237
  245MOL    C9434742   6.589   0.895   0.029 -0.1397 -0.0095  0.2444
  245MOL    O9534743   6.631   0.980   7.444  0.4201  0.2130 -0.0910
  245MOL    H9634744   6.789   0.872   0.085  0.0904 -0.3812 -0.5030
  245MOL    H9734745   6.692   0.809   0.204 -1.4120  3.0853  2.7924
  245MOL    H9834746   6.495   0.933   0.069 -0.9238 -1.1400 -0.4716
  245MOL    H9934747   6.721   1.004   7.457  1.0676 -2.3858  0.3895
  245MOL   C10034748   6.572   0.756   7.477 -0.2036 -0.4372 -0.5364
  245MOL   C10134749   6.515   0.648   0.050  0.0377  0.2905 -0.3224
  245MOL   O10234750   6.372   0.658   0.040  0.0874  0.5355  0.0328
  245MOL   H10334751   6.499   0.778   7.399 -0.4532  0.9431  0.0873
  245MOL   H10434752   6.664   0.728   7.427 -0.9447 -1.5877 -1.3007
  245MOL   H10534753   6.556   0.657   0.150 -0.6003  1.5021 -0.1592
  245MOL   H10634754   6.334   0.633   0.123 -0.4601 -0.1613 -0.4284
  245MOL   C10734755   6.557   0.501   0.018 -0.3502  0.1500  0.2196
  245MOL   C10834756   6.689   0.451   0.076 -0.0918  0.1706 -0.4608
  245MOL   O10934757   6.780   0.553   0.048  0.0779  0.4595 -0.3746
  245MOL   H11034758   6.471   0.435   0.034  1.1162 -1.6485  0.9316
  245MOL   H11134759   6.564   0.486   7.430  0.5345  0.0519  0.2943
  245MOL   H11234760   6.717   0.357   0.027  0.9288  0.0992  0.2426
  245MOL   H11334761   6.825   0.569   0.130  1.8838  2.1966 -1.6581
  245MOL   C11434762   6.691   0.425   0.230  0.2915 -0.5159  0.1142
  245MOL   C11534763   6.604   0.308   0.283  0.6027 -0.2071 -0.5498
  245MOL   O11634764   6.658   0.187   0.234 -0.5869 -0.5843 -0.4305
  245MOL   H11734765   6.794   0.408   0.261  0.5516  1.8731  0.6965
  245MOL   H11834766   6.673   0.518   0.284 -0.5489 -1.1400  0.9182
  245MOL   H11934767   6.506   0.308   0.235  1.2730  2.7255 -2.0638
  245MOL   H12034768   6.745   0.173   0.268 -0.8132  1.4913  1.1563
  245MOL   C12134769   6.595   0.301   0.437 -0.1898 -0.2076  0.3677
  245MOL   C12234770   6.517   0.420   0.505 -0.2551 -0.1555  0.4218
  245MOL   O12334771   6.378   0.383   0.496 -0.5487 -0.0594 -0.0416
  245MOL   H12434772   6.556   0.204   0.470  0.1244 -0.9203 -1.3145
  245MOL   H12534773   6.699   0.294   0.469 -0.1357  0.2693  0.2960
  245MOL   H12634774   6.542   0.510   0.448  0.7894 -0.0609  1.0098
  245MOL   H12734775   6.367   0.290   0.508  0.1492 -0.3680 -1.6611
  245MOL   C12834776   6.540   0.451   0.653  0.4292 -0.3524  0.6712
  245MOL   C12934777   6.686   0.506   0.680  0.1434  0.7295 -0.2037
  245MOL   O13034778   6.690   0.649   0.701  0.4135  0.2062 -0.0004
  245MOL   H13134779   6.475   0.533   0.686 -0.2850 -1.5111  2.2098
  245MOL   H13234780   6.516   0.369   0.720  2.4397  0.0545  1.9364
  245MOL   H13334781   6.740   0.484   0.588 -0.0227 -2.4174  0.4080
  245MOL   H13434782   6.632   0.679   0.632  2.0955  1.5890 -0.8522
  245MOL   C13534783   6.749   0.446   0.811 -0.1357  0.6757 -0.0987
  245MOL   C13634784   6.897   0.470   0.825 -0.8512 -0.0388  0.0067
  245MOL   O13734785   6.919   0.448   0.964  0.0072 -0.1084  0.2351
  245MOL   H13834786   6.679   0.484   0.886  1.0042  0.7016  0.9597
  245MOL   H13934787   6.730   0.339   0.817  2.4457  0.0921 -1.7934
  245MOL   H14034788   6.925   0.573   0.804  0.5076 -0.7566 -1.7832
  245MOL   H14134789   7.005   0.479   0.990 -1.5288  1.4723  3.7624
  245MOL   H14234790   6.946   0.408   0.751 -0.5900 -0.7365  0.7513
  246MOL     C134791   7.167   1.602   4.716 -0.0542 -0.1849  0.1640
  246MOL     C234792   7.247   1.569   4.595  0.5993 -0.0690 -1.1604
  246MOL     O334793   7.331   1.471   4.640 -0.3008 -0.3153 -0.4866
  246MOL     H434794   7.095   1.523   4.740 -1.6894  1.1349 -0.3003
  246MOL     H534795   7.113   1.690   4.681 -1.6719 -1.4012 -0.4681
  246MOL     H634796   7.305   1.651   4.553 -2.7196  2.0595 -1.7145
  246MOL     H734797   7.400   1.448   4.579  1.2794  0.6389  0.8958
  246MOL     H834798   7.234   1.625   4.799 -1.3406  1.5458  0.7726
  246MOL     C934799   7.156   1.507   4.489 -0.7797  0.5530 -0.2574
  246MOL    C1034800   7.212   1.476   4.355  0.4391 -0.7911 -0.5221
  246MOL    O1134801   7.127   1.380   4.299  0.3168 -0.5014  0.0250
  246MOL    H1234802   7.133   1.411   4.537  2.1766 -0.2183 -0.2762
  246MOL    H1334803   7.064   1.565   4.484 -1.8288 -1.1285 -0.9084
  246MOL    H1434804   7.303   1.420   4.374  1.3010  0.5186 -0.6725
  246MOL    H1534805   7.050   1.387   4.354 -0.1850 -0.3844 -0.6904
  246MOL    C1634806   7.230   1.598   4.256  0.1386  0.1407  0.1151
  246MOL    C1734807   7.316   1.576   4.133 -0.3004 -0.0700 -0.0169
  246MOL    O1834808   7.262   1.478   4.051 -0.0975 -0.2341 -0.0519
  246MOL    H1934809   7.135   1.647   4.230 -0.3432 -0.6977  0.2724
  246MOL    H2034810   7.283   1.680   4.304 -0.1818  0.2386  0.3067
  246MOL    H2134811   7.414   1.541   4.167  0.5517  1.5358 -0.7961
  246MOL    H2234812   7.249   1.396   4.097 -0.4735  1.3291  2.7436
  246MOL    C2334813   7.344   1.699   4.047 -0.0339 -0.0472 -0.1419
  246MOL    C2434814   7.431   1.816   4.102 -0.1534  0.2850 -0.6133
  246MOL    O2534815   0.032   1.768   4.153  0.1096 -0.3751 -0.4674
  246MOL    H2634816   7.389   1.662   3.955  1.3273 -0.5400  0.6960
  246MOL    H2734817   7.246   1.737   4.020 -0.7240 -1.0178  0.9570
  246MOL    H2834818   7.384   1.872   4.182  0.8866 -0.6049  0.6295
  246MOL    H2934819   0.072   1.835   4.206 -0.2999 -0.3526 -0.1880
  246MOL    C3034820   7.481   1.910   3.992  0.2329 -0.7888  0.1694
  246MOL    C3134821   7.367   1.977   3.912  0.1592  0.2913 -0.0514
  246MOL    O3234822   7.270   2.039   3.997  0.2995 -0.4147 -0.0747
  246MOL    H3334823   0.022   1.983   4.045 -0.6088  0.5259 -0.6426
  246MOL    H3434824   0.029   1.863   3.920  3.6946  3.7376  0.2797
  246MOL    H3534825   7.317   1.898   3.855 -0.3927 -0.1322  1.0001
  246MOL    H3634826   7.199   2.063   3.940  0.1624  1.8071  1.0014
  246MOL    C3734827   7.428   2.080   3.810 -0.0357 -0.6337  0.3343
  246MOL    C3834828   0.002   2.027   3.700 -0.0260  0.7762  0.0945
  246MOL    O3934829   7.467   1.921   3.634  0.0840 -0.0877 -0.0469
  246MOL    H4034830   7.342   2.119   3.757 -1.1824  0.9785  3.2757
  246MOL    H4134831   7.464   2.175   3.849 -1.1428 -0.1962  0.2858
  246MOL    H4234832   0.096   1.990   3.740  0.8782  0.0951 -2.5069
  246MOL    H4334833   0.023   1.874   3.602 -0.9291 -1.9614  0.2465
  246MOL    C4434834   0.036   2.136   3.594 -0.3497 -0.7174 -0.1271
  246MOL    C4534835   0.141   2.112   3.479  0.3900 -0.2382 -0.1063
  246MOL    O4634836   0.112   2.190   3.361  0.3058 -0.0991 -0.0405
  246MOL    H4734837   7.459   2.156   3.547  0.7458 -0.0657 -2.1775
  246MOL    H4834838   0.056   2.234   3.636  1.3910  1.0159 -4.7079
  246MOL    H4934839   0.138   2.006   3.456 -1.8034 -0.8095  2.5443
  246MOL    H5034840   0.097   2.281   3.381 -1.0226 -0.6887  1.7559
  246MOL    C5134841   0.281   2.162   3.535  0.5408 -0.2204  0.3113
  246MOL    C5234842   0.399   2.155   3.437 -0.2326 -0.4455  0.4837
  246MOL    O5334843   0.498   2.230   3.504 -0.1856  0.1475 -0.0755
  246MOL    H5434844   0.275   2.264   3.572 -0.5921 -0.7316  1.5778
  246MOL    H5534845   0.300   2.112   3.629 -1.2109  0.3788  0.9980
  246MOL    H5634846   0.362   2.215   3.354  1.4908  0.6491  0.4648
  246MOL    H5734847   0.537   2.297   3.449 -2.1443  1.5537  0.1924
  246MOL    C5834848   0.452   2.024   3.383 -0.0099  0.0735 -0.5235
  246MOL    C5934849   0.480   1.917   3.500  0.1801 -0.6946  0.3957
  246MOL    O6034850   0.348   1.862   3.525 -0.1011  0.1872  0.5648
  246MOL    H6134851   0.382   1.984   3.310  0.1751 -4.9485  1.7651
  246MOL    H6234852   0.546   2.060   3.341 -1.6391  3.1139 -1.6648
  246MOL    H6334853   0.517   1.982   3.579  0.1100 -2.0051  1.5272
  246MOL    H6434854   0.347   1.793   3.589 -1.2209  0.8867  1.3221
  246MOL    C6534855   0.585   1.812   3.479 -0.6779  0.3461  0.1021
  246MOL    C6634856   0.589   1.733   3.345  0.9127  0.0517 -0.1263
  246MOL    O6734857   0.698   1.797   3.274  0.4951 -0.0397  0.4476
  246MOL    H6834858   0.687   1.851   3.484 -0.4010 -0.3350 -0.1310
  246MOL    H6934859   0.588   1.733   3.554 -2.5745  2.2121  2.2151
  246MOL    H7034860   0.498   1.748   3.287  0.8943 -1.7278 -0.6011
  246MOL    H7134861   0.679   1.890   3.281 -0.7963 -0.2956  0.5027
  246MOL    C7234862   0.612   1.586   3.352 -0.2265  0.5287  0.3971
  246MOL    C7334863   0.506   1.493   3.422  0.4944  0.6349  1.0411
  246MOL    O7434864   0.512   1.484   3.567  0.2940 -0.3610 -0.1626
  246MOL    H7534865   0.621   1.557   3.247 -1.0897  1.5746  0.0276
  246MOL    H7634866   0.705   1.568   3.406 -0.2746 -0.6982  0.0871
  246MOL    H7734867   0.527   1.392   3.386 -2.2652  0.4921 -0.2956
  246MOL    H7834868   0.590   1.525   3.602  1.1532 -2.4905  0.4737
  246MOL    C7934869   0.361   1.530   3.389  0.3902 -0.4752  0.0982
  246MOL    C8034870   0.254   1.430   3.443  0.3754  0.2611  0.2068
  246MOL    O8134871   0.136   1.501   3.455  0.7952  0.3229 -0.1595
  246MOL    H8234872   0.355   1.630   3.433 -1.3259  0.0795 -1.3552
  246MOL    H8334873   0.358   1.540   3.281  0.9646 -3.3398 -0.2153
  246MOL    H8434874   0.264   1.383   3.541 -2.1000  1.0818  0.8994
  246MOL    H8534875   0.075   1.431   3.438  1.3900 -0.3923  0.6204
  246MOL    C8634876   0.235   1.326   3.337 -0.0730  0.5577  0.6213
  246MOL    C8734877   0.150   1.207   3.370  0.1027  0.4142  0.0012
  246MOL    O8834878   0.018   1.244   3.409 -0.2895 -0.0959 -0.6371
  246MOL    H8934879   0.202   1.370   3.242 -2.1218 -0.4845  0.8156
  246MOL    H9034880   0.337   1.291   3.321 -1.2227 -2.6284 -0.1392
  246MOL    H9134881   0.187   1.149   3.454  0.4249  0.7198  0.0706
  246MOL    H9234882   7.509   1.175   3.467  0.9584 -2.0215 -2.2133
  246MOL    C9334883   0.131   1.111   3.251 -0.3309  0.1345  0.2867
  246MOL    C9434884   0.261   1.073   3.174  0.8158 -0.4451 -0.4360
  246MOL    O9534885   0.362   1.023   3.264  0.2041  0.2093  0.1156
  246MOL    H9634886   0.085   1.016   3.278  0.6482 -0.4508 -0.0637
  246MOL    H9734887   0.062   1.156   3.180 -0.0133 -0.2050 -0.2421
  246MOL    H9834888   0.312   1.158   3.129  2.4670 -1.4457 -0.5113
  246MOL    H9934889   0.344   0.932   3.284 -1.3943  0.3139 -0.7803
  246MOL   C10034890   0.239   0.985   3.048 -0.9251  0.7883  0.7356
  246MOL   C10134891   0.362   0.961   2.961 -0.3707  0.2497  0.2793
  246MOL   O10234892   0.440   0.858   3.019 -0.2440  0.6579  0.1084
  246MOL   H10334893   0.187   0.896   3.082 -0.1647  1.1188  2.7909
  246MOL   H10434894   0.167   1.044   2.991  0.1308  0.4894 -0.9602
  246MOL   H10534895   0.415   1.057   2.963  1.9968 -1.0180  0.8383
  246MOL   H10634896   0.493   0.890   3.091  2.0523  1.1543 -1.7602
  246MOL   C10734897   0.332   0.942   2.809 -0.3954  0.4536 -0.4934
  246MOL   C10834898   0.432   1.007   2.705  0.5619  0.1842 -0.4409
  246MOL   O10934899   0.394   1.149   2.689 -0.2536  0.5914 -0.1631
  246MOL   H11034900   0.333   0.836   2.786  1.1983  0.8815 -2.5120
  246MOL   H11134901   0.233   0.976   2.780 -0.9474  0.2725  1.1490
  246MOL   H11234902   0.419   0.952   2.612 -1.0893 -0.4251  0.1180
  246MOL   H11334903   0.456   1.188   2.629  0.2951 -2.7178 -1.9033
  246MOL   C11434904   0.579   0.990   2.753  0.0367 -0.5398  0.2876
  246MOL   C11534905   0.682   0.995   2.637 -0.1869 -0.0666 -0.5474
  246MOL   O11634906   0.669   1.101   2.550 -0.7158  0.2150  0.0192
  246MOL   H11734907   0.602   1.058   2.835 -0.4521  3.1864 -2.5409
  246MOL   H11834908   0.587   0.887   2.791  3.0312 -0.7435 -0.7975
  246MOL   H11934909   0.666   0.899   2.588 -0.3247 -1.1542  1.5516
  246MOL   H12034910   0.725   1.084   2.475  1.9125  0.6246  1.8166
  246MOL   C12134911   0.831   0.977   2.678  0.2444  0.3922  0.1835
  246MOL   C12234912   0.944   0.955   2.585  0.2736 -0.2579  0.5598
  246MOL   O12334913   0.931   1.055   2.486  0.0438  0.1533 -0.2156
  246MOL   H12434914   0.866   1.054   2.747 -2.3121 -0.6803  2.8031
  246MOL   H12534915   0.844   0.894   2.748 -0.0010 -0.2311 -0.5007
  246MOL   H12634916   0.949   0.858   2.535 -0.9238 -0.6336  1.1281
  246MOL   H12734917   0.929   1.004   2.406 -1.5857  0.0473 -0.1214
  246MOL   C12834918   1.084   0.977   2.642 -0.6693 -0.2481  0.5069
  246MOL   C12934919   1.135   0.883   2.753  0.3307  0.8054  0.0453
  246MOL   O13034920   1.127   0.751   2.713 -0.0898  0.2138 -0.0954
  246MOL   H13134921   1.152   0.983   2.556  0.9790  1.6265  1.8708
  246MOL   H13234922   1.084   1.078   2.683  0.6843  0.0400 -0.1672
  246MOL   H13334923   1.080   0.892   2.847  2.9902  2.1799  1.5480
  246MOL   H13434924   1.189   0.744   2.642 -0.8790 -1.4969 -0.6556
  246MOL   C13534925   1.284   0.910   2.783  0.5147 -0.2183  0.3216
  246MOL   C13634926   1.305   1.056   2.832 -0.0123  0.6505  0.1315
  246MOL   O13734927   1.411   1.044   2.930 -0.1167 -0.2040 -0.0959
  246MOL   H13834928   1.318   0.843   2.862 -0.3108  0.9494  1.7087
  246MOL   H13934929   1.358   0.890   2.706  1.2422 -0.7085  1.1395
  246MOL   H14034930   1.227   1.097   2.897  0.2787  0.9281  0.3008
  246MOL   H14134931   1.487   1.008   2.887  1.0451 -0.8690  2.4060
  246MOL   H14234932   1.347   1.122   2.757 -1.7728 -2.0859 -3.4126
  247MOL     C134933   3.511   7.183   1.253 -0.2929 -0.1560  0.6177
  247MOL     C234934   3.480   7.121   1.389  1.0741  0.1251  0.2991
  247MOL     O334935   3.355   7.061   1.363  0.7346  0.3706  0.0695
  247MOL     H434936   3.438   7.261   1.231 -0.1820 -0.4219 -0.7592
  247MOL     H534937   3.490   7.104   1.181 -1.2861 -0.3294  1.0924
  247MOL     H634938   3.476   7.197   1.467 -1.7637  0.3565 -0.0007
  247MOL     H734939   3.342   7.080   1.271  0.6116 -1.7616 -0.3670
  247MOL     H834940   3.616   7.215   1.255  1.0008 -4.2326  4.3047
  247MOL     C934941   3.589   7.023   1.430  0.5916 -0.1963 -0.6003
  247MOL    C1034942   3.729   7.078   1.487  0.1994 -0.0344 -0.2385
  247MOL    O1134943   3.709   7.111   1.619 -0.4629 -0.1113 -0.0530
  247MOL    H1234944   3.537   6.959   1.501 -0.8424 -0.9248 -2.2747
  247MOL    H1334945   3.614   6.962   1.343 -0.0186 -1.4556  0.1070
  247MOL    H1434946   3.768   7.164   1.432  2.0487 -0.2777  0.6651
  247MOL    H1534947   3.795   7.106   1.659 -1.8683  0.6597  3.1811
  247MOL    C1634948   3.839   6.970   1.474  1.1200 -0.3153 -0.3932
  247MOL    C1734949   3.973   7.008   1.519  0.0660 -0.0806 -0.5706
  247MOL    O1834950   3.979   7.029   1.662 -0.5816  0.0134  0.7315
  247MOL    H1934951   3.810   6.881   1.530  2.0045 -0.9356 -0.9053
  247MOL    H2034952   3.850   6.938   1.370  1.1557  0.2668 -0.5677
  247MOL    H2134953   3.995   7.103   1.470  0.5902  0.6322  1.0421
  247MOL    H2234954   4.050   7.089   1.676 -0.4415 -0.6034  2.8468
  247MOL    C2334955   4.084   6.910   1.493 -0.4706 -0.0014 -0.1505
  247MOL    C2434956   4.229   6.963   1.501 -0.2162  0.4762 -0.0184
  247MOL    O2534957   4.320   6.858   1.472  0.6039 -0.0146 -0.0361
  247MOL    H2634958   4.076   6.835   1.571  1.2364  0.4014  0.4465
  247MOL    H2734959   4.075   6.867   1.393  1.3744  0.0739 -0.3677
  247MOL    H2834960   4.258   7.001   1.599 -0.1160 -0.3186  0.2601
  247MOL    H2934961   4.338   6.831   1.561 -0.5168  0.3750  0.3181
  247MOL    C3034962   4.256   7.090   1.407  0.5118  0.5636 -0.3156
  247MOL    C3134963   4.398   7.157   1.416  0.1769  0.8900  0.6698
  247MOL    O3234964   4.473   7.065   1.344  0.3812  0.2965  0.4460
  247MOL    H3334965   4.235   7.053   1.307  1.4592 -0.4195 -0.1584
  247MOL    H3434966   4.187   7.164   1.449 -1.5097  0.3764 -3.1769
  247MOL    H3534967   4.419   7.157   1.523  1.0477  2.3543  0.5110
  247MOL    H3634968   4.435   6.980   1.351  0.1315  0.1770 -2.0759
  247MOL    C3734969   4.402   7.301   1.366  0.1844  0.3146 -0.1601
  247MOL    C3834970   4.525   7.376   1.421 -0.4967  0.4068 -0.8860
  247MOL    O3934971   4.543   7.495   1.347  0.2343 -0.4000  0.1334
  247MOL    H4034972   4.388   7.300   1.258 -1.5964  0.3780  0.0560
  247MOL    H4134973   4.306   7.341   1.400 -0.0931 -1.2841  0.9760
  247MOL    H4234974   4.611   7.320   1.385  0.4660  1.5426 -0.3548
  247MOL    H4334975   4.612   0.020   1.394  0.4341 -0.8607  0.2814
  247MOL    C4434976   4.523   7.406   1.571 -0.1435 -0.1715  0.7500
  247MOL    C4534977   4.642   7.490   1.627 -0.4068 -1.2021  0.2876
  247MOL    O4634978   4.662   0.089   1.551 -0.0139 -0.1406  0.5030
  247MOL    H4734979   4.440   7.473   1.597 -0.3513 -0.4277  0.7480
  247MOL    H4834980   4.506   7.320   1.636 -2.2641 -2.2199 -2.3766
  247MOL    H4934981   4.739   7.439   1.623  0.7457  1.1216 -3.5779
  247MOL    H5034982   4.731   0.136   1.594 -0.4551  2.5342 -1.5568
  247MOL    C5134983   4.604   0.009   1.775 -0.5170  0.0383 -0.3048
  247MOL    C5234984   4.650   7.421   1.878 -0.4280  0.1947 -0.2432
  247MOL    O5334985   4.786   7.420   1.855  0.5033  0.0549 -0.1128
  247MOL    H5434986   4.653   0.099   1.811  0.3962 -0.7433  0.4156
  247MOL    H5534987   4.495   0.016   1.780 -0.4128  0.8310  1.0715
  247MOL    H5634988   4.612   7.319   1.873  0.8422 -0.3296  0.4877
  247MOL    H5734989   4.834   7.349   1.893 -0.0860 -0.3135 -0.0665
  247MOL    C5834990   4.631   7.458   2.026 -0.4102  0.6884 -0.4165
  247MOL    C5934991   4.511   7.398   2.109 -0.3461 -0.8241  0.0121
  247MOL    O6034992   4.520   7.445   2.243  0.0732 -0.7304  1.0543
  247MOL    H6134993   4.723   7.426   2.076 -0.3241 -0.2428 -1.1490
  247MOL    H6234994   4.626   0.047   2.037 -0.0648  0.6708 -0.0752
  247MOL    H6334995   4.532   7.291   2.106  3.5509 -0.1096 -1.4110
  247MOL    H6434996   4.609   7.423   2.266 -0.2324 -0.5478  2.4326
  247MOL    C6534997   4.375   7.415   2.048  0.5106  0.3251  0.0760
  247MOL    C6634998   4.315   7.279   1.997 -0.3132 -0.1779  0.5376
  247MOL    O6734999   4.302   7.190   2.107 -0.2296 -0.7255  0.0482
  247MOL    H6835000   4.290   7.471   2.088 -0.8407 -0.3557 -1.7172
  247MOL    H6935001   4.395   7.464   1.952 -0.2186  1.0870  0.3054
  247MOL    H7035002   4.384   7.230   1.927 -0.0318  3.0330 -1.5168
  247MOL    H7135003   4.250   7.224   2.178 -3.1052  0.0705 -2.3798
  247MOL    C7235004   4.176   7.282   1.933  0.3354 -0.2128 -0.2306
  247MOL    C7335005   4.167   7.361   1.797 -0.5127 -0.2654 -0.0609
  247MOL    O7435006   4.235   7.288   1.701 -0.6518  0.4529 -0.1041
  247MOL    H7535007   4.139   7.182   1.911  1.0718 -0.9841  2.0004
  247MOL    H7635008   4.112   7.336   2.004 -0.4772  0.4520 -1.4316
  247MOL    H7735009   4.231   7.446   1.819  0.7687 -1.8668  2.6545
  247MOL    H7835010   4.222   7.331   1.617  1.7021 -0.5663 -1.0342
  247MOL    C7935011   4.021   7.389   1.748 -0.5798  0.3551 -0.3340
  247MOL    C8035012   3.998   7.464   1.611 -0.9008 -0.3398 -0.0981
  247MOL    O8135013   4.100   7.418   1.513 -0.2656 -0.4187 -0.3723
  247MOL    H8235014   3.980   7.288   1.739  1.3257 -0.4873 -0.0088
  247MOL    H8335015   3.973   7.448   1.826  0.2497 -1.1679  1.3937
  247MOL    H8435016   4.020   0.048   1.635 -1.9467 -0.2276  0.4206
  247MOL    H8535017   4.151   7.491   1.482 -2.2526  0.6364 -1.2535
  247MOL    C8635018   3.857   7.442   1.548 -0.7917  0.2527 -0.0073
  247MOL    C8735019   3.750   0.027   1.580  0.6929  1.1382  0.3590
  247MOL    O8835020   3.744   0.037   1.714 -0.4886  0.3807  0.0606
  247MOL    H8935021   3.877   7.439   1.441 -1.2524 -0.3205 -0.0806
  247MOL    H9035022   3.819   7.344   1.578  1.5769 -0.1384  1.8863
  247MOL    H9135023   3.660   7.506   1.534  1.5453 -0.5212  0.0954
  247MOL    H9235024   3.669   0.092   1.730 -0.7464  0.5303 -1.5776
  247MOL    C9335025   3.781   0.165   1.514  0.7818  0.0306  0.2850
  247MOL    C9435026   3.765   0.167   1.360  0.0973 -0.2751 -0.4441
  247MOL    O9535027   3.631   0.186   1.319  0.5206  0.4676  0.0090
  247MOL    H9635028   3.715   0.245   1.550  0.0544  0.5394 -2.1308
  247MOL    H9735029   3.875   0.198   1.558 -0.8533  3.2459  1.5633
  247MOL    H9835030   3.792   0.068   1.323 -1.2086 -0.7257 -0.2209
  247MOL    H9935031   3.611   0.142   1.238 -1.1666  2.0719 -0.4653
  247MOL   C10035032   3.846   0.281   1.293  0.6659 -0.0115 -0.1395
  247MOL   C10135033   3.922   0.228   1.168  0.5053 -0.4680 -0.3252
  247MOL   O10235034   3.965   0.347   1.104 -0.4096 -0.0317  0.0594
  247MOL   H10335035   3.773   0.358   1.267 -0.0283 -0.4119  0.6197
  247MOL   H10435036   3.919   0.326   1.362 -2.0634 -0.4316  3.1534
  247MOL   H10535037   3.841   0.182   1.110  0.2197  1.1899 -1.2760
  247MOL   H10635038   4.052   0.327   1.073 -1.1947  0.2829 -2.4465
  247MOL   C10735039   4.044   0.143   1.186 -0.0617  0.4399  0.3731
  247MOL   C10835040   4.134   0.127   1.055  0.2866  0.0782  0.2594
  247MOL   O10935041   4.205   0.247   1.010 -0.2065 -0.1495  0.1535
  247MOL   H11035042   4.110   0.179   1.265  2.6543 -0.3768 -1.4451
  247MOL   H11135043   4.015   0.042   1.215 -0.6050  0.3009 -0.6480
  247MOL   H11235044   4.085   0.086   0.967  1.6093 -0.9341 -0.0285
  247MOL   H11335045   4.294   0.216   1.002 -0.3907 -0.6933  0.1721
  247MOL   C11435046   4.242   0.014   1.071 -0.6098  0.1896 -0.1871
  247MOL   C11535047   4.346   0.006   0.961  0.0156  0.2752 -0.0392
  247MOL   O11635048   4.443   0.111   0.976 -0.2596  0.1235 -0.0928
  247MOL   H11735049   4.284   0.040   1.168 -0.5125 -0.1464 -0.1384
  247MOL   H11835050   4.196   7.436   1.087 -0.0161  0.0417  0.6573
  247MOL   H11935051   4.289   0.014   0.869  2.2712 -2.2625 -1.7087
  247MOL   H12035052   4.509   0.105   0.909 -0.9850 -0.0047 -0.8006
  247MOL   C12135053   4.419   7.384   0.972  0.0019  0.1586  0.2883
  247MOL   C12235054   4.342   7.261   0.915  0.4368  0.4171 -0.2933
  247MOL   O12335055   4.328   7.272   0.772  0.4047  0.1013 -0.1355
  247MOL   H12435056   4.511   7.389   0.915 -0.0366 -0.5828  0.1527
  247MOL   H12535057   4.445   7.380   1.078  0.9403 -0.6329  0.0390
  247MOL   H12635058   4.245   7.239   0.960  0.9955  0.7743  1.1338
  247MOL   H12735059   4.237   7.252   0.753  0.1281  1.1918  0.0464
  247MOL   C12835060   4.440   7.140   0.948 -0.4804  0.0856  0.3491
  247MOL   C12935061   4.387   7.008   0.894 -0.0812  0.7967  0.2287
  247MOL   O13035062   4.493   6.911   0.881  0.1590  0.1540 -0.0075
  247MOL   H13135063   4.535   7.159   0.898 -0.0755 -2.0061  0.2676
  247MOL   H13235064   4.457   7.127   1.055 -1.7616 -2.9504  0.2458
  247MOL   H13335065   4.346   7.024   0.794  1.6865 -1.6087 -0.9617
  247MOL   H13435066   4.567   6.952   0.838 -0.0173  0.6457  0.1539
  247MOL   C13535067   4.290   6.943   0.999  0.3526  0.0813 -0.4079
  247MOL   C13635068   4.218   6.821   0.940  0.2471  0.3985  0.1417
  247MOL   O13735069   4.152   6.748   1.047 -0.5616 -0.3391  0.4343
  247MOL   H13835070   4.335   6.907   1.092 -0.2822 -1.5613 -0.7087
  247MOL   H13935071   4.216   7.015   1.033  0.2633  0.1045 -0.6497
  247MOL   H14035072   4.283   6.753   0.885 -0.7253 -0.3210 -0.1276
  247MOL   H14135073   4.212   6.734   1.118 -1.1539 -0.7496  0.8576
  247MOL   H14235074   4.146   6.858   0.867 -0.5897  2.0640  1.7728
  248MOL     C135075   2.677   2.852   3.880  0.2965 -0.1816 -0.8651
  248MOL     C235076   2.784   2.761   3.826 -0.3727  0.4836 -0.2946
  248MOL     O335077   2.766   2.641   3.898  0.1060 -0.0640 -0.0417
  248MOL     H435078   2.584   2.795   3.883  1.4671 -2.0897  0.6159
  248MOL     H535079   2.673   2.940   3.816 -0.0271  0.6743  0.3145
  248MOL     H635080   2.878   2.813   3.845 -0.3861 -0.9851  4.7672
  248MOL     H735081   2.679   2.607   3.883 -1.5032  2.6619  2.4219
  248MOL     H835082   2.707   2.882   3.980  1.7952  0.3647 -1.4743
  248MOL     C935083   2.760   2.736   3.680  0.1569 -0.0357 -0.2258
  248MOL    C1035084   2.875   2.655   3.622  0.3050 -0.2219 -0.5514
  248MOL    O1135085   2.840   2.624   3.494 -0.6705  0.3007  0.0770
  248MOL    H1235086   2.663   2.686   3.669 -0.3815  1.0831 -0.7264
  248MOL    H1335087   2.755   2.829   3.624 -0.8606  0.5269  0.7742
  248MOL    H1435088   2.892   2.558   3.668 -1.0897 -0.9436 -1.5405
  248MOL    H1535089   2.815   2.708   3.458 -1.3872 -0.3248 -0.9303
  248MOL    C1635090   3.004   2.734   3.613 -0.1831 -0.7830 -0.2724
  248MOL    C1735091   3.105   2.713   3.725 -0.0046  0.4105  0.5871
  248MOL    O1835092   3.144   2.576   3.691  0.1054 -0.4876 -0.2960
  248MOL    H1935093   3.040   2.739   3.510  1.8578 -0.5772  0.4190
  248MOL    H2035094   2.990   2.841   3.629  2.2361 -0.0864 -2.5261
  248MOL    H2135095   3.069   2.720   3.827  0.7209 -1.5703  0.9968
  248MOL    H2235096   3.229   2.555   3.726 -0.8608 -2.6050  0.9128
  248MOL    C2335097   3.232   2.799   3.698  0.2158 -1.0341 -0.6739
  248MOL    C2435098   3.225   2.925   3.786 -0.2446  0.9577 -0.6384
  248MOL    O2535099   3.260   2.884   3.917 -0.1537 -0.0502  0.1798
  248MOL    H2635100   3.331   2.756   3.714 -0.1689 -0.8467  2.4455
  248MOL    H2735101   3.232   2.841   3.597  1.6915 -0.8891 -0.6188
  248MOL    H2835102   3.122   2.960   3.790 -1.0752 -1.5862  1.1379
  248MOL    H2935103   3.204   2.924   3.982  0.7230  2.3027 -0.4712
  248MOL    C3035104   3.323   3.035   3.738 -0.9651  0.2890  0.8620
  248MOL    C3135105   3.279   3.136   3.627 -0.0166  0.0154  0.0992
  248MOL    O3235106   3.167   3.207   3.676  0.0501 -0.4495 -0.0611
  248MOL    H3335107   3.346   3.104   3.819  3.2149 -1.6473  1.4902
  248MOL    H3435108   3.425   3.003   3.714 -0.6252  1.8870  0.0883
  248MOL    H3535109   3.252   3.083   3.536 -0.8835  0.9576 -0.1963
  248MOL    H3635110   3.088   3.156   3.688  0.1895 -0.8007 -0.6336
  248MOL    C3735111   3.395   3.232   3.599 -0.5062 -1.0161  0.4246
  248MOL    C3835112   3.361   3.328   3.483  0.5155 -0.0099  0.9635
  248MOL    O3935113   3.273   3.424   3.534 -0.1565 -0.3973 -0.5315
  248MOL    H4035114   3.430   3.272   3.694 -0.3961  0.2109 -0.1152
  248MOL    H4135115   3.482   3.179   3.560 -1.0880  0.4598 -3.1357
  248MOL    H4235116   3.301   3.269   3.414  0.0306  0.2920  1.1259
  248MOL    H4335117   3.229   3.379   3.604  0.0593  2.8213  1.7506
  248MOL    C4435118   3.478   3.389   3.407 -0.0903  0.5746  0.1589
  248MOL    C4535119   3.559   3.300   3.313  0.4116 -0.4685 -0.6386
  248MOL    O4635120   3.481   3.263   3.201  0.0926  0.2914 -0.2141
  248MOL    H4735121   3.448   3.479   3.354 -1.8353  0.3215  0.6725
  248MOL    H4835122   3.553   3.431   3.475  0.7188 -0.0313 -0.3462
  248MOL    H4935123   3.569   3.203   3.362 -0.7470 -0.7963 -1.0324
  248MOL    H5035124   3.535   3.210   3.144 -0.2145 -0.3551  0.0862
  248MOL    C5135125   3.695   3.351   3.263 -0.2798 -0.6748  0.0000
  248MOL    C5235126   3.786   3.241   3.206 -0.2670  0.0372 -0.5412
  248MOL    O5335127   3.743   3.231   3.067  0.3546  0.2266 -0.3060
  248MOL    H5435128   3.677   3.420   3.181 -0.3798  3.0843  3.0401
  248MOL    H5535129   3.742   3.398   3.350 -3.2532  1.1167  0.7106
  248MOL    H5635130   3.778   3.140   3.245  0.9543 -0.3156 -1.1906
  248MOL    H5735131   3.706   3.144   3.056  0.4765  0.4719 -2.8558
  248MOL    C5835132   3.932   3.293   3.207  0.7164 -0.3589 -0.6574
  248MOL    C5935133   4.051   3.202   3.187  0.3911  0.0218 -0.2025
  248MOL    O6035134   4.061   3.111   3.295 -0.1120  0.2106  0.6313
  248MOL    H6135135   3.939   3.385   3.149 -1.3401  0.2474  0.0255
  248MOL    H6235136   3.939   3.334   3.308  0.8764  1.1229 -1.2618
  248MOL    H6335137   4.146   3.254   3.198  1.1353 -0.7017 -3.0191
  248MOL    H6435138   4.126   3.147   3.355  2.1623 -3.1974  0.3650
  248MOL    C6535139   4.050   3.122   3.047 -0.0081  0.7507 -0.5444
  248MOL    C6635140   4.071   3.213   2.927  0.1760  0.0687  0.1470
  248MOL    O6735141   4.215   3.238   2.917 -0.5534  0.0484  0.0314
  248MOL    H6835142   4.130   3.048   3.050 -0.0057  0.7946  2.2589
  248MOL    H6935143   3.949   3.083   3.048  0.1920  0.2176 -0.7576
  248MOL    H7035144   4.038   3.316   2.944 -0.5631 -0.1923  0.3019
  248MOL    H7135145   4.250   3.166   2.866 -0.2664  0.3805 -0.2360
  248MOL    C7235146   4.012   3.162   2.795 -0.0520 -0.4425 -0.1636
  248MOL    C7335147   4.055   3.242   2.669  0.3840 -0.0190 -0.1203
  248MOL    O7435148   3.991   3.184   2.560  0.3521  0.0433  0.1472
  248MOL    H7535149   4.056   3.062   2.788  0.8688 -0.1930  1.6603
  248MOL    H7635150   3.903   3.164   2.791  0.0245  1.0521 -1.5657
  248MOL    H7735151   4.164   3.238   2.656  0.5050  2.2744 -0.1037
  248MOL    H7835152   3.961   3.096   2.576  1.0546 -0.2953 -0.3540
  248MOL    C7935153   4.030   3.390   2.673  0.0027 -0.7381  0.0629
  248MOL    C8035154   4.077   3.464   2.552  0.7016  0.4151  0.3909
  248MOL    O8135155   3.999   3.580   2.534 -0.6553  0.2239  0.5428
  248MOL    H8235156   3.922   3.402   2.676 -0.3500 -2.9440 -1.8622
  248MOL    H8335157   4.077   3.443   2.756 -1.4566 -1.0619  1.1116
  248MOL    H8435158   4.044   3.402   2.468  0.2091 -1.2921  1.8372
  248MOL    H8535159   4.035   3.654   2.582 -2.7465  0.6715  1.4865
  248MOL    C8635160   4.233   3.483   2.524 -0.0675 -0.0284  0.0275
  248MOL    C8735161   4.270   3.513   2.379  0.7707  0.0560  0.4066
  248MOL    O8835162   4.407   3.532   2.371 -0.4494  0.0408  0.4089
  248MOL    H8935163   4.259   3.568   2.587 -1.4161  0.2725  0.2039
  248MOL    H9035164   4.282   3.387   2.542 -2.1797 -1.0003  0.8431
  248MOL    H9135165   4.225   3.606   2.343 -1.2872 -0.8255  0.6164
  248MOL    H9235166   4.416   3.625   2.382  0.9156 -0.1786  1.3301
  248MOL    C9335167   4.230   3.411   2.266  0.1511 -0.2590 -0.2271
  248MOL    C9435168   4.098   3.424   2.194 -0.1235 -0.5423  0.0387
  248MOL    O9535169   4.107   3.523   2.090 -0.2526  0.0474  0.1650
  248MOL    H9635170   4.307   3.412   2.189  1.1404 -1.9833  0.6919
  248MOL    H9735171   4.247   3.311   2.307 -0.8984 -0.6233 -0.6742
  248MOL    H9835172   4.022   3.461   2.262 -1.3776  1.0665 -2.1773
  248MOL    H9935173   4.023   3.524   2.047  0.5352 -0.3656 -1.4190
  248MOL   C10035174   4.046   3.284   2.139  0.0245  0.4142 -0.2211
  248MOL   C10135175   3.915   3.273   2.061 -0.0927 -0.2417 -0.6096
  248MOL   O10235176   3.901   3.373   1.953 -0.2393  0.3368  0.8411
  248MOL   H10335177   4.130   3.238   2.087 -1.1289 -1.3858 -0.5505
  248MOL   H10435178   4.022   3.220   2.224 -1.2761 -1.1138 -1.6923
  248MOL   H10535179   3.838   3.296   2.135 -0.7048  0.0949 -1.3427
  248MOL   H10635180   3.971   3.355   1.892 -0.5167 -0.0802  0.6487
  248MOL   C10735181   3.886   3.131   1.997  0.1863 -0.7575 -0.3186
  248MOL   C10835182   3.752   3.064   2.035  0.9356 -0.0841  0.5217
  248MOL   O10935183   3.719   2.957   1.945  0.7124 -0.6649  0.5724
  248MOL   H11035184   3.895   3.129   1.888  1.1995 -1.7249 -0.2368
  248MOL   H11135185   3.970   3.073   2.038  1.0453  0.0919 -0.8562
  248MOL   H11235186   3.666   3.131   2.032  0.7696 -0.3378 -1.6299
  248MOL   H11335187   3.789   2.894   1.946  2.0876  0.8490  0.8641
  248MOL   C11435188   3.752   3.012   2.183 -0.1156  0.6114  0.2062
  248MOL   C11535189   3.636   2.913   2.226  0.0379  0.2096  0.2637
  248MOL   O11635190   3.659   2.853   2.354 -0.2431 -0.1404  0.1969
  248MOL   H11735191   3.846   2.958   2.189  0.5489  1.7802  0.4083
  248MOL   H11835192   3.770   3.085   2.262 -0.0583 -0.9550  1.6648
  248MOL   H11935193   3.629   2.840   2.146 -1.0146 -0.6166  1.1030
  248MOL   H12035194   3.578   2.804   2.364 -0.6302  0.6272  0.8530
  248MOL   C12135195   3.496   2.976   2.229 -0.3316  0.5895 -0.4153
  248MOL   C12235196   3.381   2.877   2.249 -0.1094 -0.4236  0.0367
  248MOL   O12335197   3.392   2.803   2.377  0.2361 -0.2185  0.2857
  248MOL   H12435198   3.484   3.055   2.303  0.2534 -0.4633  0.8332
  248MOL   H12535199   3.485   3.030   2.136 -1.8706  2.5870  0.8902
  248MOL   H12635200   3.378   2.800   2.171 -0.9389 -0.2700 -0.0843
  248MOL   H12735201   3.325   2.737   2.372 -0.2073  0.2504  0.0880
  248MOL   C12835202   3.244   2.945   2.229  0.6241 -0.4039  0.0854
  248MOL   C12935203   3.209   2.985   2.085 -0.1984  0.1896 -0.3332
  248MOL   O13035204   3.161   2.864   2.031 -0.0616 -0.0578 -0.5048
  248MOL   H13135205   3.163   2.884   2.268 -1.6028  0.0188 -3.5818
  248MOL   H13235206   3.245   3.039   2.283  0.6642  0.0813 -0.7424
  248MOL   H13335207   3.295   3.012   2.023 -0.4682  2.1622  0.1145
  248MOL   H13435208   3.220   2.794   2.056  0.8425  1.2650  1.1237
  248MOL   C13535209   3.105   3.097   2.078  0.4069  0.2436 -1.2550
  248MOL   C13635210   3.097   3.168   1.942  0.4682 -0.0809 -0.5749
  248MOL   O13735211   2.997   3.271   1.945  0.1551  0.3068 -0.2065
  248MOL   H13835212   3.009   3.054   2.107 -0.0052  3.0136  1.8971
  248MOL   H13935213   3.123   3.170   2.157 -0.3653 -0.5683 -0.3112
  248MOL   H14035214   3.069   3.096   1.865 -3.0842  1.8235 -1.1824
  248MOL   H14135215   3.039   3.346   1.984 -1.8586  0.7157  1.1962
  248MOL   H14235216   3.191   3.211   1.908  0.0012  0.9267 -0.6131
  249MOL     C135217   2.059   6.336   3.196 -0.2770  0.5448  0.5945
  249MOL     C235218   2.199   6.302   3.225 -0.0921 -0.6585 -0.6307
  249MOL     O335219   2.239   6.199   3.139  0.1527  0.3123  0.0080
  249MOL     H435220   2.046   6.383   3.098 -1.1747  1.2838  1.0642
  249MOL     H535221   2.017   6.403   3.271 -1.7160 -0.3189  0.5599
  249MOL     H635222   2.206   6.267   3.328 -0.4010  1.2638  0.0770
  249MOL     H735223   2.162   6.145   3.138  0.4329 -0.2356  2.5223
  249MOL     H835224   1.984   6.259   3.210  0.3402  0.3801  3.2233
  249MOL     C935225   2.301   6.419   3.216 -0.3152 -0.7289 -0.6014
  249MOL    C1035226   2.272   6.535   3.319  0.7575 -0.1663  0.4145
  249MOL    O1135227   2.384   6.601   3.346 -0.4789  0.3566 -0.7181
  249MOL    H1235228   2.393   6.378   3.257  0.2281  1.1567  0.1577
  249MOL    H1335229   2.319   6.453   3.113 -0.5616 -0.3244 -0.5143
  249MOL    H1435230   2.232   6.485   3.407  2.1771 -0.3318  0.9858
  249MOL    H1535231   2.429   6.541   3.404  1.9033  3.0862  0.4005
  249MOL    C1635232   2.175   6.646   3.268 -0.2621  0.6792 -0.5368
  249MOL    C1735233   2.116   6.737   3.387 -0.6467  0.6266  0.0900
  249MOL    O1835234   2.062   6.858   3.344 -0.0825 -0.0357  0.4074
  249MOL    H1935235   2.213   6.712   3.189 -0.8785 -0.0376 -1.4462
  249MOL    H2035236   2.091   6.603   3.212 -0.0491 -0.6254  0.1310
  249MOL    H2135237   2.200   6.767   3.451 -1.8489  0.3055  1.8430
  249MOL    H2235238   1.987   6.843   3.288  0.3079 -2.8043  0.5748
  249MOL    C2335239   2.005   6.659   3.472  1.0750  0.2420  0.4621
  249MOL    C2435240   1.960   6.736   3.596 -0.1526 -0.1848 -0.0517
  249MOL    O2535241   1.845   6.672   3.652 -0.3481  0.0494 -0.5798
  249MOL    H2635242   1.912   6.653   3.415  0.6750 -0.7832  1.2245
  249MOL    H2735243   2.023   6.554   3.493  0.7375  0.1654  0.3744
  249MOL    H2835244   1.923   6.837   3.578 -0.5087 -0.2358  0.3770
  249MOL    H2935245   1.811   6.716   3.728  0.2302 -0.3962 -0.0544
  249MOL    C3035246   2.063   6.745   3.711 -0.3774  0.8569 -0.3118
  249MOL    C3135247   2.144   6.618   3.746  0.3003 -0.2605  0.1105
  249MOL    O3235248   2.263   6.654   3.819  0.0485  0.6773 -0.3878
  249MOL    H3335249   2.140   6.813   3.676 -1.7085  1.1587 -2.7510
  249MOL    H3435250   2.016   6.810   3.785 -1.6032  2.7898 -2.7024
  249MOL    H3535251   2.171   6.564   3.655 -1.0868 -1.9661  0.6606
  249MOL    H3635252   2.229   6.688   3.900  2.2510 -0.8805  1.2440
  249MOL    C3735253   2.078   6.510   3.831 -0.1604 -0.7040 -0.4717
  249MOL    C3835254   2.138   6.371   3.834 -0.1232  0.3825  0.0922
  249MOL    O3935255   2.091   6.311   3.954 -0.4626 -0.2685 -0.5573
  249MOL    H4035256   2.068   6.549   3.933 -1.5529 -0.6861 -0.6085
  249MOL    H4135257   1.981   6.499   3.783 -0.2614 -1.9124  0.0067
  249MOL    H4235258   2.245   6.389   3.844  0.0996 -2.1163  2.8179
  249MOL    H4335259   1.997   6.316   3.944 -0.5317 -3.3163 -2.4077
  249MOL    C4435260   2.123   6.287   3.708  0.4859  0.3974  0.5159
  249MOL    C4535261   2.197   6.154   3.699 -0.9514 -0.2731 -0.1383
  249MOL    O4635262   2.153   6.077   3.595 -0.7723 -0.4235  0.2164
  249MOL    H4735263   2.015   6.269   3.712  0.1833  2.5515  2.9697
  249MOL    H4835264   2.146   6.344   3.618  0.0029 -2.4336 -1.5005
  249MOL    H4935265   2.187   6.111   3.799 -2.2594 -1.7936 -0.9125
  249MOL    H5035266   2.227   6.022   3.576  1.0692  2.4421 -1.2068
  249MOL    C5135267   2.349   6.186   3.664 -0.0986  0.1163  0.0189
  249MOL    C5235268   2.444   6.078   3.719 -0.2254  0.0707  0.1537
  249MOL    O5335269   2.565   6.087   3.651 -0.0290  0.3307 -0.2997
  249MOL    H5435270   2.373   6.195   3.558 -0.3119  2.7759  0.1628
  249MOL    H5535271   2.380   6.281   3.708 -0.1435  0.0970  0.0919
  249MOL    H5635272   2.420   5.980   3.678  3.0910  0.3271 -2.7011
  249MOL    H5735273   2.566   6.016   3.589  0.4094 -0.3411  0.4612
  249MOL    C5835274   2.462   6.079   3.874  0.1645  0.0441  0.2180
  249MOL    C5935275   2.563   5.984   3.940  0.8196 -0.2926  0.5006
  249MOL    O6035276   2.688   6.007   3.875  0.1772 -0.6547  0.2682
  249MOL    H6135277   2.481   6.177   3.916 -0.3467  0.0347  0.4803
  249MOL    H6235278   2.363   6.054   3.913 -0.2481  1.4280  0.0775
  249MOL    H6335279   2.528   5.884   3.916 -0.1327 -0.5227  2.6796
  249MOL    H6435280   2.662   6.030   3.787  0.3092  1.7329  0.8191
  249MOL    C6535281   2.574   6.007   4.093 -0.2902  0.3108  0.0009
  249MOL    C6635282   2.626   5.879   4.167 -0.5582 -0.2442 -0.0229
  249MOL    O6735283   2.755   5.862   4.129 -0.0209 -0.1189  0.4735
  249MOL    H6835284   2.630   6.099   4.111 -0.7455  0.3530  1.2783
  249MOL    H6935285   2.473   6.033   4.124 -0.4333 -1.0948  0.7267
  249MOL    H7035286   2.563   5.798   4.130  0.2521 -0.6461 -0.5470
  249MOL    H7135287   2.760   5.895   4.041  1.3292  0.3778  0.7283
  249MOL    C7235288   2.615   5.895   4.319  0.1118 -0.4896 -0.0877
  249MOL    C7335289   2.659   5.776   4.405 -0.4548  0.3288 -0.4144
  249MOL    O7435290   2.797   5.767   4.402 -0.5604  0.2551  0.4422
  249MOL    H7535291   2.671   5.985   4.342  0.5416 -0.5550 -0.8302
  249MOL    H7635292   2.510   5.916   4.336  0.2803  0.9561 -0.7772
  249MOL    H7735293   2.613   5.688   4.360  0.1076 -0.7068  0.9816
  249MOL    H7835294   2.812   5.763   4.309  1.5517  1.4358  0.6890
  249MOL    C7935295   2.609   5.790   4.547 -0.1697  0.6761 -0.0463
  249MOL    C8035296   2.581   5.651   4.615 -0.1649  0.0878  0.2386
  249MOL    O8135297   2.692   5.561   4.609  0.4203 -0.4853 -0.3449
  249MOL    H8235298   2.683   5.841   4.609  0.1498  2.1682 -1.6377
  249MOL    H8335299   2.517   5.849   4.552 -0.6916 -0.2158  1.3364
  249MOL    H8435300   2.497   5.605   4.562 -1.2881  0.8973  1.2776
  249MOL    H8535301   2.701   5.508   4.531 -0.2521 -0.4032 -0.4871
  249MOL    C8635302   2.552   5.664   4.767  0.4435  0.4243  0.6367
  249MOL    C8735303   2.448   5.774   4.806 -1.0880  0.3062  0.0607
  249MOL    O8835304   2.328   5.715   4.755  0.1904 -0.7640 -0.0664
  249MOL    H8935305   2.515   5.565   4.796 -0.4143  0.5454 -0.0143
  249MOL    H9035306   2.643   5.668   4.827  1.7468  1.7312 -1.3704
  249MOL    H9135307   2.470   5.874   4.770  0.1989 -0.0557 -0.1752
  249MOL    H9235308   2.285   5.774   4.694 -0.8988  0.4150  1.8062
  249MOL    C9335309   2.426   5.806   4.958 -0.4990 -0.2590 -0.2032
  249MOL    C9435310   2.551   5.868   5.029 -0.3404 -0.1260  0.1178
  249MOL    O9535311   2.562   6.003   4.994  0.3334 -0.0948  0.2401
  249MOL    H9635312   2.342   5.875   4.970 -1.3835 -1.0239 -1.7432
  249MOL    H9735313   2.393   5.713   5.004  0.0021 -0.2801  0.1091
  249MOL    H9835314   2.638   5.816   4.989  0.0231  0.6264 -0.0790
  249MOL    H9935315   2.650   6.010   4.961  0.3135  2.8206  0.6630
  249MOL   C10035316   2.548   5.864   5.184 -0.0787  0.1388  0.1318
  249MOL   C10135317   2.578   5.727   5.237 -0.2158  0.3539 -0.2734
  249MOL   O10235318   2.713   5.719   5.264  0.4197 -0.0218  0.5839
  249MOL   H10335319   2.622   5.935   5.222  0.9130 -0.9703  0.2767
  249MOL   H10435320   2.445   5.890   5.209  0.0248  1.1306 -0.4550
  249MOL   H10535321   2.551   5.657   5.157 -0.9731  1.7508 -1.2468
  249MOL   H10635322   2.767   5.744   5.191 -0.4998  1.3556  0.3725
  249MOL   C10735323   2.501   5.693   5.366 -0.0769 -1.3551  0.6108
  249MOL   C10835324   2.346   5.686   5.352  0.1199  0.1293 -0.2201
  249MOL   O10935325   2.307   5.600   5.244  0.1522  0.5903 -0.6055
  249MOL   H11035326   2.535   5.594   5.396  0.0367 -1.4274  0.2482
  249MOL   H11135327   2.530   5.766   5.441 -1.5814 -1.5473  1.3838
  249MOL   H11235328   2.318   5.791   5.346 -0.4574 -0.0333 -0.4004
  249MOL   H11335329   2.213   5.594   5.232 -0.1730 -0.5059  2.0493
  249MOL   C11435330   2.276   5.638   5.485 -0.6287  0.2637 -0.2086
  249MOL   C11535331   2.318   5.494   5.548 -0.2275  0.4734  0.3169
  249MOL   O11635332   2.300   5.505   5.692  0.0953  0.4781 -0.1541
  249MOL   H11735333   2.286   5.712   5.564  1.0833  2.1260 -2.1013
  249MOL   H11835334   2.168   5.639   5.467 -0.6644 -0.8034 -0.1236
  249MOL   H11935335   2.426   5.480   5.542  0.0680  1.0513  3.5836
  249MOL   H12035336   2.240   5.438   5.722  0.6965  0.6270  1.4205
  249MOL   C12135337   2.240   5.378   5.485  0.4615  0.3129  0.3172
  249MOL   C12235338   2.310   5.237   5.477 -0.8091 -0.2033  0.4623
  249MOL   O12335339   2.207   5.141   5.482 -0.0115 -0.2129  0.4926
  249MOL   H12435340   2.149   5.378   5.545 -0.8342 -0.4169 -1.5866
  249MOL   H12535341   2.203   5.403   5.385 -4.3997  0.2187  1.9426
  249MOL   H12635342   2.385   5.217   5.553  0.1007 -0.3681 -0.4705
  249MOL   H12735343   2.140   5.163   5.545 -2.0390 -1.5656 -1.1205
  249MOL   C12835344   2.374   5.209   5.346 -0.6753  0.2880  0.9780
  249MOL   C12935345   2.501   5.302   5.320 -0.4235  0.1374  0.6309
  249MOL   O13035346   2.595   5.290   5.426 -0.5867 -0.1671  0.0795
  249MOL   H13135347   2.426   5.114   5.354  0.8631  0.9276 -0.8995
  249MOL   H13235348   2.305   5.210   5.261  1.6831  0.3181 -0.9850
  249MOL   H13335349   2.470   5.406   5.315 -2.8691 -0.6277 -0.9557
  249MOL   H13435350   2.655   5.363   5.419  0.8139 -1.1906  1.1167
  249MOL   C13535351   2.568   5.262   5.185 -0.3508  0.1260  0.3280
  249MOL   C13635352   2.506   5.308   5.055 -0.1317 -0.2431 -0.1862
  249MOL   O13735353   2.399   5.227   5.016 -0.2305 -0.1428 -0.5607
  249MOL   H13835354   2.669   5.304   5.177 -0.0000 -0.7747 -0.0426
  249MOL   H13935355   2.588   5.155   5.176 -2.0381 -0.2602  0.9655
  249MOL   H14035356   2.586   5.305   4.981 -0.2470  0.4837 -0.3466
  249MOL   H14135357   2.406   5.206   4.925 -0.0564  2.4479 -1.1761
  249MOL   H14235358   2.484   5.414   5.068  2.4528  0.1335  1.3826
  250MOL     C135359   2.571   7.117   3.091  0.7662 -0.8911 -0.3797
  250MOL     C235360   2.473   7.009   3.075  0.3227 -0.7491  0.6674
  250MOL     O335361   2.382   7.035   2.967  0.1014  0.1758 -0.2724
  250MOL     H435362   2.535   7.215   3.059  0.2439 -1.3575 -1.2442
  250MOL     H535363   2.651   7.088   3.023  0.1692  1.3858 -2.1126
  250MOL     H635364   2.415   7.021   3.166 -1.0064 -1.7295 -0.0461
  250MOL     H735365   2.435   7.053   2.890  0.3734 -0.0576 -0.1425
  250MOL     H835366   2.605   7.122   3.194 -0.6430  0.7964  0.0384
  250MOL     C935367   2.530   6.870   3.062  0.0546 -0.2817 -0.5230
  250MOL    C1035368   2.633   6.823   3.168  0.3824 -0.2211  0.6718
  250MOL    O1135369   2.572   6.834   3.288 -0.3572  0.1397  0.0046
  250MOL    H1235370   2.458   6.790   3.041  2.5165 -2.2915 -1.4966
  250MOL    H1335371   2.578   6.863   2.964 -1.2481  0.4887 -1.2483
  250MOL    H1435372   2.713   6.896   3.173  0.3366 -0.2306  1.7059
  250MOL    H1535373   2.511   6.764   3.305 -0.1858 -0.2124 -0.7963
  250MOL    C1635374   2.688   6.679   3.158 -0.2636 -0.5266 -0.3641
  250MOL    C1735375   2.759   6.646   3.019 -0.7252 -0.4840  0.1252
  250MOL    O1835376   2.877   6.726   3.001 -0.4900 -0.0488 -0.1029
  250MOL    H1935377   2.766   6.671   3.234  0.8794  0.0496 -1.4487
  250MOL    H2035378   2.603   6.618   3.187 -0.3919  0.1846  0.7898
  250MOL    H2135379   2.701   6.691   2.937  0.6872 -2.1557 -1.8186
  250MOL    H2235380   2.943   6.679   2.952  0.2065  0.3574  0.4300
  250MOL    C2335381   2.778   6.499   2.990  0.3144 -0.0458 -0.1666
  250MOL    C2435382   2.657   6.404   2.999 -0.2840 -0.0098  0.5694
  250MOL    O2535383   2.547   6.437   2.911 -0.1814  0.3743 -0.0825
  250MOL    H2635384   2.807   6.489   2.885 -1.6542 -0.9842 -0.6598
  250MOL    H2735385   2.855   6.453   3.052  0.0380 -1.0215 -0.5337
  250MOL    H2835386   2.621   6.410   3.102 -0.2540 -1.1485  0.6461
  250MOL    H2935387   2.488   6.365   2.922  0.7891 -0.6552 -1.4459
  250MOL    C3035388   2.696   6.273   2.947 -1.0873  0.2364 -0.1075
  250MOL    C3135389   2.592   6.166   2.994  0.2167 -0.6686  1.0510
  250MOL    O3235390   2.478   6.186   2.916 -0.0521  0.6090  0.6077
  250MOL    H3335391   2.711   6.271   2.839 -0.5549  1.6241 -0.0613
  250MOL    H3435392   2.793   6.239   2.985 -0.8646  0.4068 -0.5223
  250MOL    H3535393   2.558   6.186   3.095  1.2922  0.2123  1.2412
  250MOL    H3635394   2.405   6.166   2.974 -0.3397  2.3069  0.8435
  250MOL    C3735395   2.633   6.018   2.978  0.1365 -0.1517  0.3548
  250MOL    C3835396   2.565   5.926   3.080  0.4199  0.1390 -0.8823
  250MOL    O3935397   2.580   5.794   3.035 -0.1208 -0.3709 -0.4646
  250MOL    H4035398   2.615   5.995   2.873  2.7119 -0.7055 -0.0018
  250MOL    H4135399   2.736   6.003   3.010 -0.4434  0.4744  2.5725
  250MOL    H4235400   2.461   5.956   3.062  0.5193  1.1392  0.1187
  250MOL    H4335401   2.669   5.765   3.045  0.7028  1.3420 -2.6496
  250MOL    C4435402   2.592   5.946   3.234  0.4428  0.3225 -0.1438
  250MOL    C4535403   2.512   5.852   3.334 -0.3542 -0.0700  0.7556
  250MOL    O4635404   2.563   5.876   3.465 -0.5927 -0.2633 -0.1790
  250MOL    H4735405   2.699   5.935   3.249  0.5482  1.5482  0.0707
  250MOL    H4835406   2.573   6.050   3.263 -0.0602  0.3092 -0.4080
  250MOL    H4935407   2.542   5.749   3.317 -1.1916 -0.4342  1.4505
  250MOL    H5035408   2.648   5.834   3.470  0.1722  1.4398  2.5412
  250MOL    C5135409   2.361   5.860   3.334 -0.4944 -0.3010  0.5842
  250MOL    C5235410   2.269   5.800   3.218 -0.0879 -0.6441 -0.1410
  250MOL    O5335411   2.313   5.676   3.168 -0.0569  0.1704 -0.5869
  250MOL    H5435412   2.331   5.799   3.420  1.4046 -1.1046  0.7003
  250MOL    H5535413   2.317   5.959   3.346 -2.8329 -1.3329  0.8570
  250MOL    H5635414   2.272   5.868   3.133  2.7765 -0.2187  0.2501
  250MOL    H5735415   2.392   5.699   3.123 -1.7210  0.8762 -3.2897
  250MOL    C5835416   2.125   5.780   3.271  0.2842  0.1407 -0.1542
  250MOL    C5935417   2.034   5.903   3.301 -0.0377 -0.0406  0.1351
  250MOL    O6035418   2.004   5.963   3.170  0.0094 -0.5441  0.0786
  250MOL    H6135419   2.070   5.720   3.199 -1.7244  1.3016  0.3604
  250MOL    H6235420   2.131   5.709   3.353  2.2601 -1.1327 -1.3553
  250MOL    H6335421   2.071   5.989   3.358  0.9436  0.3346 -1.0366
  250MOL    H6435422   1.941   5.903   3.133 -0.7093  0.3055 -0.1164
  250MOL    C6535423   1.898   5.862   3.358 -0.4800 -0.4265 -0.4945
  250MOL    C6635424   1.909   5.808   3.505 -0.1082 -0.4077 -0.6848
  250MOL    O6735425   1.913   5.930   3.589  0.5202 -0.0151  0.6091
  250MOL    H6835426   1.817   5.935   3.364 -0.6375 -0.6810  0.6257
  250MOL    H6935427   1.856   5.785   3.293 -0.9829  0.1055 -0.8156
  250MOL    H7035428   1.997   5.749   3.527  1.0428  1.4721 -0.1029
  250MOL    H7135429   1.989   5.981   3.567  1.3866 -0.2514  2.8916
  250MOL    C7235430   1.791   5.733   3.564 -0.1292  0.2964 -0.4058
  250MOL    C7335431   1.751   5.598   3.511  0.7519 -0.4888 -0.1073
  250MOL    O7435432   1.874   5.525   3.507 -0.0902  0.1703 -0.3251
  250MOL    H7535433   1.834   5.707   3.660  2.0519  0.8959 -1.1822
  250MOL    H7635434   1.702   5.795   3.580 -0.8786 -0.3293 -1.9963
  250MOL    H7735435   1.716   5.608   3.408  1.2848 -0.5768 -0.2951
  250MOL    H7835436   1.871   5.468   3.432  0.9652  0.3645 -0.5171
  250MOL    C7935437   1.648   5.521   3.598 -0.6282  0.6067  0.3653
  250MOL    C8035438   1.506   5.583   3.600 -0.2903 -0.5488  0.1834
  250MOL    O8135439   1.453   5.570   3.469  0.0353  0.3032 -0.1177
  250MOL    H8235440   1.631   5.420   3.563  0.6696  0.4285  0.2350
  250MOL    H8335441   1.694   5.506   3.695 -1.6218 -1.6105  0.5155
  250MOL    H8435442   1.510   5.685   3.638 -1.9596  0.7355 -2.9022
  250MOL    H8535443   1.460   5.659   3.437  3.1041  0.5362  1.0492
  250MOL    C8635444   1.419   5.500   3.694 -0.5282 -0.2788 -0.0419
  250MOL    C8735445   1.263   5.507   3.673 -0.0445  0.2686  0.9069
  250MOL    O8835446   1.199   5.411   3.756  0.0747 -0.2729  0.4366
  250MOL    H8935447   1.438   5.393   3.692 -2.6692 -0.7491  2.3931
  250MOL    H9035448   1.438   5.529   3.797  0.6056 -0.1135 -0.2952
  250MOL    H9135449   1.249   5.481   3.568  2.6612  1.6276  0.1675
  250MOL    H9235450   1.155   5.349   3.700  1.4814 -1.2573  0.4013
  250MOL    C9335451   1.198   5.654   3.694 -0.1374  0.2068 -0.8370
  250MOL    C9435452   1.039   5.662   3.665 -0.3815  0.4431 -0.3393
  250MOL    O9535453   0.988   5.779   3.708  0.2189 -0.3237 -0.0919
  250MOL    H9635454   1.213   5.669   3.801  1.4433  0.2216 -1.0473
  250MOL    H9735455   1.256   5.717   3.628 -0.1055  1.7566  0.6462
  250MOL    H9835456   0.991   5.586   3.726 -1.1514  1.8116  0.7796
  250MOL    H9935457   0.968   5.771   3.800 -0.8377  1.6036 -0.1279
  250MOL   C10035458   1.007   5.642   3.512  0.0164  0.4856  0.5930
  250MOL   C10135459   0.853   5.626   3.483 -0.7368 -0.7619  0.2277
  250MOL   O10235460   0.824   5.618   3.343  0.1208  0.5953  0.1096
  250MOL   H10335461   1.044   5.725   3.451  1.1485 -0.3139  0.1677
  250MOL   H10435462   1.062   5.555   3.475  0.2509  0.3325  1.2976
  250MOL   H10535463   0.805   5.719   3.513 -0.3135 -0.6465  0.5542
  250MOL   H10635464   0.739   5.660   3.338 -0.4678 -0.6555 -0.7157
  250MOL   C10735465   0.789   5.509   3.555  0.2980  0.0034 -0.2212
  250MOL   C10835466   0.701   5.554   3.676  0.5008 -0.2715  0.9057
  250MOL   O10935467   0.585   5.606   3.606 -0.6484  0.4610 -0.0952
  250MOL   H11035468   0.731   5.441   3.491  0.4140 -2.5632  2.3112
  250MOL   H11135469   0.873   5.444   3.580  1.0809  0.7446 -0.8386
  250MOL   H11235470   0.737   5.644   3.725  1.5803 -0.6255  0.7751
  250MOL   H11335471   0.582   5.700   3.612 -2.0932  0.5042 -1.2702
  250MOL   C11435472   0.639   5.438   3.756  0.3137 -0.2552 -0.1704
  250MOL   C11535473   0.742   5.360   3.843 -0.9772  0.4063  0.1365
  250MOL   O11635474   0.792   5.461   3.933 -0.3207 -0.1708  0.4538
  250MOL   H11735475   0.568   5.473   3.831  0.2982  0.0809 -0.3389
  250MOL   H11835476   0.601   5.356   3.694 -1.2687  0.5776 -0.3412
  250MOL   H11935477   0.818   5.328   3.771 -1.3827 -1.7025  0.6391
  250MOL   H12035478   0.878   5.430   3.957  0.1301  0.9538  0.3231
  250MOL   C12135479   0.694   5.227   3.916 -0.2463 -0.1834 -0.1466
  250MOL   C12235480   0.609   5.135   3.834 -0.3785  0.5681  0.3167
  250MOL   O12335481   0.678   5.110   3.716 -0.1328  0.7153 -0.6327
  250MOL   H12435482   0.779   5.167   3.947  0.1422  0.4129 -0.0499
  250MOL   H12535483   0.639   5.265   4.002  1.8170  1.4769  0.4947
  250MOL   H12635484   0.513   5.181   3.810 -1.1092 -0.5551  0.9834
  250MOL   H12735485   0.612   5.083   3.653 -0.1844  0.2873 -0.3984
  250MOL   C12835486   0.581   4.999   3.890  0.3253  0.2994 -0.1975
  250MOL   C12935487   0.446   4.984   3.949  0.3981 -0.6178 -0.5591
  250MOL   O13035488   0.351   4.957   3.849 -0.8472 -0.1608  0.4085
  250MOL   H13135489   0.596   4.925   3.812 -2.4421  0.3036 -0.8111
  250MOL   H13235490   0.650   4.983   3.973 -0.2983 -1.7792 -0.0592
  250MOL   H13335491   0.424   5.069   4.013 -2.7254 -2.7721  1.3182
  250MOL   H13435492   0.382   4.875   3.812  0.1556 -0.4430  1.8415
  250MOL   C13535493   0.435   4.856   4.032  0.0589 -0.6137 -0.0706
  250MOL   C13635494   0.517   4.849   4.164  0.1896  0.0149  0.1868
  250MOL   O13735495   0.441   4.891   4.275  0.3550 -0.4580  0.2803
  250MOL   H13835496   0.333   4.821   4.051 -0.6091  1.4922  0.4302
  250MOL   H13935497   0.472   4.768   3.981  1.0681  0.1037 -0.5793
  250MOL   H14035498   0.613   4.900   4.170 -0.3415  1.2478 -1.2886
  250MOL   H14135499   0.384   4.819   4.295 -1.6301  1.0075  0.0159
  250MOL   H14235500   0.526   4.743   4.189  0.9028 -0.4840 -2.0895
  251MOL     C135501   0.331   7.317   3.255 -0.1806  0.1851 -0.6307
  251MOL     C235502   0.269   7.240   3.138 -0.0697  0.2494  0.2775
  251MOL     O335503   0.143   7.228   3.181  0.1833 -0.0758  0.1213
  251MOL     H435504   0.318   7.265   3.350  0.1703 -2.7080 -2.1372
  251MOL     H535505   0.304   7.422   3.271 -0.6063 -0.1170  0.7192
  251MOL     H635506   0.313   7.140   3.147  1.4164  1.0854  2.8699
  251MOL     H735507   0.103   7.312   3.162  0.5766  0.0355 -0.2051
  251MOL     H835508   0.437   7.322   3.231  0.3568 -1.9098  1.1661
  251MOL     C935509   0.291   7.310   3.002 -0.1567  0.1578  0.4801
  251MOL    C1035510   0.442   7.321   2.965  0.0017 -0.4361  0.6680
  251MOL    O1135511   0.498   7.191   2.972  0.0538  0.1096  0.2509
  251MOL    H1235512   0.222   7.258   2.935 -0.2934 -0.7854  1.3520
  251MOL    H1335513   0.245   7.409   2.999 -0.1575  0.1337 -0.8313
  251MOL    H1435514   0.497   7.379   3.039 -1.0124 -1.5006  2.2556
  251MOL    H1535515   0.577   7.184   2.921 -0.0693 -1.2137  0.2377
  251MOL    C1635516   0.464   7.387   2.828 -0.1850 -0.4851 -0.3162
  251MOL    C1735517   0.603   7.388   2.767  0.2525  0.3028  0.3191
  251MOL    O1835518   0.629   7.260   2.719  0.2027 -0.1132 -0.0069
  251MOL    H1935519   0.388   7.355   2.756 -0.5760 -0.8912  0.2768
  251MOL    H2035520   0.442   7.488   2.860 -4.4582 -1.5901  0.4899
  251MOL    H2135521   0.675   7.409   2.847  0.3489  0.5258  0.1737
  251MOL    H2235522   0.567   7.240   2.650  1.4299  0.4901 -1.3067
  251MOL    C2335523   0.616   7.497   2.658  0.9439  0.2666  0.2907
  251MOL    C2435524   0.757   0.003   2.606  0.0351  0.0216  0.0541
  251MOL    O2535525   0.791   7.413   2.525  0.1707  0.6418  0.2058
  251MOL    H2635526   0.538   7.482   2.583 -0.4279  2.3760  1.2460
  251MOL    H2735527   0.574   0.067   2.705 -1.3995 -0.2934 -0.6445
  251MOL    H2835528   0.826   0.015   2.690  1.4935  0.4221 -1.1838
  251MOL    H2935529   0.793   7.337   2.581  0.2475  0.9470  0.6262
  251MOL    C3035530   0.760   0.134   2.530 -0.5713  0.1851 -0.0350
  251MOL    C3135531   0.892   0.162   2.448  0.4724  1.5633  0.4041
  251MOL    O3235532   0.890   0.070   2.344 -0.1743 -0.3197 -0.2722
  251MOL    H3335533   0.674   0.139   2.463 -0.0149 -0.1890 -0.7841
  251MOL    H3435534   0.757   0.212   2.606 -1.0398 -0.6197  0.7758
  251MOL    H3535535   0.978   0.145   2.512  0.7023  0.8164 -0.0950
  251MOL    H3635536   0.835   0.001   2.377  1.9031 -2.7507 -1.7539
  251MOL    C3735537   0.914   0.307   2.384  0.6800  0.3461 -0.2563
  251MOL    C3835538   0.961   0.402   2.494  0.1047 -0.3398  0.7155
  251MOL    O3935539   1.078   0.357   2.557  0.0543  0.1204  0.2601
  251MOL    H4035540   0.989   0.311   2.305  0.2767 -0.3765 -0.6814
  251MOL    H4135541   0.825   0.336   2.328 -0.5340 -1.5188  0.6472
  251MOL    H4235542   0.884   0.409   2.571 -1.2760 -1.3081 -0.5304
  251MOL    H4335543   1.048   0.329   2.642  0.3478 -0.1980  0.2586
  251MOL    C4435544   0.978   0.550   2.444  0.2843  0.0153 -0.4073
  251MOL    C4535545   1.085   0.588   2.327 -0.3073 -0.3022 -0.1355
  251MOL    O4635546   1.013   0.700   2.276 -0.3610 -0.0735 -0.3518
  251MOL    H4735547   0.878   0.582   2.415  0.1052  0.4497  0.6595
  251MOL    H4835548   0.997   0.616   2.529  0.5491 -1.7721  0.9548
  251MOL    H4935549   1.097   0.507   2.255 -0.9984  0.4341 -1.0999
  251MOL    H5035550   1.071   0.728   2.207  0.0464 -0.7638 -0.2973
  251MOL    C5135551   1.228   0.634   2.380  0.2178  0.4362 -1.2230
  251MOL    C5235552   1.326   0.664   2.262 -0.2028  0.3536 -0.6055
  251MOL    O5335553   1.253   0.740   2.175  0.1257  0.1455 -0.8422
  251MOL    H5435554   1.225   0.724   2.442 -0.1257 -0.6063  0.2971
  251MOL    H5535555   1.259   0.549   2.440  0.1208  0.8328 -0.6110
  251MOL    H5635556   1.359   0.572   2.213  0.5130  0.2149  0.1267
  251MOL    H5735557   1.311   0.805   2.139 -0.7783  0.8693 -1.0268
  251MOL    C5835558   1.455   0.741   2.302 -1.0507 -0.6115 -0.0875
  251MOL    C5935559   1.549   0.761   2.186 -0.1882  0.0158 -0.4283
  251MOL    O6035560   1.497   0.867   2.101 -0.6862  0.0410  0.4460
  251MOL    H6135561   1.432   0.835   2.352  0.7416  0.5002 -1.2891
  251MOL    H6235562   1.508   0.697   2.386  0.6167 -1.0588 -1.3495
  251MOL    H6335563   1.555   0.666   2.133  3.4813  0.1200 -0.3700
  251MOL    H6435564   1.522   0.846   2.012 -0.0790 -1.2736  0.9181
  251MOL    C6535565   1.692   0.801   2.236 -0.5927  0.5905 -0.1363
  251MOL    C6635566   1.804   0.813   2.131  0.3367 -0.0547  0.2491
  251MOL    O6735567   1.908   0.853   2.208  0.3296 -0.0081  0.3089
  251MOL    H6835568   1.679   0.895   2.290 -1.7780  0.0583  0.5130
  251MOL    H6935569   1.729   0.733   2.312 -1.0192 -0.5115 -0.8950
  251MOL    H7035570   1.774   0.883   2.054  0.1143 -0.6713 -0.2274
  251MOL    H7135571   1.881   0.943   2.223  1.2731  0.0916  1.5539
  251MOL    C7235572   1.836   0.672   2.065 -0.0289 -0.9728 -0.2518
  251MOL    C7335573   1.966   0.670   1.971 -0.0524  0.1385  0.2107
  251MOL    O7435574   1.981   0.540   1.908  0.3901 -0.3016 -0.0661
  251MOL    H7535575   1.848   0.598   2.144  0.2795 -1.0363 -0.3556
  251MOL    H7635576   1.753   0.643   2.001  2.0207 -3.1579 -1.9729
  251MOL    H7735577   2.043   0.693   2.044 -0.6832 -1.3078  1.3634
  251MOL    H7835578   2.017   0.555   1.822  0.6537 -0.4523  0.0141
  251MOL    C7935579   1.977   0.772   1.869  0.6758 -0.5676  0.4679
  251MOL    C8035580   2.109   0.780   1.794  0.4263  0.4990 -0.1554
  251MOL    O8135581   2.137   0.665   1.718  0.2548 -0.6241 -0.0339
  251MOL    H8235582   1.898   0.760   1.795  1.2160  1.0041 -0.3769
  251MOL    H8335583   1.961   0.866   1.921  4.1116 -1.2083  2.8804
  251MOL    H8435584   2.192   0.790   1.864  2.0212 -0.1815 -1.9094
  251MOL    H8535585   2.225   0.678   1.685  0.8053 -4.0361 -0.0783
  251MOL    C8635586   2.116   0.902   1.698  0.4210 -0.1623 -0.1919
  251MOL    C8735587   2.142   1.037   1.767  0.4010  0.1803  0.0187
  251MOL    O8835588   2.256   1.016   1.857  0.2882  0.2668  0.5703
  251MOL    H8935589   2.201   0.878   1.635  0.0394 -1.5279 -0.1942
  251MOL    H9035590   2.031   0.900   1.630  0.2346 -0.8052  0.0589
  251MOL    H9135591   2.057   1.060   1.830  0.2493  3.7641 -1.3717
  251MOL    H9235592   2.270   1.089   1.915  2.5223  1.6765 -1.6106
  251MOL    C9335593   2.169   1.156   1.673 -0.3548  0.6287  0.0805
  251MOL    C9435594   2.065   1.270   1.670  0.6714 -0.1469 -0.0209
  251MOL    O9535595   2.055   1.324   1.803 -0.6272 -0.0100 -0.3989
  251MOL    H9635596   2.260   1.205   1.706  0.0661 -1.0651  1.5553
  251MOL    H9735597   2.210   1.119   1.579  0.7753  0.8722  0.4755
  251MOL    H9835598   1.967   1.230   1.642  1.3433 -0.5109 -1.8787
  251MOL    H9935599   1.964   1.334   1.825 -0.4550  1.8791 -0.5146
  251MOL   C10035600   2.104   1.380   1.573 -0.5837 -0.0852  0.0626
  251MOL   C10135601   2.037   1.376   1.434  0.4922  0.2365 -0.0786
  251MOL   O10235602   2.106   1.462   1.352 -0.1040  0.2196 -0.8518
  251MOL   H10335603   2.072   1.477   1.613  0.4453  0.0286  0.6145
  251MOL   H10435604   2.212   1.378   1.559 -0.4775 -0.8311  0.9965
  251MOL   H10535605   1.933   1.408   1.440  0.3672 -0.0826 -0.5312
  251MOL   H10635606   2.060   1.544   1.362  0.6038  0.4758  0.3645
  251MOL   C10735607   2.051   1.239   1.373  0.3383 -0.4883  0.0537
  251MOL   C10835608   1.989   1.206   1.241  0.1591 -0.3491  0.7955
  251MOL   O10935609   2.048   1.283   1.136  0.2078  0.5829 -0.6277
  251MOL   H11035610   2.158   1.220   1.375  0.6661  1.2955  0.2636
  251MOL   H11135611   2.015   1.164   1.443 -0.3742 -1.1688 -1.0214
  251MOL   H11235612   1.888   1.244   1.225  0.2511 -0.4935 -0.1837
  251MOL   H11335613   2.075   1.360   1.184 -2.4498  1.5523 -0.5996
  251MOL   C11435614   1.982   1.060   1.203 -0.8699  0.7046 -0.2358
  251MOL   C11535615   1.874   1.018   1.105  0.1396  0.3219 -0.2876
  251MOL   O11635616   1.903   1.082   0.986  0.1770 -0.0609 -0.1029
  251MOL   H11735617   2.083   1.027   1.179 -1.5402 -2.2291  0.8526
  251MOL   H11835618   1.968   1.015   1.301 -1.7420  3.2048  0.8406
  251MOL   H11935619   1.786   1.070   1.142 -0.4598  1.3517 -3.0286
  251MOL   H12035620   1.948   1.162   1.010 -0.9302  0.8465 -0.9352
  251MOL   C12135621   1.854   0.866   1.100  0.8484  0.4273 -0.4069
  251MOL   C12235622   1.833   0.795   1.230 -0.0628  0.1275 -0.2021
  251MOL   O12335623   1.714   0.848   1.287 -0.2200  0.1526 -0.3741
  251MOL   H12435624   1.783   0.844   1.020 -0.4914  2.7932  0.0891
  251MOL   H12535625   1.949   0.823   1.069  1.1255 -0.2438  1.2938
  251MOL   H12635626   1.914   0.804   1.302 -0.9722  0.3336  0.8032
  251MOL   H12735627   1.651   0.864   1.218 -0.5816  1.5187  0.2531
  251MOL   C12835628   1.802   0.647   1.199 -0.2796 -0.1832 -0.2461
  251MOL   C12935629   1.795   0.557   1.329  0.1398 -0.1877  0.2058
  251MOL   O13035630   1.722   0.439   1.308 -0.1441 -0.0554  0.1034
  251MOL   H13135631   1.703   0.643   1.154 -0.2083 -2.9337 -0.2924
  251MOL   H13235632   1.870   0.599   1.128  0.7509 -0.2108  0.7413
  251MOL   H13335633   1.740   0.610   1.407  1.9254  0.1831  1.2452
  251MOL   H13435634   1.737   0.371   1.371  0.5922 -1.7171 -1.8197
  251MOL   C13535635   1.944   0.532   1.366  0.6252  0.5651 -0.0653
  251MOL   C13635636   1.973   0.452   1.489 -0.2607  0.2891  0.1735
  251MOL   O13735637   2.111   0.461   1.515  0.1510 -0.2029 -0.0948
  251MOL   H13835638   1.996   0.496   1.276 -0.0130  1.4475 -0.7917
  251MOL   H13935639   2.002   0.624   1.376  0.2523  0.7887  0.0396
  251MOL   H14035640   1.942   0.350   1.464 -0.1054  0.5701 -1.1998
  251MOL   H14135641   2.132   0.522   1.583 -2.1184 -0.3085  0.7316
  251MOL   H14235642   1.909   0.492   1.567 -2.2130 -0.8435 -0.8230
  252MOL     C135643   0.077   0.631   1.338 -0.1364  0.0123  0.8840
  252MOL     C235644   0.071   0.784   1.347 -0.4077  0.6231 -0.6958
  252MOL     O335645   7.454   0.830   1.367 -0.6900 -0.1890 -0.1979
  252MOL     H435646   0.068   0.587   1.437 -1.1248  2.2552  1.8309
  252MOL     H535647   0.175   0.605   1.298 -0.2707  1.7904 -0.6802
  252MOL     H635648   0.102   0.830   1.253  2.1659  1.3072  0.4485
  252MOL     H735649   7.402   0.768   1.416 -0.8119  0.3116  0.3209
  252MOL     H835650   0.009   0.586   1.265 -1.8711  0.3242  2.2765
  252MOL     C935651   0.155   0.856   1.455  0.5520 -0.0939  0.1237
  252MOL    C1035652   0.299   0.877   1.422  0.6853  0.3004  0.7223
  252MOL    O1135653   0.335   0.954   1.307 -0.5049 -0.3563 -0.2349
  252MOL    H1235654   0.108   0.949   1.488 -1.2516 -0.4828 -1.3020
  252MOL    H1335655   0.158   0.787   1.540 -1.6771 -1.2025 -0.6740
  252MOL    H1435656   0.344   0.778   1.411 -1.4133 -0.5704 -0.2576
  252MOL    H1535657   0.336   0.891   1.237  0.4444 -0.9146  0.2685
  252MOL    C1635658   0.377   0.943   1.546  0.3767  0.2476 -0.4833
  252MOL    C1735659   0.373   0.867   1.684  0.3775 -0.0905  0.2168
  252MOL    O1835660   0.437   0.740   1.671 -0.5973  0.2676  0.3444
  252MOL    H1935661   0.478   0.960   1.510  1.0945  1.0701  1.7809
  252MOL    H2035662   0.341   1.046   1.557  0.3115  0.4865 -2.7916
  252MOL    H2135663   0.269   0.849   1.712  1.2837 -2.4705  2.2618
  252MOL    H2235664   0.372   0.676   1.645  1.6278 -1.6311 -0.6495
  252MOL    C2335665   0.433   0.961   1.791  0.2707 -0.3855 -0.7605
  252MOL    C2435666   0.334   1.051   1.862 -0.0703 -0.1023  0.3747
  252MOL    O2535667   0.319   1.004   1.995 -0.2705  0.2379  0.6098
  252MOL    H2635668   0.470   0.895   1.870  1.0261  0.6533 -0.2304
  252MOL    H2735669   0.523   1.009   1.752  0.4555  0.7092  0.9430
  252MOL    H2835670   0.237   1.045   1.812  1.0701 -2.7968 -1.6605
  252MOL    H2935671   0.262   1.068   2.036 -0.8801  0.4804 -0.6022
  252MOL    C3035672   0.385   1.192   1.876  0.3193 -0.1859  0.4608
  252MOL    C3135673   0.267   1.299   1.852  0.1595  0.2105  0.2653
  252MOL    O3235674   0.210   1.311   1.976 -0.1180 -0.3008  0.0179
  252MOL    H3335675   0.442   1.216   1.966  2.4287  1.3285 -1.2118
  252MOL    H3435676   0.454   1.209   1.794 -1.7960  0.2693 -1.2676
  252MOL    H3535677   0.199   1.258   1.777  0.3531  1.7481 -0.7713
  252MOL    H3635678   0.132   1.363   1.962 -2.3594 -3.7104 -0.9694
  252MOL    C3735679   0.324   1.441   1.818  0.2167 -0.3757  0.3204
  252MOL    C3835680   0.369   1.447   1.667  0.3656  1.0122  0.3317
  252MOL    O3935681   0.242   1.425   1.589 -0.6833  0.4188  0.4374
  252MOL    H4035682   0.245   1.513   1.842 -1.2696 -0.9452 -2.5675
  252MOL    H4135683   0.409   1.469   1.880 -0.4100 -1.8165  1.8789
  252MOL    H4235684   0.431   1.359   1.652 -0.6403 -0.0210  2.1945
  252MOL    H4335685   0.269   1.370   1.517  1.9115  1.2356  0.7296
  252MOL    C4435686   0.457   1.566   1.622  0.2785 -0.2740  0.2516
  252MOL    C4535687   0.492   1.575   1.474 -0.2689  0.3357 -0.0168
  252MOL    O4635688   0.578   1.688   1.464  0.3461  0.1146  0.2937
  252MOL    H4735689   0.403   1.655   1.654 -0.3784 -0.5617 -0.0449
  252MOL    H4835690   0.549   1.550   1.679  1.2737 -0.1504 -1.2775
  252MOL    H4935691   0.395   1.589   1.426  0.0201  2.6261  0.0403
  252MOL    H5035692   0.534   1.767   1.490  1.3012  1.1001 -1.0171
  252MOL    C5135693   0.547   1.445   1.403  0.1283  0.0155 -0.0578
  252MOL    C5235694   0.509   1.426   1.249 -0.0198  0.0169 -0.2660
  252MOL    O5335695   0.589   1.328   1.200  0.0620  0.4447 -0.1041
  252MOL    H5435696   0.656   1.448   1.407  0.1260 -1.5824  2.0470
  252MOL    H5535697   0.515   1.358   1.460 -1.2070 -0.4406 -1.4708
  252MOL    H5635698   0.534   1.520   1.200  0.0372  0.0473 -0.1787
  252MOL    H5735699   0.589   1.247   1.249  0.1011  0.3309 -0.2930
  252MOL    C5835700   0.356   1.405   1.216 -0.6484  0.1550  0.8641
  252MOL    C5935701   0.305   1.257   1.228 -0.6019  0.8860 -0.4581
  252MOL    O6035702   0.304   1.218   1.364 -0.2746 -0.4989  0.7628
  252MOL    H6135703   0.294   1.469   1.277 -0.2507  0.0121  1.4227
  252MOL    H6235704   0.333   1.446   1.118 -0.2218 -1.6931 -0.0476
  252MOL    H6335705   0.368   1.183   1.179  1.9347  2.7278 -0.1034
  252MOL    H6435706   0.320   1.126   1.355 -0.3242 -0.4377  0.0185
  252MOL    C6535707   0.163   1.232   1.178  0.2014 -0.1035 -0.1857
  252MOL    C6635708   0.130   1.281   1.032 -0.0694  0.1935  0.0966
  252MOL    O6735709   0.203   1.200   0.949  0.3650 -0.1893  0.0571
  252MOL    H6835710   0.147   1.124   1.179 -0.4372 -0.0185  1.2044
  252MOL    H6935711   0.097   1.283   1.249  0.3833 -1.7909  1.2353
  252MOL    H7035712   0.157   1.385   1.013  0.9178 -0.3372 -1.4977
  252MOL    H7135713   0.196   1.245   0.867  1.2879 -1.9842 -1.0311
  252MOL    C7235714   7.507   1.268   0.979  0.0035 -0.1401  0.4973
  252MOL    C7335715   7.413   1.349   1.072  0.1458 -0.5416  0.5256
  252MOL    O7435716   7.469   1.473   1.101 -0.6354 -0.2741  0.7140
  252MOL    H7535717   7.495   1.309   0.878  3.1012  0.5455  0.3629
  252MOL    H7635718   7.481   1.162   0.975  0.9304 -0.2916 -2.6782
  252MOL    H7735719   7.409   1.293   1.165  3.2076 -1.4111  0.2034
  252MOL    H7835720   7.405   1.531   1.139  0.9289  1.1491  1.2352
  252MOL    C7935721   7.274   1.370   1.007  0.2080  0.8231  0.2051
  252MOL    C8035722   7.168   1.411   1.119  0.7283  0.0053  0.4142
  252MOL    O8135723   7.202   1.542   1.162 -0.0448 -0.5045 -0.0232
  252MOL    H8235724   7.287   1.458   0.943  2.7744 -0.2819 -0.8528
  252MOL    H8335725   7.245   1.279   0.955 -0.4619  0.7695  0.6602
  252MOL    H8435726   7.179   1.343   1.203  0.1805 -1.3581 -0.6082
  252MOL    H8535727   7.230   1.534   1.252 -1.3502 -1.5207  0.3238
  252MOL    C8635728   7.027   1.392   1.063 -0.2120 -0.4628 -0.9278
  252MOL    C8735729   6.918   1.456   1.148  0.7220  0.3002 -0.3103
  252MOL    O8835730   6.801   1.489   1.068 -0.0006  0.1026 -0.1420
  252MOL    H8935731   7.027   1.432   0.962 -0.1450  0.8314 -0.4247
  252MOL    H9035732   7.007   1.287   1.042  1.0600 -0.6601 -1.2143
  252MOL    H9135733   6.955   1.547   1.194 -0.6384  0.5458  0.3239
  252MOL    H9235734   6.778   1.422   1.006 -0.5866  0.3467 -0.1937
  252MOL    C9335735   6.873   1.385   1.272 -0.2554  0.1468 -0.3687
  252MOL    C9435736   6.757   1.463   1.359  0.2988 -0.1891 -0.2035
  252MOL    O9535737   6.631   1.443   1.295 -0.4505  0.3134 -0.0056
  252MOL    H9635738   6.837   1.285   1.247  1.0949 -0.3455 -0.3847
  252MOL    H9735739   6.962   1.370   1.333 -0.4322 -1.2845 -0.4268
  252MOL    H9835740   6.778   1.570   1.360 -0.2236 -0.0848  1.9273
  252MOL    H9935741   6.591   1.359   1.314 -0.7976 -0.1177 -2.4858
  252MOL   C10035742   6.746   1.416   1.502  0.1018 -0.7241 -0.7464
  252MOL   C10135743   6.826   1.506   1.602  0.1311 -0.2840  0.3184
  252MOL   O10235744   6.790   1.466   1.735  0.5072 -0.1163 -0.4329
  252MOL   H10335745   6.642   1.421   1.534 -0.0696  3.4859 -1.7354
  252MOL   H10435746   6.777   1.312   1.491 -2.1541 -1.5616  0.4063
  252MOL   H10535747   6.799   1.611   1.601  1.5720  0.0889 -0.7772
  252MOL   H10635748   6.706   1.509   1.746  0.4764 -0.4088  0.5517
  252MOL   C10735749   6.972   1.501   1.588  0.0465  0.4553  0.2430
  252MOL   C10835750   7.049   1.584   1.688  0.4146  0.3425 -0.7401
  252MOL   O10935751   7.186   1.554   1.674 -0.6979 -0.2562 -0.1054
  252MOL   H11035752   7.005   1.398   1.596 -0.7528  0.1376 -0.4704
  252MOL   H11135753   6.999   1.543   1.491 -1.6638 -0.1080 -0.4947
  252MOL   H11235754   7.035   1.552   1.792  1.3579  2.0223 -0.0753
  252MOL   H11335755   7.178   1.463   1.701 -1.6355  0.4605  2.1156
  252MOL   C11435756   7.037   1.738   1.681  0.3785 -0.2479  0.4836
  252MOL   C11535757   7.135   1.830   1.755  0.1086 -0.5241 -0.1790
  252MOL   O11635758   7.115   1.963   1.710 -0.3786 -0.3912  0.0861
  252MOL   H11735759   7.042   1.752   1.573 -1.2757  0.1138  0.4531
  252MOL   H11835760   6.937   1.774   1.705 -0.6589 -1.2811 -2.1890
  252MOL   H11935761   7.234   1.795   1.727  0.2202 -1.7153  1.6286
  252MOL   H12035762   7.137   1.967   1.618 -0.4895  0.1317  0.0844
  252MOL   C12135763   7.135   1.828   1.913 -0.0512  0.6825 -0.1651
  252MOL   C12235764   7.256   1.784   1.986 -0.0456 -0.9824 -0.0129
  252MOL   O12335765   7.211   1.763   2.117 -0.1249 -0.4344  0.7284
  252MOL   H12435766   7.092   1.922   1.947  0.6831  0.9238  0.1000
  252MOL   H12535767   7.057   1.761   1.948  1.3869  0.2637  2.3099
  252MOL   H12635768   7.334   1.861   1.984 -0.4738 -0.5092  1.0234
  252MOL   H12735769   7.276   1.806   2.171 -1.2056  2.0899  0.0646
  252MOL   C12835770   7.316   1.655   1.946 -0.6268  0.0988  0.0443
  252MOL   C12935771   7.446   1.600   2.020  0.1415 -0.4689 -0.0890
  252MOL   O13035772   7.474   1.471   1.975 -0.1907  0.0366 -0.6772
  252MOL   H13135773   7.236   1.582   1.935  0.0252 -1.2994  3.7528
  252MOL   H13235774   7.362   1.660   1.847 -0.5189 -0.3937  0.0686
  252MOL   H13335775   7.428   1.597   2.127  1.7906  1.8351  0.2978
  252MOL   H13435776   7.452   1.466   1.883 -1.9026  0.5921 -0.3201
  252MOL   C13535777   0.049   1.686   1.995  0.6192 -0.0266  0.2292
  252MOL   C13635778   0.163   1.666   2.092  0.4242 -0.1885 -0.7553
  252MOL   O13735779   0.265   1.759   2.072 -0.6549 -0.4847  0.3935
  252MOL   H13835780   0.093   1.680   1.895  2.0197  2.3304  0.6714
  252MOL   H13935781   0.027   1.792   2.009 -1.1638 -0.3093 -0.2878
  252MOL   H14035782   0.204   1.566   2.077 -1.1671 -0.8618 -0.7082
  252MOL   H14135783   0.326   1.752   2.143 -0.7583  1.1502  0.6601
  252MOL   H14235784   0.120   1.674   2.191  0.8537  0.8480 -0.6523
  253MOL     C135785   4.364   6.274   3.148  0.0339  0.1445  0.0235
  253MOL     C235786   4.396   6.200   3.272 -0.3554  0.0221 -0.1385
  253MOL     O335787   4.529   6.151   3.243 -0.5068 -0.0833 -0.6494
  253MOL     H435788   4.443   6.346   3.130  1.4247 -1.3029  0.1981
  253MOL     H535789   4.269   6.327   3.152  0.6858  1.6223 -2.7260
  253MOL     H635790   4.333   6.111   3.286 -0.5023  0.2928  0.9410
  253MOL     H735791   4.519   6.075   3.188 -0.5726 -1.2045  0.8637
  253MOL     H835792   4.369   6.203   3.065  1.4225 -1.6137  1.5727
  253MOL     C935793   4.393   6.290   3.395  0.3027 -0.6415  0.4063
  253MOL    C1035794   4.277   6.277   3.495 -0.6920 -0.1356 -0.4608
  253MOL    O1135795   4.321   6.299   3.617  0.3612  0.3840 -0.1495
  253MOL    H1235796   4.492   6.285   3.442  0.2595  1.6117  0.7964
  253MOL    H1335797   4.409   6.394   3.366 -0.5687 -0.4930  0.4431
  253MOL    H1435798   4.240   6.175   3.498  1.7933 -1.0402  0.5884
  253MOL    H1535799   4.241   6.307   3.667  0.4050 -0.2196  0.0191
  253MOL    C1635800   4.155   6.372   3.478 -0.0892 -0.4086  0.7907
  253MOL    C1735801   4.034   6.323   3.551 -0.3576 -0.3694 -0.2166
  253MOL    O1835802   4.060   6.366   3.685  0.0003 -0.0544  0.2636
  253MOL    H1935803   4.185   6.473   3.506 -1.7339  0.6092 -0.9964
  253MOL    H2035804   4.146   6.364   3.370  3.0571  0.9470  0.3754
  253MOL    H2135805   4.019   6.215   3.546 -2.9167  0.0045 -2.1229
  253MOL    H2235806   4.000   6.333   3.751  0.1345 -1.2940 -0.2250
  253MOL    C2335807   3.913   6.406   3.503 -0.3040  0.1724 -0.1889
  253MOL    C2435808   3.872   6.381   3.349  0.0662 -0.0640  0.0463
  253MOL    O2535809   3.733   6.393   3.356 -0.1299 -1.0479 -0.0512
  253MOL    H2635810   3.828   6.391   3.569  1.1404 -0.4944  1.5424
  253MOL    H2735811   3.942   6.510   3.520  2.7414 -0.0682 -3.2781
  253MOL    H2835812   3.893   6.279   3.317 -0.5712  0.5252 -2.3793
  253MOL    H2935813   3.693   6.318   3.315  0.7274 -2.0425  0.9245
  253MOL    C3035814   3.920   6.483   3.240  0.3162  0.3768 -0.5651
  253MOL    C3135815   3.893   6.440   3.089  0.3693  0.1725  0.4484
  253MOL    O3235816   3.757   6.431   3.072  0.0261  0.0552 -0.5230
  253MOL    H3335817   3.888   6.584   3.263  0.7612  1.1702 -3.2643
  253MOL    H3435818   4.027   6.489   3.260  0.3360  3.3798 -1.4509
  253MOL    H3535819   3.942   6.345   3.068  4.0845  1.8276  1.1985
  253MOL    H3635820   3.735   6.342   3.093  0.4517 -0.2158 -1.1977
  253MOL    C3735821   3.952   6.551   2.991 -0.0167 -0.9042 -0.0307
  253MOL    C3835822   4.021   6.490   2.867  0.1894  0.2575 -0.0704
  253MOL    O3935823   4.017   6.584   2.761 -0.5308  0.1878 -0.2797
  253MOL    H4035824   3.874   6.617   2.953  0.4657 -0.6038 -0.5057
  253MOL    H4135825   4.016   6.622   3.044  0.7929 -1.0304 -0.8243
  253MOL    H4235826   3.955   6.417   2.820  0.6398  1.2654 -2.3451
  253MOL    H4335827   3.928   6.579   2.730 -0.6946  0.0220  0.2139
  253MOL    C4435828   4.160   6.430   2.891  0.4147  0.4661 -0.7623
  253MOL    C4535829   4.244   6.394   2.769 -0.3585 -0.6912  0.6119
  253MOL    O4635830   4.383   6.354   2.803  0.4839 -0.6657  0.3940
  253MOL    H4735831   4.222   6.496   2.953  2.2133 -1.6964 -0.1698
  253MOL    H4835832   4.159   6.343   2.956 -1.1382 -0.1542 -1.6069
  253MOL    H4935833   4.259   6.485   2.710 -1.4776 -1.9896 -1.7371
  253MOL    H5035834   4.441   6.419   2.839  2.0971 -1.5291 -0.5816
  253MOL    C5135835   4.180   6.283   2.676 -0.1663 -0.1483 -0.5026
  253MOL    C5235836   4.246   6.260   2.539 -0.4287 -0.1259  0.2152
  253MOL    O5335837   4.220   6.123   2.504  0.5970 -0.2775  0.4169
  253MOL    H5435838   4.174   6.193   2.737 -1.2391 -0.0128 -0.4042
  253MOL    H5535839   4.078   6.315   2.657  0.4266  1.4060 -1.1887
  253MOL    H5635840   4.354   6.262   2.548 -0.3581  4.0734 -0.4718
  253MOL    H5735841   4.253   6.107   2.418 -2.4057 -3.6504 -0.2169
  253MOL    C5835842   4.190   6.353   2.423 -0.0546 -0.4455 -0.0574
  253MOL    C5935843   4.214   6.505   2.438  0.1389 -0.8549  0.1122
  253MOL    O6035844   4.351   6.533   2.434 -0.2192 -0.4706 -0.2260
  253MOL    H6135845   4.229   6.314   2.329 -0.8315 -0.0758 -0.5379
  253MOL    H6235846   4.084   6.330   2.415 -0.4253  1.1933  0.0056
  253MOL    H6335847   4.168   6.528   2.534  0.8957 -0.2364  0.3361
  253MOL    H6435848   4.377   6.550   2.345  0.7976  0.5478  0.2424
  253MOL    C6535849   4.135   6.591   2.336  0.0412  0.5285 -0.2074
  253MOL    C6635850   4.164   6.742   2.327 -0.6241  0.1459  0.5546
  253MOL    O6735851   4.277   6.775   2.256  0.0327 -0.4839  0.9206
  253MOL    H6835852   4.148   6.543   2.239 -1.5329 -0.5644  0.1024
  253MOL    H6935853   4.028   6.576   2.351 -0.0052 -0.0141 -1.0329
  253MOL    H7035854   4.187   6.768   2.430  1.7403  0.4086 -0.0141
  253MOL    H7135855   4.331   6.842   2.296  0.5644 -0.5024  0.2380
  253MOL    C7235856   4.058   6.847   2.275 -0.1094  0.5898  0.4234
  253MOL    C7335857   3.918   6.831   2.334  1.3518  0.0057  1.1229
  253MOL    O7435858   3.919   6.864   2.467  0.6874  0.2183 -0.3628
  253MOL    H7535859   4.103   6.944   2.296  1.2090 -0.0418  0.5890
  253MOL    H7635860   4.044   6.828   2.169 -1.2093 -0.6419  0.7808
  253MOL    H7735861   3.887   6.727   2.332 -0.1772  0.4467  1.6487
  253MOL    H7835862   3.952   6.952   2.477  0.1296  0.5117 -1.0340
  253MOL    C7935863   3.814   6.936   2.279 -0.3960 -0.6308  0.6000
  253MOL    C8035864   3.765   6.899   2.137  0.0234  0.1433  0.0310
  253MOL    O8135865   3.688   6.777   2.156 -0.9070  0.4170  0.2487
  253MOL    H8235866   3.732   6.939   2.351 -1.4061  2.7494 -0.5924
  253MOL    H8335867   3.863   7.033   2.274 -1.7214  0.0007 -0.5813
  253MOL    H8435868   3.860   6.888   2.085  0.7723 -1.1307  1.6294
  253MOL    H8535869   3.707   6.711   2.090 -0.6377 -1.1175  1.8144
  253MOL    C8635870   3.691   7.014   2.061  0.1034  0.3761  0.1607
  253MOL    C8735871   3.782   7.143   2.027  0.3151  0.5225  0.0083
  253MOL    O8835872   3.859   7.120   1.906  0.9018 -0.3392  0.3434
  253MOL    H8935873   3.654   6.977   1.966  1.3079 -2.8103  0.8829
  253MOL    H9035874   3.607   7.045   2.123  2.2763  1.2983  2.7393
  253MOL    H9135875   3.848   7.163   2.112 -0.5677  1.2382  0.5355
  253MOL    H9235876   3.916   7.045   1.914 -2.2247 -2.6667  1.5603
  253MOL    C9335877   3.701   7.266   1.985 -0.3077  0.2000 -0.0950
  253MOL    C9435878   3.601   7.313   2.088 -0.7897  0.1924 -0.2101
  253MOL    O9535879   3.672   7.331   2.210 -0.8731 -0.1496 -0.1230
  253MOL    H9635880   3.760   7.355   1.963  0.8702 -0.3182  0.9101
  253MOL    H9735881   3.644   7.240   1.896  2.3260  1.1057 -2.0835
  253MOL    H9835882   3.525   7.239   2.112 -3.8414  2.8106 -1.3519
  253MOL    H9935883   3.628   7.274   2.271  0.2511  0.2422  1.0742
  253MOL   C10035884   3.536   7.446   2.054  0.5757  0.0526  0.4247
  253MOL   C10135885   3.457   7.453   1.921  0.0952 -0.4866 -0.3755
  253MOL   O10235886   3.356   7.356   1.921  0.0022 -0.1543 -0.5816
  253MOL   H10335887   3.475   7.487   2.135  0.4755  4.4306 -1.7225
  253MOL   H10435888   3.617   7.518   2.066  0.9629 -0.0885 -1.1775
  253MOL   H10535889   3.519   7.430   1.834  1.2464 -0.5550  0.4521
  253MOL   H10635890   3.378   7.296   1.851 -2.5209  0.3068 -1.8165
  253MOL   C10735891   3.385   0.071   1.901 -0.4662  0.2221  0.6833
  253MOL   C10835892   3.461   0.202   1.876 -0.1172  0.9158 -0.0515
  253MOL   O10935893   3.526   0.192   1.748  0.8346 -0.5370  0.0917
  253MOL   H11035894   3.312   0.063   1.821  0.5463 -1.8557 -0.0831
  253MOL   H11135895   3.328   0.096   1.991 -0.2152  2.8763  0.1253
  253MOL   H11235896   3.538   0.222   1.950  0.9029 -0.1691 -0.7880
  253MOL   H11335897   3.510   0.271   1.698 -0.4803 -1.1360 -0.4550
  253MOL   C11435898   3.368   0.328   1.877 -0.7258  0.9475 -0.4046
  253MOL   C11535899   3.371   0.410   2.009 -0.4246 -0.0728  0.4425
  253MOL   O11635900   3.501   0.447   2.046  0.3009  0.8033 -0.2715
  253MOL   H11735901   3.393   0.402   1.801 -1.6268  2.0873  0.3920
  253MOL   H11835902   3.266   0.310   1.844 -0.9279 -0.8146  1.1309
  253MOL   H11935903   3.344   0.343   2.091 -0.9322 -1.3625 -0.7484
  253MOL   H12035904   3.536   0.510   1.985  3.5262 -1.6746 -1.1460
  253MOL   C12135905   3.270   0.527   2.022  0.0501  0.4536 -0.1489
  253MOL   C12235906   3.249   0.623   1.906  0.1008 -0.5538  0.2008
  253MOL   O12335907   3.129   0.688   1.926  0.0304 -0.1948  0.1343
  253MOL   H12435908   3.182   0.467   2.044  0.0709  1.2151  2.2076
  253MOL   H12535909   3.287   0.585   2.113 -0.0127 -0.2506  0.3135
  253MOL   H12635910   3.226   0.567   1.815 -0.8179  1.5039 -0.8746
  253MOL   H12735911   3.112   0.744   1.851 -0.8551  0.0701  0.5350
  253MOL   C12835912   3.358   0.723   1.862  0.0450  0.2039 -0.3088
  253MOL   C12935913   3.426   0.809   1.974 -0.3733  0.2147 -0.2714
  253MOL   O13035914   3.547   0.849   1.912  0.3180 -0.5390 -0.2868
  253MOL   H13135915   3.430   0.657   1.812 -0.9625 -1.8277  0.8645
  253MOL   H13235916   3.319   0.775   1.774 -1.7094 -1.4399 -0.5360
  253MOL   H13335917   3.456   0.752   2.062 -0.7276  0.4287 -0.0142
  253MOL   H13435918   3.586   0.909   1.975  1.0805 -0.5687 -0.7304
  253MOL   C13535919   3.338   0.934   2.009 -0.2280 -0.5264 -0.2902
  253MOL   C13635920   3.403   1.030   2.110 -0.2838 -0.2399 -0.5188
  253MOL   O13735921   3.309   1.136   2.137  0.2154 -0.8184  0.4074
  253MOL   H13835922   3.331   0.984   1.912 -0.2311 -2.6413 -1.4128
  253MOL   H13935923   3.237   0.915   2.046  0.2613 -0.3150  1.1674
  253MOL   H14035924   3.498   1.067   2.072  0.6394 -0.6570  1.3459
  253MOL   H14135925   3.333   1.166   2.223 -1.8324 -0.6917  0.9640
  253MOL   H14235926   3.420   0.974   2.202  1.1173  0.0420 -0.5875
  254MOL     C135927   5.451   1.042   5.606 -0.1017  0.0634  0.6501
  254MOL     C235928   5.570   0.946   5.610 -0.3038 -0.0164 -0.4168
  254MOL     O335929   5.562   0.863   5.495 -0.0669 -0.1528 -0.7520
  254MOL     H435930   5.456   1.109   5.520  1.4195 -2.4601 -1.2772
  254MOL     H535931   5.441   1.109   5.692  0.6742 -1.2563  1.7771
  254MOL     H635932   5.568   0.882   5.699  2.8694  0.2899 -0.0769
  254MOL     H735933   5.521   0.781   5.514  0.9345 -0.6247 -0.5919
  254MOL     H835934   5.358   0.986   5.604 -0.1310  0.1501 -0.7920
  254MOL     C935935   5.698   1.025   5.610 -0.1378  0.2279  0.1637
  254MOL    C1035936   5.730   1.104   5.735 -0.3842  0.0093  0.4425
  254MOL    O1135937   5.823   1.033   5.806 -0.0937 -0.8313 -0.3061
  254MOL    H1235938   5.784   0.968   5.574 -1.4245 -1.2707 -0.6360
  254MOL    H1335939   5.685   1.106   5.538  1.7209 -0.0837 -0.5513
  254MOL    H1435940   5.642   1.121   5.796  0.2329  1.1836  1.0195
  254MOL    H1535941   5.828   1.065   5.895 -0.2560  1.7639 -1.1972
  254MOL    C1635942   5.794   1.242   5.701  0.3063  0.8240  0.3911
  254MOL    C1735943   5.688   1.348   5.656  0.1091 -0.0571  0.0757
  254MOL    O1835944   5.629   1.394   5.776 -0.4879  0.1598  0.4328
  254MOL    H1935945   5.848   1.278   5.788  1.4762 -2.3308  1.0109
  254MOL    H2035946   5.869   1.236   5.622  0.0225 -2.4058  0.3274
  254MOL    H2135947   5.606   1.303   5.599 -0.6738  1.7062 -0.2142
  254MOL    H2235948   5.696   1.420   5.837  0.7631 -1.8160 -0.0495
  254MOL    C2335949   5.741   1.470   5.573  0.6624  0.3455  0.3148
  254MOL    C2435950   5.764   1.445   5.424 -0.4675  0.1343  0.0722
  254MOL    O2535951   5.638   1.427   5.369  0.4778  0.3064  0.6876
  254MOL    H2635952   5.664   1.547   5.585  0.7537  0.6611 -1.0703
  254MOL    H2735953   5.827   1.514   5.622  1.0372  0.6296 -0.6021
  254MOL    H2835954   5.821   1.353   5.415 -0.5447 -0.0189  1.1116
  254MOL    H2935955   5.575   1.498   5.379  0.9738  0.8438  0.0060
  254MOL    C3035956   5.840   1.560   5.350 -0.2499  0.4612 -0.5336
  254MOL    C3135957   5.998   1.555   5.356 -0.3035 -0.1742 -0.3745
  254MOL    O3235958   6.047   1.453   5.264  0.3874  0.3106 -0.3016
  254MOL    H3335959   5.815   1.556   5.244  0.1126 -2.0398 -0.5603
  254MOL    H3435960   5.794   1.650   5.391 -1.5918 -0.2363 -0.4992
  254MOL    H3535961   6.034   1.544   5.458 -1.0825 -0.6288 -0.1415
  254MOL    H3635962   6.052   1.372   5.313  1.9307  0.3615 -0.3524
  254MOL    C3735963   6.059   1.691   5.309  0.0745  0.1216 -0.4472
  254MOL    C3835964   5.996   1.828   5.356  0.2591  0.3758 -0.4474
  254MOL    O3935965   5.942   1.826   5.485  0.0483  0.2047 -0.1476
  254MOL    H4035966   6.164   1.704   5.336  0.3605  0.2196 -1.5577
  254MOL    H4135967   6.063   1.697   5.200 -1.0150  2.1288 -0.3941
  254MOL    H4235968   5.910   1.853   5.295 -0.5194  1.1534  0.9326
  254MOL    H4335969   6.009   1.832   5.552 -0.6790  1.9768  0.4676
  254MOL    C4435970   6.083   1.945   5.336 -0.0455 -0.1840  0.3133
  254MOL    C4535971   6.019   2.081   5.351  0.4278 -0.0139  0.2258
  254MOL    O4635972   6.130   2.163   5.347 -0.8936  0.1025  0.6939
  254MOL    H4735973   6.169   1.945   5.403  0.6497 -1.5970 -0.5569
  254MOL    H4835974   6.116   1.938   5.232 -1.3875 -2.3623  0.0253
  254MOL    H4935975   5.985   2.098   5.453  0.8738 -1.0613  0.5635
  254MOL    H5035976   6.102   2.249   5.321  0.7479  0.2361 -0.7262
  254MOL    C5135977   5.909   2.124   5.244  0.1563  0.3622 -0.8208
  254MOL    C5235978   5.929   2.085   5.095 -0.2076 -0.0168 -0.2392
  254MOL    O5335979   5.824   2.136   5.023 -0.3445  0.6152  0.4710
  254MOL    H5435980   5.809   2.086   5.265 -0.5423  0.2929 -4.0561
  254MOL    H5535981   5.897   2.233   5.243  0.8590  0.4430 -1.1827
  254MOL    H5635982   5.925   1.978   5.077 -2.3620  0.1747 -1.0499
  254MOL    H5735983   5.869   2.157   4.942  1.3091 -2.5909  0.4892
  254MOL    C5835984   6.057   2.146   5.032 -0.4574  0.9734  0.4548
  254MOL    C5935985   6.076   2.110   4.880 -0.1170  0.1832  0.4619
  254MOL    O6035986   5.990   2.190   4.798  0.2792  0.0628 -0.0492
  254MOL    H6135987   6.055   2.254   5.042  0.9888  1.1200 -0.7601
  254MOL    H6235988   6.149   2.131   5.090 -0.1520  0.4200 -0.1656
  254MOL    H6335989   6.044   2.007   4.865 -0.5885  0.5819 -1.3708
  254MOL    H6435990   5.986   2.144   4.715 -2.1283  1.3910 -0.7098
  254MOL    C6535991   6.225   2.115   4.833 -0.2984 -0.2500 -0.1981
  254MOL    C6635992   6.317   2.005   4.884 -0.3337  0.0367  0.4664
  254MOL    O6735993   6.320   1.891   4.797 -0.1204 -0.3809  0.0266
  254MOL    H6835994   6.222   2.114   4.724  0.9076 -2.0095 -0.2416
  254MOL    H6935995   6.271   2.207   4.870  0.5240 -2.1165  3.7251
  254MOL    H7035996   6.295   1.979   4.987  0.9077  1.1053  1.0082
  254MOL    H7135997   6.259   1.834   4.842  2.3888 -1.5490  2.0848
  254MOL    C7235998   6.468   2.052   4.891 -0.2815  0.3653 -0.6047
  254MOL    C7335999   6.487   2.147   5.017  0.2274 -0.3478 -0.2505
  254MOL    O7436000   6.456   2.076   5.132  0.0961 -0.6469  0.0961
  254MOL    H7536001   6.538   1.970   4.901  0.1191  0.7983  0.1744
  254MOL    H7636002   6.501   2.097   4.798 -0.4180  0.8834 -0.4066
  254MOL    H7736003   6.414   2.228   5.014 -1.0168 -1.4365  0.1224
  254MOL    H7836004   6.451   2.123   5.214 -1.3518 -2.1424  0.8911
  254MOL    C7936005   6.629   2.204   5.037 -0.8129 -0.2305 -0.5022
  254MOL    C8036006   6.651   2.309   5.144 -0.6246  0.6154  0.1798
  254MOL    O8136007   6.790   2.325   5.156  0.1774 -0.5539 -0.1030
  254MOL    H8236008   6.705   2.127   5.045 -0.5291  0.1443  0.4663
  254MOL    H8336009   6.655   2.261   4.947 -1.2383 -1.0233 -1.1405
  254MOL    H8436010   6.620   2.268   5.240 -1.6317  0.6881 -0.1121
  254MOL    H8536011   6.793   2.401   5.212 -0.9449  1.3955 -2.6120
  254MOL    C8636012   6.583   2.443   5.120 -0.1139 -0.2255 -0.4714
  254MOL    C8736013   6.585   2.539   5.236 -0.1229  0.1371  0.1079
  254MOL    O8836014   6.711   2.568   5.278 -0.3021 -0.4585 -0.0891
  254MOL    H8936015   6.628   2.498   5.037 -0.6716 -1.1997 -1.4444
  254MOL    H9036016   6.481   2.428   5.085 -0.4863  0.7393  0.2052
  254MOL    H9136017   6.539   2.496   5.325  0.7920 -0.2233  0.4160
  254MOL    H9236018   6.710   2.647   5.331  0.0344 -0.9175  0.6170
  254MOL    C9336019   6.507   2.662   5.206  0.0484  0.2248 -0.1792
  254MOL    C9436020   6.360   2.672   5.261  0.3429  0.6622  0.4983
  254MOL    O9536021   6.308   2.801   5.236  0.4805  0.2208 -0.0424
  254MOL    H9636022   6.557   2.747   5.252  0.0167 -0.1681  0.5882
  254MOL    H9736023   6.517   2.703   5.105  0.3431  0.0687 -0.2132
  254MOL    H9836024   6.359   2.661   5.370  2.6787  1.6110  0.6373
  254MOL    H9936025   6.364   2.874   5.260  1.0123 -0.5731  1.1707
  254MOL   C10036026   6.263   2.562   5.216 -0.2029 -0.0296  0.0786
  254MOL   C10136027   6.122   2.565   5.269 -0.0843 -0.6877 -0.1650
  254MOL   O10236028   6.047   2.472   5.184 -0.1431 -0.4593 -0.3865
  254MOL   H10336029   6.266   2.568   5.107 -0.7856 -1.3705 -0.0145
  254MOL   H10436030   6.301   2.462   5.235  0.3932  0.2045  0.1088
  254MOL   H10536031   6.075   2.662   5.251 -1.3977 -1.4694 -1.0128
  254MOL   H10636032   6.019   2.525   5.111 -1.0037 -1.6345 -0.9287
  254MOL   C10736033   6.110   2.515   5.413 -0.1751  0.2592  0.7801
  254MOL   C10836034   5.964   2.504   5.455 -0.1688 -0.1026 -0.2203
  254MOL   O10936035   5.967   2.446   5.589 -0.0790  0.3226  0.0533
  254MOL   H11036036   6.158   2.418   5.424 -2.4625 -0.9789  0.0889
  254MOL   H11136037   6.154   2.582   5.487 -2.0362  0.7820  1.4273
  254MOL   H11236038   5.914   2.423   5.402  0.7510 -0.6749 -0.2337
  254MOL   H11336039   5.994   2.502   5.660 -2.4212 -0.6096  1.7433
  254MOL   C11436040   5.872   2.633   5.453  0.5612 -0.3988 -0.3109
  254MOL   C11536041   5.725   2.598   5.426 -0.2030 -0.1763  0.7516
  254MOL   O11636042   5.649   2.699   5.484  0.2058 -0.2416 -0.0954
  254MOL   H11736043   5.889   2.691   5.544  1.3492 -0.8353 -0.1757
  254MOL   H11836044   5.904   2.697   5.371 -1.4003 -0.6135 -1.2770
  254MOL   H11936045   5.694   2.514   5.487 -0.5362 -0.3223  0.3914
  254MOL   H12036046   5.565   2.696   5.440  0.6157  0.0542 -0.9004
  254MOL   C12136047   5.697   2.580   5.276  0.0809 -0.1113  0.3243
  254MOL   C12236048   5.568   2.492   5.254  0.2892  0.4248 -0.6667
  254MOL   O12336049   5.466   2.524   5.344  0.0374 -0.0870 -0.3157
  254MOL   H12436050   5.696   2.680   5.233  2.6188 -0.5639 -0.8494
  254MOL   H12536051   5.777   2.530   5.222 -1.1455 -0.0185 -1.6419
  254MOL   H12636052   5.596   2.387   5.262  1.5307  0.6363 -2.0812
  254MOL   H12736053   5.460   2.454   5.408 -1.4149 -0.9853 -1.4090
  254MOL   C12836054   5.506   2.501   5.110  0.4096  0.1708 -0.1988
  254MOL   C12936055   5.599   2.419   5.008 -0.1550 -0.0589  0.6123
  254MOL   O13036056   5.586   2.275   5.039  0.4008 -0.4619  0.0796
  254MOL   H13136057   5.405   2.462   5.101 -0.1297  1.5902 -0.3841
  254MOL   H13236058   5.495   2.605   5.078  0.5879  0.5526  0.9671
  254MOL   H13336059   5.701   2.457   5.013 -0.4552  0.5449  2.6281
  254MOL   H13436060   5.674   2.242   5.029  0.9330  1.0883 -0.5615
  254MOL   C13536061   5.541   2.443   4.868 -0.4579  0.6281  0.6159
  254MOL   C13636062   5.590   2.576   4.801 -0.8614 -0.0197 -0.6081
  254MOL   O13736063   5.566   2.576   4.662 -0.5834  0.0034 -0.0361
  254MOL   H13836064   5.578   2.356   4.815  1.5537  1.4992  0.5528
  254MOL   H13936065   5.432   2.437   4.868 -0.4485  0.1740 -1.4377
  254MOL   H14036066   5.693   2.590   4.834 -0.5923 -0.5138 -1.2447
  254MOL   H14136067   5.631   2.529   4.611 -1.0021 -2.6530  1.8232
  254MOL   H14236068   5.525   2.652   4.845 -0.4841  0.0142 -0.1032
  255MOL     C136069   4.813   4.259   3.800  0.9739  0.1164 -0.2477
  255MOL     C236070   4.881   4.132   3.847  0.9640 -0.4407 -0.1221
  255MOL     O336071   5.018   4.164   3.865  0.1027 -0.3194 -0.0004
  255MOL     H436072   4.826   4.336   3.877  0.1803 -1.0805  1.1048
  255MOL     H536073   4.712   4.249   3.763  0.7647  3.4220 -0.7247
  255MOL     H636074   4.862   4.059   3.769 -0.9075 -1.3372  1.1294
  255MOL     H736075   5.055   4.171   3.778 -0.5490  1.2536 -0.1701
  255MOL     H836076   4.870   4.288   3.712  0.5072  0.7852 -0.3305
  255MOL     C936077   4.835   4.089   3.990 -0.4410 -0.7588 -0.0494
  255MOL    C1036078   4.898   3.954   4.042 -0.3105 -0.0356  0.0373
  255MOL    O1136079   4.902   3.957   4.186  0.4531  0.2990  0.0265
  255MOL    H1236080   4.866   4.170   4.056 -0.1093  0.3757 -1.5763
  255MOL    H1336081   4.727   4.085   4.006 -0.1268 -1.5576  1.9966
  255MOL    H1436082   5.001   3.947   4.009 -0.6129 -1.5071 -0.6301
  255MOL    H1536083   4.949   3.880   4.213 -0.1857  0.3872  1.4094
  255MOL    C1636084   4.825   3.828   3.995 -0.4881  1.0142  0.5153
  255MOL    C1736085   4.877   3.772   3.862  0.4949  0.6097  0.1608
  255MOL    O1836086   5.012   3.747   3.866 -0.1135 -0.6255  0.3509
  255MOL    H1936087   4.839   3.756   4.076  0.2362 -1.5156 -1.8143
  255MOL    H2036088   4.717   3.841   4.002 -0.5477  0.0769  1.4386
  255MOL    H2136089   4.844   3.831   3.777 -3.4343 -1.5925  0.0148
  255MOL    H2236090   5.063   3.827   3.862  0.7789 -1.1848  0.3717
  255MOL    C2336091   4.811   3.632   3.820 -0.3676  0.0186 -0.1886
  255MOL    C2436092   4.858   3.563   3.689  0.1834  0.0249  0.3269
  255MOL    O2536093   4.786   3.442   3.697  0.4131 -0.2489  0.1568
  255MOL    H2636094   4.840   3.554   3.890  0.2379  0.6580  0.2795
  255MOL    H2736095   4.703   3.649   3.813 -0.2789 -0.0310 -2.1019
  255MOL    H2836096   4.966   3.555   3.688  0.0909 -1.4572 -1.2060
  255MOL    H2936097   4.723   3.442   3.627  0.8549  1.3833 -0.2517
  255MOL    C3036098   4.833   3.638   3.557  0.0539  0.9104 -0.4057
  255MOL    C3136099   4.882   3.572   3.434 -0.0036  0.1563 -0.1780
  255MOL    O3236100   4.841   3.644   3.321 -0.0808  0.0454 -0.6120
  255MOL    H3336101   4.727   3.651   3.537  0.1340  0.9153 -0.8337
  255MOL    H3436102   4.868   3.741   3.564 -2.8327  1.9509 -0.7516
  255MOL    H3536103   4.835   3.475   3.422 -1.6167  0.7244  1.3161
  255MOL    H3636104   4.857   3.583   3.250  0.0934 -0.1374 -0.4163
  255MOL    C3736105   5.034   3.555   3.426  0.6711  0.5546  0.1153
  255MOL    C3836106   5.087   3.411   3.445  0.4166 -0.4540 -0.0239
  255MOL    O3936107   5.011   3.312   3.374  0.0865  0.4553 -0.0046
  255MOL    H4036108   5.073   3.589   3.330 -0.7503  1.1772 -0.2409
  255MOL    H4136109   5.091   3.611   3.500 -0.6751  1.3249  0.5718
  255MOL    H4236110   5.078   3.389   3.551 -0.9274 -0.3278 -0.0916
  255MOL    H4336111   5.061   3.233   3.366  0.3996  0.4128  2.0654
  255MOL    C4436112   5.230   3.388   3.403  0.3430  0.1443  0.4913
  255MOL    C4536113   5.288   3.254   3.452  0.1434  0.8547  0.4590
  255MOL    O4636114   5.236   3.139   3.388  0.3711  0.2878  0.6624
  255MOL    H4736115   5.238   3.391   3.294 -2.7857  1.9124  0.2552
  255MOL    H4836116   5.285   3.475   3.437  2.6575 -1.2028  0.2695
  255MOL    H4936117   5.251   3.248   3.554 -0.0671  1.7369  0.4358
  255MOL    H5036118   5.265   3.071   3.446  0.7589 -0.6397 -0.5826
  255MOL    C5136119   5.443   3.243   3.443  0.2373  0.0748  0.0227
  255MOL    C5236120   5.520   3.320   3.555  0.7655  0.3046 -0.3510
  255MOL    O5336121   5.469   3.294   3.683  0.0349  0.3275 -0.7349
  255MOL    H5436122   5.469   3.138   3.458  0.7891  0.5247  2.4060
  255MOL    H5536123   5.467   3.275   3.342 -1.6908  1.0693 -0.1460
  255MOL    H5636124   5.489   3.423   3.539  0.4599  0.1817 -0.5484
  255MOL    H5736125   5.443   3.374   3.725  3.0532  0.3726  1.1613
  255MOL    C5836126   5.677   3.313   3.548 -0.3350 -0.1685  0.3501
  255MOL    C5936127   5.744   3.315   3.409  0.7715  0.4032  0.4645
  255MOL    O6036128   5.708   3.440   3.347 -0.5538  0.1610 -0.4544
  255MOL    H6136129   5.712   3.400   3.604 -0.4489 -0.2699  0.5843
  255MOL    H6236130   5.714   3.228   3.606 -1.5959  1.6623  4.0636
  255MOL    H6336131   5.709   3.236   3.342  1.4570 -0.3579  1.0075
  255MOL    H6436132   5.750   3.446   3.262  2.1847  0.4048  0.8547
  255MOL    C6536133   5.897   3.314   3.424  0.4267  0.0676  0.5240
  255MOL    C6636134   5.951   3.171   3.470 -0.2207  0.4319 -0.6152
  255MOL    O6736135   5.965   3.081   3.360  0.4468 -0.4941 -0.2761
  255MOL    H6836136   5.937   3.332   3.324 -0.3762  1.4614  0.4491
  255MOL    H6936137   5.932   3.398   3.484  1.7105 -0.6752  0.8480
  255MOL    H7036138   5.887   3.117   3.541 -0.4597  0.6541 -0.6638
  255MOL    H7136139   5.947   2.997   3.400 -0.9821  0.8210  1.9627
  255MOL    C7236140   6.090   3.177   3.540 -0.0615 -0.1829 -0.9840
  255MOL    C7336141   6.087   3.251   3.681  0.0158 -0.0745  0.0843
  255MOL    O7436142   5.998   3.177   3.768 -0.1606  0.5401  0.1708
  255MOL    H7536143   6.131   3.077   3.548  1.4561  0.5906  1.0786
  255MOL    H7636144   6.148   3.230   3.464  0.1305  2.4077  0.9171
  255MOL    H7736145   6.051   3.352   3.659  0.7138  1.1331  4.0909
  255MOL    H7836146   5.996   3.225   3.849  1.1676  3.1838 -1.2725
  255MOL    C7936147   6.225   3.252   3.738 -0.7156 -0.4745 -0.1224
  255MOL    C8036148   6.329   3.347   3.679  0.1856 -0.2936  0.1629
  255MOL    O8136149   6.276   3.478   3.653 -0.1086  1.0306  0.0261
  255MOL    H8236150   6.227   3.264   3.846  3.3185  1.5436 -0.3295
  255MOL    H8336151   6.261   3.149   3.736  2.4068  0.5093  1.6465
  255MOL    H8436152   6.357   3.302   3.583 -2.0801 -0.7979 -0.2803
  255MOL    H8536153   6.314   3.512   3.573  0.9861 -1.3897 -0.5091
  255MOL    C8636154   6.451   3.366   3.779  0.2832  0.2979  0.0312
  255MOL    C8736155   6.518   3.238   3.845 -0.1106 -0.2937  0.3946
  255MOL    O8836156   6.576   3.147   3.748 -0.6283  0.2233  0.2456
  255MOL    H8936157   6.525   3.429   3.729  1.7252 -0.9847  0.4843
  255MOL    H9036158   6.410   3.428   3.859 -1.6445  0.8234 -1.3200
  255MOL    H9136159   6.433   3.185   3.889 -0.8308 -0.9740 -1.7472
  255MOL    H9236160   6.510   3.123   3.685  0.8230 -2.9725 -0.1277
  255MOL    C9336161   6.616   3.255   3.965  0.4226 -0.2016 -0.7036
  255MOL    C9436162   6.579   3.347   4.072  0.6511  0.2044 -0.7451
  255MOL    O9536163   6.443   3.350   4.109 -0.1343 -0.9268  0.0862
  255MOL    H9636164   6.657   3.164   4.009  0.5683  1.3498  2.5455
  255MOL    H9736165   6.702   3.303   3.917  1.5997 -1.1462  0.4299
  255MOL    H9836166   6.591   3.448   4.033 -1.0827  0.3497 -0.9267
  255MOL    H9936167   6.430   3.397   4.189 -1.0193  0.1460 -0.6721
  255MOL   C10036168   6.666   3.336   4.199 -0.2087 -0.3959 -0.3909
  255MOL   C10136169   6.670   3.477   4.275  0.1322 -0.4164 -0.0614
  255MOL   O10236170   6.556   3.506   4.343  0.6312  0.7415  0.0724
  255MOL   H10336171   6.641   3.253   4.264  1.7570 -1.2284 -0.6556
  255MOL   H10436172   6.768   3.315   4.168 -0.3305 -0.9541 -0.4268
  255MOL   H10536173   6.703   3.558   4.210  0.5535 -2.3099 -2.2411
  255MOL   H10636174   6.574   3.595   4.367  1.5324  0.4572  0.4909
  255MOL   C10736175   6.776   3.451   4.389 -0.1044 -0.1058 -0.5839
  255MOL   C10836176   6.928   3.463   4.356 -0.4252 -0.4589  0.4665
  255MOL   O10936177   6.951   3.580   4.277  0.1551 -0.1520 -0.6551
  255MOL   H11036178   6.761   3.511   4.478 -1.9363 -0.4097 -0.6733
  255MOL   H11136179   6.763   3.351   4.429 -0.0240  0.3891  0.6842
  255MOL   H11236180   6.948   3.378   4.290 -0.4137  0.3335 -0.5713
  255MOL   H11336181   6.921   3.664   4.308 -0.7460 -1.5309  2.3689
  255MOL   C11436182   7.029   3.462   4.473  0.0167  0.7002 -1.3516
  255MOL   C11536183   7.171   3.428   4.427 -0.0600 -0.4872  0.3929
  255MOL   O11636184   7.261   3.446   4.540 -0.4553 -0.3684  0.3540
  255MOL   H11736185   7.041   3.557   4.525 -0.8984  1.0962 -1.8506
  255MOL   H11836186   6.985   3.395   4.547  0.9748 -1.7809 -2.9637
  255MOL   H11936187   7.193   3.496   4.345 -0.0877 -1.2954 -0.2968
  255MOL   H12036188   7.225   3.416   4.622  0.8526  0.9128  1.4172
  255MOL   C12136189   7.194   3.293   4.358 -0.1001 -0.1236 -0.5465
  255MOL   C12236190   7.166   3.161   4.428 -0.2344  0.4302 -0.3525
  255MOL   O12336191   7.038   3.156   4.484  0.1813  0.3387  0.0253
  255MOL   H12436192   7.139   3.294   4.264 -1.6469 -1.6287  0.3040
  255MOL   H12536193   7.300   3.294   4.331 -0.4066  1.1737 -1.6954
  255MOL   H12636194   7.224   3.166   4.520  0.1643 -1.3540 -0.4801
  255MOL   H12736195   7.043   3.089   4.550  2.3368  0.1735 -0.2612
  255MOL   C12836196   7.173   3.041   4.343 -0.4707 -0.7228  0.2285
  255MOL   C12936197   7.314   3.008   4.294 -0.6329  0.1991 -0.1441
  255MOL   O13036198   7.402   2.982   4.399 -0.4345  0.0611 -0.7203
  255MOL   H13136199   7.140   2.958   4.406  2.9449 -1.7599  0.7695
  255MOL   H13236200   7.100   3.033   4.263 -0.6060 -4.2591  0.6021
  255MOL   H13336201   7.358   3.085   4.230  0.9570 -1.9139 -1.6618
  255MOL   H13436202   7.487   2.953   4.369  0.7263 -0.2036  2.6006
  255MOL   C13536203   7.319   2.882   4.200  0.4003  0.3906  0.7094
  255MOL   C13636204   7.256   2.908   4.060 -0.5417  0.4545 -0.2038
  255MOL   O13736205   7.310   2.810   3.969 -0.5824  0.0648 -0.3973
  255MOL   H13836206   7.421   2.845   4.188 -1.2634 -4.1586 -0.2962
  255MOL   H13936207   7.271   2.797   4.249 -0.4316 -0.1012 -0.9651
  255MOL   H14036208   7.252   3.007   4.014 -0.3222  0.4419 -0.2529
  255MOL   H14136209   7.371   2.852   3.910  1.0694 -1.0771  0.4651
  255MOL   H14236210   7.153   2.878   4.080 -0.1847  1.5341  3.5796
  256MOL     C136211   0.169   1.615   5.956  0.1007  0.2271  0.3182
  256MOL     C236212   0.132   1.497   5.864 -0.2667  0.8846 -0.1671
  256MOL     O336213   0.009   1.518   5.792  0.2772 -0.4828 -0.0176
  256MOL     H436214   0.262   1.609   6.013  0.6913 -0.1632 -0.6775
  256MOL     H536215   0.088   1.631   6.027  0.6068 -0.2865  1.0245
  256MOL     H636216   0.125   1.408   5.926  1.8409  0.5517 -0.3671
  256MOL     H736217   7.458   1.499   5.853 -0.4638  0.1430 -0.6582
  256MOL     H836218   0.170   1.705   5.895 -1.8517 -1.8983 -3.0293
  256MOL     C936219   0.238   1.481   5.754 -0.4760  0.3879 -0.6334
  256MOL    C1036220   0.210   1.372   5.646  0.0002  0.1628  0.5156
  256MOL    O1136221   0.102   1.416   5.563  0.0639  0.1486 -0.3739
  256MOL    H1236222   0.245   1.575   5.700  0.6361  1.5679  1.5360
  256MOL    H1336223   0.336   1.455   5.794  0.4712  0.2663 -2.9698
  256MOL    H1436224   0.174   1.288   5.706  0.0825 -0.3052 -0.0840
  256MOL    H1536225   0.056   1.480   5.617  1.1528 -0.0189  0.7676
  256MOL    C1636226   0.329   1.334   5.556  0.2756  0.0561  0.4594
  256MOL    C1736227   0.332   1.196   5.498  0.4010  0.3219 -0.3246
  256MOL    O1836228   0.225   1.185   5.404  0.1501  0.7420 -0.5403
  256MOL    H1936229   0.345   1.415   5.485  3.3617 -1.3521 -0.4998
  256MOL    H2036230   0.419   1.342   5.616 -0.0277 -0.1290  0.9476
  256MOL    H2136231   0.318   1.130   5.583  0.9049 -0.1330 -0.5923
  256MOL    H2236232   0.150   1.198   5.461  0.2136  0.1318 -0.3223
  256MOL    C2336233   0.470   1.160   5.435 -0.4371  0.1105 -0.3145
  256MOL    C2436234   0.588   1.131   5.531  0.3250 -0.7994 -0.0957
  256MOL    O2536235   0.568   1.012   5.609 -0.6821  0.1816  0.2385
  256MOL    H2636236   0.461   1.080   5.362 -1.5125  1.2569 -1.4578
  256MOL    H2736237   0.497   1.241   5.368 -1.3690  0.8324  0.1673
  256MOL    H2836238   0.602   1.211   5.603  0.1624  0.4768 -1.4496
  256MOL    H2936239   0.554   0.945   5.544  0.7326  1.4917 -1.4448
  256MOL    C3036240   0.722   1.116   5.459  0.2381  0.3154 -0.0363
  256MOL    C3136241   0.839   1.036   5.526 -0.5775  0.0028  0.1450
  256MOL    O3236242   0.944   1.037   5.430  0.1008 -0.2596 -0.0112
  256MOL    H3336243   0.708   1.064   5.365 -1.3698  3.6192 -1.6937
  256MOL    H3436244   0.772   1.211   5.439  1.3586 -1.0075 -3.9054
  256MOL    H3536245   0.814   0.931   5.544 -0.1337 -0.2973 -0.9279
  256MOL    H3636246   1.004   0.970   5.458  1.2007 -0.0356 -1.6956
  256MOL    C3736247   0.896   1.103   5.653 -0.0060  0.1198 -0.5220
  256MOL    C3836248   0.955   0.994   5.743 -0.0077 -0.8633 -0.1106
  256MOL    O3936249   1.066   0.938   5.667  0.6167  0.4287 -0.1118
  256MOL    H4036250   0.958   1.187   5.621  2.8803 -2.6240 -2.3791
  256MOL    H4136251   0.812   1.145   5.708  0.7806  0.6205  0.3097
  256MOL    H4236252   0.885   0.915   5.767 -1.0902  0.2327  0.3832
  256MOL    H4336253   1.127   1.006   5.643  0.0666  1.0128  0.1346
  256MOL    C4436254   1.000   1.060   5.875  0.8020 -0.0182 -0.0956
  256MOL    C4536255   1.029   0.967   5.990  1.2596  0.1142 -0.1957
  256MOL    O4636256   1.106   1.044   6.086 -0.3657  0.0356 -0.0304
  256MOL    H4736257   1.097   1.100   5.844 -0.0632  1.4510 -0.9485
  256MOL    H4836258   0.931   1.139   5.904  0.4135 -0.4161  0.0540
  256MOL    H4936259   1.106   0.896   5.959 -1.0861 -1.6200 -2.2563
  256MOL    H5036260   1.043   1.091   6.138  0.2075 -1.5630  2.1820
  256MOL    C5136261   0.911   0.893   6.055  0.3507  0.1223 -0.7448
  256MOL    C5236262   0.944   0.813   6.179  0.2175  0.0557  0.1601
  256MOL    O5336263   0.829   0.790   6.260  0.4624 -1.2350 -0.2974
  256MOL    H5436264   0.864   0.987   6.086 -1.4035  0.1756 -3.4114
  256MOL    H5536265   0.848   0.837   5.986 -1.1160  1.4308 -0.5077
  256MOL    H5636266   1.025   0.868   6.226  0.3869  1.2196 -1.4717
  256MOL    H5736267   0.858   0.720   6.318 -0.2306 -0.4285  1.0350
  256MOL    C5836268   1.005   0.673   6.148  0.3615  0.5938  0.1631
  256MOL    C5936269   1.047   0.585   6.267 -0.3143  0.0324 -0.6060
  256MOL    O6036270   0.935   0.541   6.341 -0.4675  0.0952  0.7737
  256MOL    H6136271   0.934   0.609   6.096  1.0495 -0.0417  0.0057
  256MOL    H6236272   1.086   0.698   6.080 -1.8643 -0.3641 -2.9623
  256MOL    H6336273   1.112   0.635   6.339  0.2115 -0.4357 -0.7586
  256MOL    H6436274   0.891   0.475   6.290  0.4759 -0.4318  0.6341
  256MOL    C6536275   1.124   0.455   6.215 -0.1439 -0.5334  0.0956
  256MOL    C6636276   1.258   0.496   6.139  0.5353 -0.0917 -0.4333
  256MOL    O6736277   1.328   0.581   6.222  0.3199 -0.3139  0.2880
  256MOL    H6836278   1.151   0.400   6.305  2.0981  0.1122 -0.1508
  256MOL    H6936279   1.057   0.390   6.159 -1.0872  1.0422 -0.6552
  256MOL    H7036280   1.229   0.535   6.042  1.5940  0.4581 -0.5310
  256MOL    H7136281   1.400   0.605   6.166 -0.6481 -1.6034 -1.5628
  256MOL    C7236282   1.345   0.378   6.109  0.5582  0.5068 -0.5193
  256MOL    C7336283   1.438   0.414   5.995 -0.3084  0.2063 -0.6643
  256MOL    O7436284   1.528   0.507   6.036 -0.8924 -0.5388 -0.4785
  256MOL    H7536285   1.388   0.340   6.202 -1.4135  1.5944  0.8586
  256MOL    H7636286   1.281   0.301   6.067  1.4618  0.0644 -1.1095
  256MOL    H7736287   1.389   0.460   5.909  1.2907 -0.1341 -1.7775
  256MOL    H7836288   1.591   0.534   5.970  2.9545 -1.7922  2.4558
  256MOL    C7936289   1.521   0.301   5.932  0.2681 -0.3125  0.4667
  256MOL    C8036290   1.447   0.184   5.851 -0.1020 -0.1285 -0.1723
  256MOL    O8136291   1.356   0.233   5.761  0.6658  0.1335 -0.4273
  256MOL    H8236292   1.593   0.346   5.863 -0.9802  2.0275  0.6277
  256MOL    H8336293   1.568   0.260   6.021 -0.4117 -2.0338  0.0427
  256MOL    H8436294   1.387   0.138   5.929 -1.0348 -1.3373 -1.5672
  256MOL    H8536295   1.280   0.178   5.750 -1.9508  3.2484  1.2890
  256MOL    C8636296   1.550   0.090   5.791  0.3963 -0.6656  0.0748
  256MOL    C8736297   1.640   0.019   5.890  0.4058 -0.1311 -0.5669
  256MOL    O8836298   1.566   7.458   5.984  0.8855 -0.0506 -0.1283
  256MOL    H8936299   1.484   0.032   5.727  4.2494 -1.6575 -3.2484
  256MOL    H9036300   1.615   0.144   5.722  0.7777  0.1983  1.0933
  256MOL    H9136301   1.696   0.092   5.949  2.4646 -1.3185 -0.9802
  256MOL    H9236302   1.487   7.430   5.939  0.1830  0.7223  0.6017
  256MOL    C9336303   1.744   7.441   5.820 -0.6068 -0.9151 -0.0846
  256MOL    C9436304   1.827   7.354   5.915 -0.4870 -0.1377  0.9126
  256MOL    O9536305   1.889   7.262   5.824  0.4246 -0.0965 -0.2381
  256MOL    H9636306   1.690   7.386   5.743  1.3491 -0.3487 -1.8807
  256MOL    H9736307   1.815   7.504   5.768 -3.1679  1.1002 -1.2682
  256MOL    H9836308   1.756   7.300   5.979 -1.8072  0.8291  0.2931
  256MOL    H9936309   1.817   7.220   5.778  1.2466 -1.3562 -0.3949
  256MOL   C10036310   1.930   7.424   5.990  0.0716  0.0664  0.8325
  256MOL   C10136311   1.993   7.344   6.099  0.6119 -0.3233 -0.2622
  256MOL   O10236312   2.043   7.220   6.067  0.0171 -0.1919 -0.0250
  256MOL   H10336313   2.011   7.450   5.923  0.6009 -1.4026  0.8854
  256MOL   H10436314   1.885   7.516   6.026 -0.1579  0.6438 -0.9126
  256MOL   H10536315   1.915   7.311   6.168  1.6950 -1.0600  0.6201
  256MOL   H10636316   2.021   7.206   5.976 -0.1861 -0.4400  0.0626
  256MOL   C10736317   2.086   7.429   6.191 -0.0540 -0.0832 -0.3860
  256MOL   C10836318   2.226   7.447   6.134 -0.3486 -0.3492 -0.4541
  256MOL   O10936319   2.225   0.003   6.016  0.6767  0.8126  0.1734
  256MOL   H11036320   2.038   0.003   6.219 -1.1433 -0.9414  0.6551
  256MOL   H11136321   2.107   7.378   6.285 -1.0404  0.3676  0.0826
  256MOL   H11236322   2.259   7.346   6.110  1.7225 -0.0721  1.0916
  256MOL   H11336323   2.248   7.468   5.943  0.5604  2.1366 -0.8752
  256MOL   C11436324   2.328   7.500   6.242 -0.7777  0.1546 -0.0574
  256MOL   C11536325   2.471   0.029   6.192  0.2235  1.2291 -0.9743
  256MOL   O11636326   2.530   0.092   6.302 -0.1094 -0.2411 -0.3131
  256MOL   H11736327   2.283   0.065   6.294 -1.3293  0.8244 -1.6074
  256MOL   H11836328   2.326   7.425   6.322 -0.2155 -0.8257 -0.9505
  256MOL   H11936329   2.449   0.102   6.114 -1.4909  0.4810 -1.2117
  256MOL   H12036330   2.489   0.177   6.307 -0.4495 -0.4567  0.5619
  256MOL   C12136331   2.548   7.435   6.130 -0.6789  0.0853 -0.0382
  256MOL   C12236332   2.673   7.484   6.056  0.0680 -0.7936  0.1659
  256MOL   O12336333   2.742   0.063   6.136  0.4507  0.2733 -0.3419
  256MOL   H12436334   2.570   7.344   6.187 -1.4102 -1.6264 -2.3779
  256MOL   H12536335   2.483   7.395   6.052 -1.8269 -0.2898  1.0992
  256MOL   H12636336   2.636   0.004   5.962  2.4092 -1.6590 -1.1490
  256MOL   H12736337   2.687   0.092   6.207  0.6685 -4.0466  1.7212
  256MOL   C12836338   2.770   7.370   6.019 -0.3032 -0.6579 -0.6872
  256MOL   C12936339   2.712   7.279   5.918  0.2541  0.0447 -0.0975
  256MOL   O13036340   2.740   7.330   5.783 -0.1109 -0.7374  0.0537
  256MOL   H13136341   2.858   7.411   5.971 -0.0621 -0.8369 -0.4036
  256MOL   H13236342   2.794   7.325   6.116 -2.6570 -1.6400 -0.5374
  256MOL   H13336343   2.604   7.274   5.934  0.3558  0.8581  0.9140
  256MOL   H13436344   2.833   7.331   5.766 -0.2045  1.0304 -0.5094
  256MOL   C13536345   2.759   7.129   5.931 -0.4821 -0.7288  0.3071
  256MOL   C13636346   2.710   7.048   6.053 -0.8093  0.4532  0.6212
  256MOL   O13736347   2.815   6.962   6.108  0.5616  0.2536  0.0050
  256MOL   H13836348   2.733   7.072   5.842 -0.3359  1.2562 -1.0435
  256MOL   H13936349   2.867   7.147   5.933 -0.4012 -1.1165 -0.2552
  256MOL   H14036350   2.627   6.983   6.025 -0.6409  0.8083 -0.7174
  256MOL   H14136351   2.814   6.881   6.059  0.1438  0.9967 -1.2393
  256MOL   H14236352   2.665   7.111   6.130  0.8325  0.7376  1.3525
  257MOL     C136353   1.119   0.507   5.064 -0.5996 -0.1922 -0.1004
  257MOL     C236354   0.974   0.458   5.088  0.0837  0.0896  0.0672
  257MOL     O336355   0.985   0.326   5.117 -0.1170 -0.2867 -0.0993
  257MOL     H436356   1.182   0.512   5.152 -0.6274 -0.5072 -0.0621
  257MOL     H536357   1.133   0.610   5.030 -0.1851 -0.5373 -1.0048
  257MOL     H636358   0.911   0.458   4.999  2.5960 -0.6703 -1.7609
  257MOL     H736359   0.991   0.279   5.036  0.3847  1.0074 -0.8287
  257MOL     H836360   1.178   0.440   5.001 -0.4146 -0.2949  0.1827
  257MOL     C936361   0.895   0.522   5.210  0.0792  0.2650 -0.1431
  257MOL    C1036362   0.840   0.659   5.174  0.2647  0.6731 -0.7671
  257MOL    O1136363   0.738   0.681   5.265 -0.1127  0.1290 -0.5065
  257MOL    H1236364   0.817   0.453   5.242  1.4140 -1.4316 -0.4884
  257MOL    H1336365   0.953   0.520   5.302 -0.9984  1.8470  0.5774
  257MOL    H1436366   0.793   0.641   5.077 -2.2463 -2.5160  0.9156
  257MOL    H1536367   0.682   0.605   5.265  0.3178 -0.2171  1.9313
  257MOL    C1636368   0.935   0.771   5.174 -0.0381 -0.3188  0.6818
  257MOL    C1736369   0.879   0.900   5.109  0.1012 -0.2873  0.6081
  257MOL    O1836370   0.953   1.015   5.154 -0.2655  0.2611  0.8125
  257MOL    H1936371   0.962   0.783   5.279  2.2534 -1.7327  0.2881
  257MOL    H2036372   1.023   0.748   5.114  1.2036  3.1152  1.0532
  257MOL    H2136373   0.774   0.909   5.138  0.0601 -1.2521  0.7965
  257MOL    H2236374   0.972   1.010   5.246 -1.2177  1.5354  1.0853
  257MOL    C2336375   0.885   0.902   4.957 -0.2034 -0.3888  1.1037
  257MOL    C2436376   0.792   0.994   4.883  0.4851 -0.0327  0.4335
  257MOL    O2536377   0.828   0.969   4.753 -0.6633 -0.0077 -0.2074
  257MOL    H2636378   0.989   0.917   4.928 -0.6594  0.5391 -0.0848
  257MOL    H2736379   0.866   0.801   4.921  1.3186  0.3828 -2.1439
  257MOL    H2836380   0.829   1.095   4.902  0.6500  0.2800 -1.4246
  257MOL    H2936381   0.858   1.050   4.717  0.3157 -0.7484 -1.0763
  257MOL    C3036382   0.642   0.958   4.897 -0.3001  0.2977 -0.0022
  257MOL    C3136383   0.538   1.041   4.811 -0.1540 -0.7233 -0.0914
  257MOL    O3236384   0.429   0.961   4.783  0.1345 -0.0166 -0.2054
  257MOL    H3336385   0.645   0.857   4.856  1.6760 -0.5785  2.1875
  257MOL    H3436386   0.626   0.955   5.005 -1.5891  2.7433 -0.0961
  257MOL    H3536387   0.583   1.059   4.713 -0.1767  0.2626  0.0770
  257MOL    H3636388   0.374   0.960   4.859  0.8010  4.1026  0.4461
  257MOL    C3736389   0.483   1.165   4.870 -0.0452 -0.6022  0.8649
  257MOL    C3836390   0.584   1.283   4.881 -0.1715 -0.3895 -0.1283
  257MOL    O3936391   0.591   1.359   4.761 -0.2266  0.2402  0.4970
  257MOL    H4036392   0.393   1.198   4.819 -0.0421  2.2580  2.6114
  257MOL    H4136393   0.438   1.128   4.963 -1.4266  0.3023  0.5643
  257MOL    H4236394   0.676   1.236   4.914 -1.9598 -2.2339  2.3351
  257MOL    H4336395   0.547   1.440   4.779  1.0847  1.0805 -0.0105
  257MOL    C4436396   0.529   1.377   4.988 -0.2045  0.1158 -0.9726
  257MOL    C4536397   0.630   1.467   5.059  0.2329  0.5478  0.0349
  257MOL    O4636398   0.636   1.589   4.984  0.2174 -0.6565 -0.0413
  257MOL    H4736399   0.438   1.429   4.957 -0.9908 -0.0083  1.1058
  257MOL    H4836400   0.500   1.312   5.070 -1.1081  0.8360 -0.7166
  257MOL    H4936401   0.730   1.425   5.045 -0.9387 -1.8491 -1.6013
  257MOL    H5036402   0.630   1.666   5.039  0.4098 -2.5861  2.7642
  257MOL    C5136403   0.593   1.492   5.203 -0.4122  0.5833 -0.7013
  257MOL    C5236404   0.703   1.563   5.281 -0.9337 -0.3969 -0.1532
  257MOL    O5336405   0.645   1.595   5.409 -0.3853 -0.0009  0.6871
  257MOL    H5436406   0.505   1.555   5.191 -0.0250  1.3609  0.4455
  257MOL    H5536407   0.563   1.404   5.260  1.1600  0.3072 -0.2805
  257MOL    H5636408   0.728   1.655   5.228  1.7249 -0.7972  0.3625
  257MOL    H5736409   0.566   1.645   5.397 -2.0587 -3.1655 -2.2646
  257MOL    C5836410   0.830   1.481   5.287 -0.2576  0.8581  0.8569
  257MOL    C5936411   0.928   1.496   5.405  0.0550 -0.2160  0.1008
  257MOL    O6036412   0.852   1.475   5.521  0.0419 -0.2163 -0.3205
  257MOL    H6136413   0.796   1.377   5.281 -1.2250  1.2268 -0.3029
  257MOL    H6236414   0.878   1.509   5.194  1.2111  2.2236  2.0140
  257MOL    H6336415   0.953   1.602   5.409  1.1509 -0.3986 -1.6872
  257MOL    H6436416   0.773   1.524   5.503 -0.3169 -0.4633  0.5355
  257MOL    C6536417   1.036   1.386   5.400 -0.7778 -0.3437 -0.4643
  257MOL    C6636418   1.103   1.369   5.262 -0.5052  0.9043  0.2134
  257MOL    O6736419   1.157   1.493   5.218  0.0112 -0.1851  0.3073
  257MOL    H6836420   1.104   1.400   5.484 -1.3732 -0.6049  0.0667
  257MOL    H6936421   0.990   1.288   5.414 -2.5937  0.3099 -1.5978
  257MOL    H7036422   1.026   1.331   5.194  0.2278  0.3585 -0.3140
  257MOL    H7136423   1.189   1.468   5.132 -0.2990 -0.8660  0.3831
  257MOL    C7236424   1.217   1.262   5.241  0.2343  0.5146 -0.4047
  257MOL    C7336425   1.246   1.221   5.097  0.3263  0.7649 -1.3273
  257MOL    O7436426   1.263   1.330   5.017  0.1235  0.1615 -0.2695
  257MOL    H7536427   1.315   1.294   5.276  0.5201 -0.5040 -0.2414
  257MOL    H7636428   1.195   1.178   5.307  1.0073 -0.6824 -1.6432
  257MOL    H7736429   1.160   1.166   5.059  0.5905  0.7243 -1.8628
  257MOL    H7836430   1.259   1.308   4.925 -1.5853  2.0713 -0.7003
  257MOL    C7936431   1.370   1.126   5.090 -0.1709  0.1581  0.5573
  257MOL    C8036432   1.355   0.996   5.165 -0.2450 -0.0826 -0.2884
  257MOL    O8136433   1.433   0.904   5.098  0.0471 -0.4244  0.2049
  257MOL    H8236434   1.376   1.097   4.985 -1.7173 -1.0209  0.7794
  257MOL    H8336435   1.465   1.174   5.114 -0.5236  1.0485  0.1871
  257MOL    H8436436   1.252   0.960   5.159 -0.5001  0.8405 -1.4479
  257MOL    H8536437   1.424   0.817   5.134 -1.2071 -0.2137  0.4036
  257MOL    C8636438   1.409   1.009   5.311 -0.1852  0.0571 -0.3793
  257MOL    C8736439   1.341   0.923   5.417 -0.9749 -0.7816 -0.3099
  257MOL    O8836440   1.376   0.785   5.395  0.2778 -0.0680 -0.0703
  257MOL    H8936441   1.517   1.006   5.301 -0.4103  0.2677 -3.1095
  257MOL    H9036442   1.390   1.113   5.338 -1.1960 -0.2265  0.0436
  257MOL    H9136443   1.235   0.943   5.400 -0.9329 -1.1865 -1.0641
  257MOL    H9236444   1.469   0.769   5.400  0.5499  1.5038  0.3195
  257MOL    C9336445   1.393   0.956   5.557  0.5374 -0.4518  0.1944
  257MOL    C9436446   1.385   1.105   5.605  0.1890 -0.0092 -0.0664
  257MOL    O9536447   1.256   1.154   5.589 -0.2544  0.2431  0.1770
  257MOL    H9636448   1.343   0.897   5.634  3.1548 -1.6818  1.0056
  257MOL    H9736449   1.495   0.919   5.566  1.2562  1.8171  2.0236
  257MOL    H9836450   1.443   1.177   5.547 -0.2094 -0.4929 -1.0818
  257MOL    H9936451   1.244   1.238   5.630  1.0137  1.0181 -0.9966
  257MOL   C10036452   1.423   1.120   5.755 -0.1421  0.3954 -0.0801
  257MOL   C10136453   1.578   1.106   5.788 -0.0635  0.1929  0.6220
  257MOL   O10236454   1.653   1.176   5.693  0.2954  0.0690  0.4251
  257MOL   H10336455   1.389   1.222   5.775  1.7197  1.3017 -1.2896
  257MOL   H10436456   1.366   1.057   5.823  0.7060  0.4615  0.7004
  257MOL   H10536457   1.597   0.999   5.781  0.3872 -0.0041  3.8669
  257MOL   H10636458   1.648   1.267   5.717  0.4502  0.3968 -0.7486
  257MOL   C10736459   1.617   1.156   5.922 -0.5871  1.0774  0.3697
  257MOL   C10836460   1.571   1.063   6.039  0.3797  0.0808 -0.1979
  257MOL   O10936461   1.647   0.945   6.027 -0.5326 -0.1960  0.3459
  257MOL   H11036462   1.723   1.176   5.940 -0.8104  1.0439  1.7682
  257MOL   H11136463   1.566   1.251   5.937  1.6174  2.0511  2.0730
  257MOL   H11236464   1.468   1.029   6.026  0.9998 -0.5591 -3.9779
  257MOL   H11336465   1.651   0.908   6.114  0.8675  1.1417  0.8822
  257MOL   C11436466   1.596   1.127   6.176 -0.5381 -0.5059 -0.0720
  257MOL   C11536467   1.478   1.207   6.238  0.4887 -0.4008  0.1332
  257MOL   O11636468   1.502   1.188   6.378 -0.4643  0.0768  0.3798
  257MOL   H11736469   1.631   1.041   6.233  2.3053  1.2791  0.9775
  257MOL   H11836470   1.681   1.195   6.173 -1.4127  0.7273  2.2101
  257MOL   H11936471   1.384   1.155   6.220 -0.1098  0.8745 -0.4482
  257MOL   H12036472   1.586   1.229   6.394 -0.0900 -0.1696 -0.8302
  257MOL   C12136473   1.477   1.360   6.193 -0.1093  0.0429 -0.6466
  257MOL   C12236474   1.358   1.444   6.234 -0.2518 -0.1030 -0.0460
  257MOL   O12336475   1.368   1.569   6.178 -0.3387  0.1818 -0.2367
  257MOL   H12436476   1.569   1.408   6.226  0.4109 -0.6558 -1.0640
  257MOL   H12536477   1.487   1.375   6.085  0.0008 -0.3769 -0.6955
  257MOL   H12636478   1.359   1.455   6.343 -0.2011  0.1793 -0.0745
  257MOL   H12736479   1.460   1.575   6.158 -0.4466  2.2277 -0.2021
  257MOL   C12836480   1.217   1.396   6.182 -0.1927  0.7815  0.9483
  257MOL   C12936481   1.194   1.394   6.028 -0.2426  0.5190 -0.1873
  257MOL   O13036482   1.249   1.271   5.986  0.0995 -0.1679 -0.1613
  257MOL   H13136483   1.191   1.307   6.239 -0.6006  1.5166  1.9517
  257MOL   H13236484   1.159   1.478   6.225  0.5555  1.7511  0.1301
  257MOL   H13336485   1.252   1.471   5.976 -0.8996  1.3205  0.2510
  257MOL   H13436486   1.206   1.199   6.028  1.4287 -1.6181 -1.2037
  257MOL   C13536487   1.044   1.409   5.993  0.6066  0.4864 -0.4513
  257MOL   C13636488   1.023   1.431   5.835  0.9016  0.0746  0.3879
  257MOL   O13736489   0.887   1.460   5.812  0.2891  0.2191  0.1423
  257MOL   H13836490   0.973   1.335   6.031 -1.2453  1.3727 -2.0979
  257MOL   H13936491   1.014   1.503   6.040  0.8748  0.5001 -0.3069
  257MOL   H14036492   1.048   1.342   5.776  0.6402  0.5553 -0.4560
  257MOL   H14136493   0.879   1.482   5.720 -0.6332  0.7712  0.3395
  257MOL   H14236494   1.080   1.518   5.803 -0.8467  1.4003  0.7844
  258MOL     C136495   1.131   0.292   6.560  0.1567 -0.1249  0.0631
  258MOL     C236496   1.213   0.170   6.558  0.2571  0.2508  0.3801
  258MOL     O336497   1.117   0.062   6.578  0.4969  0.0989 -0.2406
  258MOL     H436498   1.061   0.270   6.480  1.6329 -1.5516 -0.8656
  258MOL     H536499   1.184   0.383   6.533  0.1872  0.0833  0.8128
  258MOL     H636500   1.278   0.163   6.645  0.5655  0.3901  0.1617
  258MOL     H736501   1.081   0.074   6.665 -0.6353 -1.2837 -0.5083
  258MOL     H836502   1.089   0.307   6.660  1.2897 -3.1515  1.0523
  258MOL     C936503   1.287   0.148   6.424 -0.0030 -0.0762  0.1054
  258MOL    C1036504   1.392   0.040   6.425  0.7693  0.7414 -0.0745
  258MOL    O1136505   1.316   7.447   6.454  0.9175  0.5048 -0.5058
  258MOL    H1236506   1.218   0.124   6.343 -2.3201 -0.5178  2.1805
  258MOL    H1336507   1.329   0.248   6.411 -0.1630  0.0649  0.6814
  258MOL    H1436508   1.458   0.063   6.509  0.2754 -1.1216  0.8581
  258MOL    H1536509   1.241   7.476   6.504  0.2575  0.1143 -1.2684
  258MOL    C1636510   1.472   0.013   6.289 -0.8498 -0.1724 -0.0959
  258MOL    C1736511   1.608   7.455   6.316 -0.6094 -0.3517 -0.2795
  258MOL    O1836512   1.631   7.353   6.235  0.0456  0.0126  0.3715
  258MOL    H1936513   1.407   7.478   6.221  0.3732 -1.3916 -0.3041
  258MOL    H2036514   1.495   0.101   6.228 -1.7530  1.0299  1.2388
  258MOL    H2136515   1.608   7.414   6.417 -1.5862  0.1482 -0.0720
  258MOL    H2236516   1.617   7.384   6.147 -0.5890 -1.2822  0.0034
  258MOL    C2336517   1.733   0.031   6.302 -0.2946  0.8473  0.0821
  258MOL    C2436518   1.741   0.150   6.404  0.3022  0.4749  0.5724
  258MOL    O2536519   1.745   0.084   6.532  0.1887  0.2111 -0.0189
  258MOL    H2636520   1.822   7.489   6.316 -0.1321  0.6078 -1.7828
  258MOL    H2736521   1.736   0.073   6.201 -0.1972 -0.9660 -0.6949
  258MOL    H2836522   1.657   0.219   6.392 -1.4457 -1.7233 -0.1321
  258MOL    H2936523   1.734   0.153   6.595  0.4002  1.0093 -0.8438
  258MOL    C3036524   1.865   0.247   6.394  0.1229  0.0019 -0.1966
  258MOL    C3136525   1.875   0.328   6.264 -0.4114  0.8760 -0.4586
  258MOL    O3236526   1.781   0.432   6.279  0.2021  0.4716  0.2750
  258MOL    H3336527   1.872   0.318   6.476  0.6630 -1.2419  0.8510
  258MOL    H3436528   1.950   0.181   6.410  0.3101  0.3404  0.2286
  258MOL    H3536529   1.841   0.271   6.178 -0.6565  0.8719 -0.3605
  258MOL    H3636530   1.723   0.431   6.204 -1.0595 -0.1685  1.2525
  258MOL    C3736531   2.005   0.393   6.223 -0.4615 -0.4609 -0.0008
  258MOL    C3836532   2.120   0.300   6.193 -0.5041  0.3617  0.0134
  258MOL    O3936533   2.083   0.223   6.082 -0.5595  0.2532 -0.5801
  258MOL    H4036534   1.986   0.464   6.143 -1.5167 -0.2851  0.4015
  258MOL    H4136535   2.037   0.446   6.313  1.5322 -0.7219 -0.5190
  258MOL    H4236536   2.143   0.252   6.289 -1.1559  0.8277  0.4040
  258MOL    H4336537   2.139   0.148   6.069 -1.0351 -0.4565  1.3206
  258MOL    C4436538   2.247   0.374   6.147 -0.4336  0.0145  0.1154
  258MOL    C4536539   2.324   0.456   6.253  0.3348  0.4298  0.5475
  258MOL    O4636540   2.424   0.372   6.313 -0.4052 -0.4507  0.1808
  258MOL    H4736541   2.330   0.316   6.106  0.5358  0.3499  1.5528
  258MOL    H4836542   2.214   0.436   6.064 -0.0649 -1.1695 -0.9406
  258MOL    H4936543   2.253   0.477   6.333 -0.6656  2.3078 -0.7842
  258MOL    H5036544   2.442   0.414   6.395 -0.0554  0.9515 -0.6023
  258MOL    C5136545   2.390   0.586   6.197 -0.3295  0.6283 -0.5038
  258MOL    C5236546   2.421   0.699   6.295 -0.6167 -0.3405  0.1570
  258MOL    O5336547   2.508   0.781   6.218 -0.3410 -0.2855  0.5667
  258MOL    H5436548   2.477   0.563   6.136 -0.9501  0.6271 -1.4084
  258MOL    H5536549   2.322   0.632   6.125 -0.1167  1.2842 -0.2902
  258MOL    H5636550   2.484   0.658   6.374 -0.2655 -0.1519 -0.0250
  258MOL    H5736551   2.594   0.786   6.256 -0.1388 -2.2856  0.4171
  258MOL    C5836552   2.300   0.780   6.350 -0.5790  0.3242  0.4711
  258MOL    C5936553   2.210   0.837   6.237  0.3776 -0.4148 -0.0177
  258MOL    O6036554   2.120   0.738   6.196  0.4348  0.1708 -0.0323
  258MOL    H6136555   2.251   0.719   6.426  0.1460  0.0769  0.7342
  258MOL    H6236556   2.352   0.861   6.401  1.1476 -0.2446 -0.3718
  258MOL    H6336557   2.279   0.854   6.154 -0.8009  0.0397 -0.9105
  258MOL    H6436558   2.068   0.715   6.271  1.2949 -0.9796  0.2154
  258MOL    C6536559   2.129   0.960   6.280 -0.5232 -0.8173 -0.2369
  258MOL    C6636560   2.200   1.097   6.275 -0.2206  0.3583  0.0748
  258MOL    O6736561   2.097   1.193   6.240  0.2196  0.5758 -0.6699
  258MOL    H6836562   2.040   0.956   6.218  0.0948 -0.1439 -1.1803
  258MOL    H6936563   2.099   0.957   6.385  0.8793 -1.2910  0.1666
  258MOL    H7036564   2.270   1.108   6.192  0.2658  2.9223  0.7834
  258MOL    H7136565   2.131   1.277   6.267  0.7436  0.0677  0.2572
  258MOL    C7236566   2.253   1.152   6.412 -0.5893  0.1975 -0.1733
  258MOL    C7336567   2.324   1.292   6.401  0.5955  0.5552  0.4452
  258MOL    O7436568   2.227   1.383   6.366  0.0816  0.1936  0.6599
  258MOL    H7536569   2.169   1.168   6.479 -1.1087 -1.1137 -0.4881
  258MOL    H7636570   2.308   1.066   6.450  0.8068  1.5365  0.8584
  258MOL    H7736571   2.393   1.284   6.317  0.6705 -1.0249  0.6465
  258MOL    H7836572   2.262   1.448   6.307  0.5704 -1.5804 -1.0471
  258MOL    C7936573   2.373   1.339   6.540 -0.5079  0.1462 -0.3455
  258MOL    C8036574   2.518   1.309   6.574 -0.1926 -0.7064 -0.0645
  258MOL    O8136575   2.531   1.354   6.707  0.2184 -0.2121  0.0322
  258MOL    H8236576   2.338   1.438   6.569 -2.4729 -0.9749  1.1990
  258MOL    H8336577   2.314   1.291   6.618  0.9906  2.6276  2.4232
  258MOL    H8436578   2.587   1.368   6.514 -2.7336  0.8917 -1.5001
  258MOL    H8536579   2.596   1.296   6.745  1.8809  1.6029  0.0909
  258MOL    C8636580   2.554   1.162   6.553 -0.3664  0.0671  0.0304
  258MOL    C8736581   2.689   1.114   6.611  0.3433 -0.2617 -0.6295
  258MOL    O8836582   2.691   1.128   6.756  0.5712  0.9874  0.2062
  258MOL    H8936583   2.468   1.104   6.588  0.1829 -0.9702 -0.3285
  258MOL    H9036584   2.552   1.143   6.445 -0.7781 -1.0311  0.2237
  258MOL    H9136585   2.764   1.180   6.568 -0.1143  1.2794  0.8736
  258MOL    H9236586   2.626   1.067   6.789 -0.5673  2.2316  0.2852
  258MOL    C9336587   2.743   0.975   6.581  0.0308 -0.3677  0.3738
  258MOL    C9436588   2.885   0.965   6.523 -0.0716  0.3400 -0.8540
  258MOL    O9536589   2.874   0.999   6.386  0.0550  0.3088 -0.6336
  258MOL    H9636590   2.750   0.917   6.673 -2.2057  1.8556  1.9991
  258MOL    H9736591   2.672   0.909   6.531  2.2028 -1.8012 -0.9109
  258MOL    H9836592   2.912   0.860   6.525  0.6968  0.5148 -1.5217
  258MOL    H9936593   2.958   0.966   6.358  0.5707 -0.6304  1.9179
  258MOL   C10036594   3.000   1.049   6.582 -0.0234 -0.3575  0.7397
  258MOL   C10136595   3.147   0.998   6.561  0.1823 -0.3897  0.1471
  258MOL   O10236596   3.188   0.984   6.429  0.1586 -0.1173 -0.1467
  258MOL   H10336597   2.996   1.156   6.564  0.3779  0.1743  3.4844
  258MOL   H10436598   2.988   1.054   6.691 -0.9441 -0.2403  0.6347
  258MOL   H10536599   3.144   0.902   6.612  0.7310 -1.0775 -1.0916
  258MOL   H10636600   3.282   0.995   6.432  0.3298 -1.5408  0.1442
  258MOL   C10736601   3.255   1.093   6.621 -0.2903 -0.0682  0.2133
  258MOL   C10836602   3.404   1.048   6.623 -0.7995 -0.2456 -0.3175
  258MOL   O10936603   3.439   1.050   6.482  0.0093  0.5671 -0.0129
  258MOL   H11036604   3.235   1.183   6.564  0.1894  0.8927  1.5413
  258MOL   H11136605   3.218   1.119   6.720  0.8362 -0.4389  0.7415
  258MOL   H11236606   3.428   0.950   6.662 -0.0434 -0.7223 -1.9463
  258MOL   H11336607   3.449   1.140   6.457 -0.7249  0.9906  1.2459
  258MOL   C11436608   3.487   1.145   6.713 -0.1529 -0.1189  0.3503
  258MOL   C11536609   3.468   1.118   6.865  0.0547  0.4263  0.1620
  258MOL   O11636610   3.524   0.998   6.915 -0.4659  0.0938 -0.2333
  258MOL   H11736611   3.592   1.131   6.689  0.6310  0.9553  3.0118
  258MOL   H11836612   3.455   1.248   6.698 -1.8707 -0.7234 -0.3010
  258MOL   H11936613   3.362   1.097   6.879 -0.0711 -1.6340 -3.3358
  258MOL   H12036614   3.465   0.925   6.904 -0.3399  0.2851 -2.4299
  258MOL   C12136615   3.522   1.241   6.943  0.4244 -0.1741 -0.0364
  258MOL   C12236616   3.435   1.363   6.947 -1.1590 -0.0446 -0.3615
  258MOL   O12336617   3.313   1.334   7.016 -0.2311 -0.8695  0.2050
  258MOL   H12436618   3.542   1.221   7.048 -0.9779 -0.0063  0.2695
  258MOL   H12536619   3.618   1.257   6.893  0.0186  1.0424 -0.4356
  258MOL   H12636620   3.421   1.406   6.848  1.2850  2.4639  0.3490
  258MOL   H12736621   3.248   1.326   6.947  0.6534 -1.3239 -0.5902
  258MOL   C12836622   3.486   1.482   7.027 -0.0838 -0.4138  0.1834
  258MOL   C12936623   3.620   1.539   6.973  0.2696 -0.1961 -0.1465
  258MOL   O13036624   3.617   1.682   7.001 -0.2024 -0.3310  0.1449
  258MOL   H13136625   3.409   1.557   7.015 -1.0118 -0.9541  2.4360
  258MOL   H13236626   3.494   1.461   7.134 -1.5847 -1.2561  0.1405
  258MOL   H13336627   3.633   1.524   6.866  0.0162  1.3757 -0.4023
  258MOL   H13436628   3.658   1.700   7.084  2.4598 -0.1121 -1.1691
  258MOL   C13536629   3.747   1.475   7.033  0.1131 -0.1734  0.8127
  258MOL   C13636630   3.879   1.529   6.960 -0.3598 -0.6184 -0.0839
  258MOL   O13736631   3.992   1.447   6.979  0.0445  0.0096  0.0791
  258MOL   H13836632   3.753   1.496   7.140  2.7159 -0.5460  0.7826
  258MOL   H13936633   3.745   1.369   7.008  0.7264 -0.4104  1.7613
  258MOL   H14036634   3.903   1.623   7.009 -2.3507 -1.5372  2.7901
  258MOL   H14136635   3.982   1.366   6.932  1.3303 -0.7898  1.1613
  258MOL   H14236636   3.849   1.557   6.859 -1.8555  0.0011  0.5277
  259MOL     C136637   1.168   2.888   2.540 -0.3717 -0.1400  0.5684
  259MOL     C236638   1.189   2.999   2.642 -0.3047 -0.8709  0.2315
  259MOL     O336639   1.231   2.948   2.769 -0.4384  0.4048 -0.2839
  259MOL     H436640   1.143   2.929   2.442  1.0168  0.6552  0.5442
  259MOL     H536641   1.107   2.806   2.579  0.4047 -0.5110  1.0186
  259MOL     H636642   1.095   3.052   2.660  1.2225  2.1119 -0.1994
  259MOL     H736643   1.305   2.890   2.759 -0.3218  0.7241 -1.3852
  259MOL     H836644   1.264   2.839   2.526  0.2239  1.3566 -0.7475
  259MOL     C936645   1.302   3.100   2.599  0.1284 -0.3193  0.1417
  259MOL    C1036646   1.254   3.193   2.484 -0.4272  0.4665 -0.1885
  259MOL    O1136647   1.130   3.259   2.517  0.0938  0.6814  0.6642
  259MOL    H1236648   1.344   3.157   2.682 -1.0832 -0.3674  0.8069
  259MOL    H1336649   1.380   3.036   2.557 -2.8736 -1.9874 -3.1298
  259MOL    H1436650   1.238   3.133   2.394  0.7918  0.9697 -0.7620
  259MOL    H1536651   1.054   3.217   2.480  1.8848  0.8134 -3.3941
  259MOL    C1636652   1.354   3.303   2.446  0.1980 -0.3122  0.3879
  259MOL    C1736653   1.484   3.252   2.386  0.3779 -0.0719  1.1804
  259MOL    O1836654   1.462   3.243   2.243  0.1154 -0.5254 -0.1019
  259MOL    H1936655   1.318   3.375   2.372  1.8010  0.5660  0.4323
  259MOL    H2036656   1.372   3.357   2.539  2.4616 -0.9611  0.3600
  259MOL    H2136657   1.501   3.158   2.439 -3.3836 -1.4969  0.0047
  259MOL    H2236658   1.477   3.325   2.200 -0.4855 -0.3433  0.0299
  259MOL    C2336659   1.605   3.347   2.418 -0.0638 -0.1795  0.6255
  259MOL    C2436660   1.741   3.288   2.380 -0.0833 -0.2628 -0.1093
  259MOL    O2536661   1.846   3.372   2.438 -0.3036 -0.5925  0.2718
  259MOL    H2636662   1.590   3.441   2.364  3.2306  0.7937  1.3033
  259MOL    H2736663   1.608   3.374   2.523 -1.4570  2.1884  0.0944
  259MOL    H2836664   1.744   3.285   2.271 -0.7964  2.4785 -0.2473
  259MOL    H2936665   1.820   3.410   2.520  0.5082 -2.0452  1.2254
  259MOL    C3036666   1.755   3.146   2.431 -0.0797 -0.6894 -0.4425
  259MOL    C3136667   1.734   3.028   2.326 -0.0408 -0.3014 -0.0698
  259MOL    O3236668   1.855   3.024   2.248  0.7673 -0.5634 -0.3168
  259MOL    H3336669   1.855   3.130   2.473 -0.4085 -0.2743  0.4962
  259MOL    H3436670   1.691   3.129   2.518  2.4368 -1.3083  1.3571
  259MOL    H3536671   1.642   3.046   2.270  0.6804 -0.2135 -1.2542
  259MOL    H3636672   1.831   3.005   2.158 -2.0820 -0.8922  0.4687
  259MOL    C3736673   1.731   2.893   2.397  0.2661  0.1933  0.4840
  259MOL    C3836674   1.650   2.777   2.334 -0.1832 -0.4949 -0.7461
  259MOL    O3936675   1.510   2.808   2.323  0.3597 -0.2479 -0.2543
  259MOL    H4036676   1.834   2.861   2.415  0.3812 -0.3846 -1.1033
  259MOL    H4136677   1.688   2.906   2.497  1.0789  0.4815  0.8064
  259MOL    H4236678   1.660   2.687   2.395 -1.1212  0.4122  0.7666
  259MOL    H4336679   1.505   2.859   2.244 -1.2749  0.8617  0.5348
  259MOL    C4436680   1.712   2.732   2.200  0.3758 -0.0622  0.0203
  259MOL    C4536681   1.821   2.622   2.199 -0.1583 -0.4545 -0.3101
  259MOL    O4636682   1.855   2.597   2.067  0.5650  0.5597  0.4459
  259MOL    H4736683   1.628   2.699   2.139  3.1234 -2.2566 -2.7175
  259MOL    H4836684   1.758   2.816   2.146 -1.3814 -0.0866 -1.5593
  259MOL    H4936685   1.780   2.531   2.243 -0.2893 -0.1872  0.1199
  259MOL    H5036686   1.928   2.537   2.068  1.4053  1.5809  1.3730
  259MOL    C5136687   1.954   2.654   2.265  0.1530 -0.0452  1.1457
  259MOL    C5236688   1.975   2.614   2.416  0.1534  0.4591 -0.0737
  259MOL    O5336689   1.976   2.469   2.424  0.3390 -0.5212 -1.0915
  259MOL    H5436690   2.034   2.618   2.200  0.2180  1.5350  0.3413
  259MOL    H5536691   1.970   2.761   2.257  0.5260 -0.2054 -0.5068
  259MOL    H5636692   1.891   2.657   2.470  0.1180  0.2860  0.0110
  259MOL    H5736693   1.923   2.442   2.497  0.1181  0.3091 -0.9356
  259MOL    C5836694   2.107   2.664   2.478  0.2708 -0.1673  0.0796
  259MOL    C5936695   2.103   2.682   2.633  0.0629 -0.0097  0.0085
  259MOL    O6036696   2.233   2.723   2.681  0.0139 -0.5141  0.0269
  259MOL    H6136697   2.196   2.616   2.439  1.5690  2.3115 -0.1161
  259MOL    H6236698   2.123   2.767   2.446  0.4997  0.2391  1.4797
  259MOL    H6336699   2.066   2.592   2.681 -0.9062  1.6599  2.4631
  259MOL    H6436700   2.247   2.810   2.648 -2.2216  0.2252  0.8870
  259MOL    C6536701   2.011   2.803   2.671 -0.2047 -0.0912 -0.3673
  259MOL    C6636702   1.998   2.837   2.821 -0.3043 -0.0246 -0.5166
  259MOL    O6736703   1.885   2.922   2.835 -0.3076 -0.2692 -0.4051
  259MOL    H6836704   2.048   2.897   2.629 -0.5242  0.0174 -0.4018
  259MOL    H6936705   1.910   2.791   2.632 -0.7049  0.2014  0.8206
  259MOL    H7036706   2.083   2.893   2.859 -1.7393  1.1686  1.0171
  259MOL    H7136707   1.913   3.009   2.814  0.3220 -0.5796 -0.8765
  259MOL    C7236708   1.982   2.719   2.919  0.7486  0.0028 -0.0236
  259MOL    C7336709   1.952   2.751   3.068  0.1890 -0.5974 -0.3901
  259MOL    O7436710   1.958   2.631   3.143  0.2422  0.1114  0.0936
  259MOL    H7536711   1.897   2.654   2.897 -1.0638  2.2258  0.2096
  259MOL    H7636712   2.070   2.655   2.921 -0.3008 -1.4504  0.2549
  259MOL    H7736713   1.851   2.789   3.058  0.7232  1.3886  1.3605
  259MOL    H7836714   1.911   2.620   3.224 -0.7731  0.1563 -0.4878
  259MOL    C7936715   2.044   2.852   3.133  1.0758 -0.5303 -0.1641
  259MOL    C8036716   1.981   2.922   3.259 -0.4431  0.1804  0.2102
  259MOL    O8136717   2.085   2.961   3.347 -0.2363 -0.3871 -0.1627
  259MOL    H8236718   2.140   2.801   3.142  0.3680 -1.8053  0.2301
  259MOL    H8336719   2.066   2.934   3.066 -0.4880  0.1344  0.1222
  259MOL    H8436720   1.922   2.850   3.316 -2.3826  0.6374 -1.1812
  259MOL    H8536721   2.138   2.882   3.352 -1.4175 -1.2455 -0.9657
  259MOL    C8636722   1.893   3.048   3.222 -0.3900 -0.2480  0.6974
  259MOL    C8736723   1.797   3.089   3.337  0.0628  0.0273 -1.0201
  259MOL    O8836724   1.776   3.230   3.304  0.3650  0.0898 -0.3310
  259MOL    H8936725   1.961   3.129   3.198  3.0330 -2.6809  1.7728
  259MOL    H9036726   1.830   3.022   3.136  0.0685 -2.9792  1.1297
  259MOL    H9136727   1.856   3.071   3.427  3.4476 -3.3178 -3.7215
  259MOL    H9236728   1.786   3.272   3.389  0.5138 -1.5938  0.5054
  259MOL    C9336729   1.661   3.019   3.350 -0.1751  0.3028  0.2171
  259MOL    C9436730   1.585   3.042   3.483  0.0690  0.3514 -0.0655
  259MOL    O9536731   1.453   3.005   3.471  1.0334  0.1073 -0.2348
  259MOL    H9636732   1.602   3.044   3.262  1.1021 -0.8255 -0.9863
  259MOL    H9736733   1.683   2.913   3.340  1.8452  0.9940 -3.1254
  259MOL    H9836734   1.580   3.150   3.478 -1.1837  0.1953 -3.2479
  259MOL    H9936735   1.417   3.038   3.390  1.0027 -0.8162 -0.6011
  259MOL   C10036736   1.647   2.989   3.613 -0.2137 -0.0394 -0.1758
  259MOL   C10136737   1.740   2.861   3.611 -0.0567 -0.0713 -0.8056
  259MOL   O10236738   1.825   2.856   3.724  0.4088 -0.1220  0.0034
  259MOL   H10336739   1.721   3.060   3.651 -0.6606  0.1474  0.3449
  259MOL   H10436740   1.580   2.988   3.698 -0.7393 -0.1100 -0.5898
  259MOL   H10536741   1.810   2.851   3.528  0.4119 -0.7577 -0.3265
  259MOL   H10636742   1.891   2.790   3.732 -1.0106 -1.5087  0.4648
  259MOL   C10736743   1.664   2.727   3.611 -0.3918 -0.2124 -0.4436
  259MOL   C10836744   1.585   2.693   3.480  0.1861  0.7124  0.4006
  259MOL   O10936745   1.667   2.683   3.356  0.0325  0.3507 -0.0122
  259MOL   H11036746   1.732   2.645   3.634  1.0841  1.0353 -0.2752
  259MOL   H11136747   1.598   2.718   3.696  0.8241 -2.3214  0.3268
  259MOL   H11236748   1.520   2.777   3.455 -0.9746  0.0029  0.9790
  259MOL   H11336749   1.610   2.687   3.281  0.9032  0.8106 -0.6644
  259MOL   C11436750   1.493   2.572   3.490 -0.2022  0.3090 -0.3020
  259MOL   C11536751   1.369   2.590   3.577 -0.9318 -0.3666  0.5907
  259MOL   O11636752   1.277   2.669   3.514 -0.2891  0.0824  0.0247
  259MOL   H11736753   1.465   2.548   3.388  0.3966  1.2619 -0.7031
  259MOL   H11836754   1.540   2.481   3.528 -0.3439  1.1409  1.9617
  259MOL   H11936755   1.393   2.634   3.674  0.5885  0.7975 -0.2835
  259MOL   H12036756   1.313   2.755   3.526 -2.2694  0.8294  0.7212
  259MOL   C12136757   1.293   2.461   3.606  0.0405 -0.6748 -0.8680
  259MOL   C12236758   1.350   2.384   3.730 -0.0664  0.3815 -0.1221
  259MOL   O12336759   1.309   2.436   3.852  0.3582 -0.3723 -0.0918
  259MOL   H12436760   1.189   2.481   3.629  0.3560 -0.1462  0.1157
  259MOL   H12536761   1.294   2.387   3.526 -0.2941 -2.9881  1.2072
  259MOL   H12636762   1.459   2.382   3.728 -0.0825 -0.6198 -0.6124
  259MOL   H12736763   1.373   2.502   3.875 -2.2156  2.5034 -0.8060
  259MOL   C12836764   1.321   2.226   3.716 -0.9725  0.1140  0.7043
  259MOL   C12936765   1.369   2.132   3.831  0.6746 -0.6481  0.5654
  259MOL   O13036766   1.494   2.078   3.798 -0.4130  0.4253  0.1535
  259MOL   H13136767   1.213   2.208   3.706 -1.0326  0.0595  1.4261
  259MOL   H13236768   1.370   2.194   3.624  1.2441 -2.5126  2.7019
  259MOL   H13336769   1.308   2.042   3.825 -1.6084  0.9437 -0.7894
  259MOL   H13436770   1.484   2.040   3.712 -3.4792  0.4459  0.4547
  259MOL   C13536771   1.344   2.186   3.975  0.3204 -0.3150  0.1589
  259MOL   C13636772   1.332   2.075   4.088 -0.2084  0.0018 -0.1432
  259MOL   O13736773   1.268   2.124   4.208  0.3361 -0.2650  0.4665
  259MOL   H13836774   1.413   2.266   4.002 -0.4855  1.0157 -1.6197
  259MOL   H13936775   1.241   2.219   3.961  0.5140 -0.6075 -2.2961
  259MOL   H14036776   1.429   2.036   4.120  0.3857  2.4238  1.1599
  259MOL   H14136777   1.329   2.190   4.238  0.3925 -0.3267  0.4854
  259MOL   H14236778   1.283   1.987   4.047 -2.9661 -0.1931  3.3944
  260MOL     C136779   5.345   1.217   6.192 -0.2277 -0.8882  0.6755
  260MOL     C236780   5.303   1.079   6.122  0.0636  0.5308  0.2529
  260MOL     O336781   5.228   1.109   6.004  0.0617 -0.2684 -0.0679
  260MOL     H436782   5.406   1.197   6.279 -1.2732 -2.1518  1.1455
  260MOL     H536783   5.252   1.266   6.222 -0.0748 -0.4469  0.4179
  260MOL     H636784   5.235   1.040   6.198  0.1328  1.2100  0.6735
  260MOL     H736785   5.145   1.129   6.045  0.2266 -2.0788  1.1975
  260MOL     H836786   5.378   1.287   6.116  0.2792 -2.3898 -0.5158
  260MOL     C936787   5.432   1.002   6.080 -0.1731 -0.0151  0.2807
  260MOL    C1036788   5.406   0.853   6.042  0.3443 -0.2711  0.3786
  260MOL    O1136789   5.333   0.863   5.924  0.0935  0.2096  0.0737
  260MOL    H1236790   5.491   1.051   6.002  2.2977  1.1306  2.7570
  260MOL    H1336791   5.492   0.995   6.171 -0.8845  3.3725  1.1030
  260MOL    H1436792   5.343   0.807   6.118  1.1167  0.3738  1.4364
  260MOL    H1536793   5.278   0.939   5.931 -1.6589 -1.1500  1.5847
  260MOL    C1636794   5.518   0.756   6.030 -0.7198 -0.3536 -0.5677
  260MOL    C1736795   5.484   0.606   6.012 -0.0039  0.6779  0.2217
  260MOL    O1836796   5.422   0.613   5.881 -0.1877  0.5340 -0.4677
  260MOL    H1936797   5.577   0.785   5.943  0.0324  1.1823  0.4370
  260MOL    H2036798   5.592   0.777   6.107  0.8600  0.6526 -2.3085
  260MOL    H2136799   5.412   0.575   6.087  1.5246  0.0671  1.4651
  260MOL    H2236800   5.368   0.690   5.887  2.3944  2.3499  0.2928
  260MOL    C2336801   5.607   0.520   6.008  0.0651 -0.0344  0.3816
  260MOL    C2436802   5.585   0.370   6.000  0.0176 -0.0862  0.1945
  260MOL    O2536803   5.556   0.337   5.866 -0.6250 -0.5525  0.4654
  260MOL    H2636804   5.675   0.553   5.929  0.6808  1.6935  1.5960
  260MOL    H2736805   5.662   0.533   6.102 -0.0886  1.3752  0.2923
  260MOL    H2836806   5.499   0.355   6.066 -0.5855  0.0755 -0.5528
  260MOL    H2936807   5.469   0.361   5.838 -0.1392  0.6937  0.0156
  260MOL    C3036808   5.708   0.287   6.048  0.0304 -0.0362 -0.2069
  260MOL    C3136809   5.701   0.132   6.037  0.4261  0.2585 -0.7367
  260MOL    O3236810   5.826   0.085   6.074 -1.0820  0.2722  0.3102
  260MOL    H3336811   5.791   0.329   5.992 -0.9729  1.8956 -0.2833
  260MOL    H3436812   5.716   0.309   6.155  2.9062  1.7956 -0.7595
  260MOL    H3536813   5.694   0.102   5.932  1.0712 -0.4458 -0.5838
  260MOL    H3636814   5.889   0.108   6.006 -1.7379 -1.1592 -0.8132
  260MOL    C3736815   5.593   0.069   6.127  0.3577  0.1075 -0.5446
  260MOL    C3836816   5.561   7.438   6.105  0.5974  0.0168 -0.2529
  260MOL    O3936817   5.542   7.414   5.971  0.7927  0.5352  0.1219
  260MOL    H4036818   5.611   0.091   6.232  0.4429 -0.8875 -0.3403
  260MOL    H4136819   5.499   0.121   6.113  0.1307 -0.1345  0.0816
  260MOL    H4236820   5.464   7.430   6.154 -0.5996 -1.8555 -2.7680
  260MOL    H4336821   5.616   7.434   5.914  1.3820  2.0434  1.3748
  260MOL    C4436822   5.657   7.340   6.173 -0.2059  0.0834 -0.2528
  260MOL    C4536823   5.663   7.336   6.326 -0.2662  0.7794  0.3609
  260MOL    O4636824   5.654   7.199   6.360 -0.4114 -0.3416  0.1561
  260MOL    H4736825   5.629   7.241   6.137  0.4396 -0.3506  0.4160
  260MOL    H4836826   5.758   7.337   6.131 -0.6507 -2.7722 -1.2323
  260MOL    H4936827   5.579   7.395   6.364  0.5468  0.1131  3.2942
  260MOL    H5036828   5.579   7.193   6.418  0.4600  1.8019  1.5649
  260MOL    C5136829   5.796   7.389   6.386 -0.0936 -0.1716  0.2402
  260MOL    C5236830   5.806   7.377   6.534  0.5044 -1.0523 -0.5216
  260MOL    O5336831   5.938   7.419   6.561 -0.1979  0.3623  0.0730
  260MOL    H5436832   5.877   7.327   6.346  0.3859  0.2680  0.5260
  260MOL    H5536833   5.823   7.489   6.353  3.9085 -1.6575 -1.2769
  260MOL    H5636834   5.788   7.279   6.577  2.5781 -0.8288  0.9718
  260MOL    H5736835   5.937   7.430   6.655 -0.6521  0.3251  0.0732
  260MOL    C5836836   5.714   7.489   6.597  0.1033 -0.7859 -0.7307
  260MOL    C5936837   5.705   7.475   6.749 -0.3082 -0.5566 -0.0552
  260MOL    O6036838   5.841   7.489   6.809  0.6972  0.3202 -0.1728
  260MOL    H6136839   5.750   0.069   6.573 -0.9972  0.0166  0.8745
  260MOL    H6236840   5.611   7.479   6.561  0.2748 -2.1206 -0.8690
  260MOL    H6336841   5.669   7.374   6.771 -0.2163 -0.1449  2.0679
  260MOL    H6436842   5.826   0.011   6.893  0.6369  0.7750 -0.4070
  260MOL    C6536843   5.614   0.064   6.813  0.0455 -0.5512  0.4607
  260MOL    C6636844   5.464   0.044   6.790  0.3529  0.3349  0.1538
  260MOL    O6736845   5.396   7.518   6.906 -0.3183  0.5303 -0.1101
  260MOL    H6836846   5.635   0.058   6.920 -1.1267 -2.2106  0.6079
  260MOL    H6936847   5.658   0.162   6.798  2.3684 -1.4832  1.0143
  260MOL    H7036848   5.448   7.474   6.730 -1.1206 -2.6549  4.7417
  260MOL    H7136849   5.305   7.505   6.881 -0.4345 -2.0429  1.4240
  260MOL    C7236850   5.394   0.158   6.725 -0.3581  0.8047  0.6410
  260MOL    C7336851   5.423   0.181   6.574  0.5304 -0.2495 -0.1310
  260MOL    O7436852   5.408   0.065   6.491  0.1200  0.1356  0.0613
  260MOL    H7536853   5.288   0.145   6.745 -0.5769 -0.2785 -1.1566
  260MOL    H7636854   5.425   0.249   6.776  1.2585  0.9855 -0.6488
  260MOL    H7736855   5.524   0.221   6.560  0.3676 -0.0674 -0.8038
  260MOL    H7836856   5.380   0.098   6.407  2.4630  0.0598 -0.7745
  260MOL    C7936857   5.332   0.295   6.526  0.0243  0.3531 -0.3738
  260MOL    C8036858   5.357   0.342   6.387  0.5368 -0.6750 -0.5251
  260MOL    O8136859   5.308   0.240   6.301  0.2899  0.2125  0.2154
  260MOL    H8236860   5.229   0.263   6.539 -0.8227  1.5923 -3.5459
  260MOL    H8336861   5.352   0.378   6.594  2.3159  1.9537 -2.9119
  260MOL    H8436862   5.463   0.334   6.363  0.3604 -1.0492 -1.1899
  260MOL    H8536863   5.215   0.256   6.300  0.5726  1.9286 -0.3124
  260MOL    C8636864   5.281   0.475   6.363 -0.0683  0.1609  0.5812
  260MOL    C8736865   5.357   0.593   6.424  0.0134 -0.4210 -0.3267
  260MOL    O8836866   5.466   0.632   6.347  0.2296  0.1531 -0.2296
  260MOL    H8936867   5.291   0.495   6.256  0.6849 -2.9200  0.0117
  260MOL    H9036868   5.179   0.468   6.401 -0.4324  0.4842 -0.3248
  260MOL    H9136869   5.391   0.561   6.523 -1.1194 -1.9887 -0.4161
  260MOL    H9236870   5.542   0.610   6.398 -0.6555 -0.5844  0.7818
  260MOL    C9336871   5.272   0.715   6.445  0.7367 -0.1292 -0.6489
  260MOL    C9436872   5.342   0.843   6.497 -0.2120  0.5343  0.3509
  260MOL    O9536873   5.432   0.896   6.401 -0.3616  0.3169  0.1040
  260MOL    H9636874   5.222   0.746   6.353 -0.4183  1.8056  0.6022
  260MOL    H9736875   5.191   0.685   6.510 -0.0094  0.6762 -1.1931
  260MOL    H9836876   5.386   0.798   6.587 -2.8237  0.8222  1.8218
  260MOL    H9936877   5.476   0.827   6.354 -0.3350  1.3208 -1.4138
  260MOL   C10036878   5.247   0.949   6.556 -0.1476  0.1046 -0.0915
  260MOL   C10136879   5.327   1.048   6.649 -0.4947 -0.6524 -1.1676
  260MOL   O10236880   5.397   1.138   6.566 -0.0479 -0.3063  0.3021
  260MOL   H10336881   5.192   1.012   6.487  1.2695  0.6640 -0.7412
  260MOL   H10436882   5.173   0.894   6.614  0.4941 -2.2615 -1.4083
  260MOL   H10536883   5.395   1.008   6.724 -1.6452  0.2741  0.4045
  260MOL   H10636884   5.466   1.095   6.519  0.8302 -0.0308  1.3140
  260MOL   C10736885   5.220   1.129   6.736 -0.2930  0.3195  0.5746
  260MOL   C10836886   5.284   1.219   6.848 -0.2346 -0.1382 -0.7238
  260MOL   O10936887   5.378   1.306   6.797  0.3212  0.0422 -0.3895
  260MOL   H11036888   5.155   1.198   6.682  0.6870  1.0702  0.3279
  260MOL   H11136889   5.142   1.065   6.777  0.2001 -0.5471  0.1763
  260MOL   H11236890   5.324   1.141   6.912  0.6351  0.9276  0.0311
  260MOL   H11336891   5.392   1.275   6.709 -0.2065  1.0803 -0.8515
  260MOL   C11436892   5.183   1.298   6.936  0.5159  0.3421  0.0296
  260MOL   C11536893   5.238   1.380   7.062 -0.1522  0.0586  0.1793
  260MOL   O11636894   5.319   1.484   7.017  0.2961  0.0407  0.0392
  260MOL   H11736895   5.128   1.362   6.867 -2.3444 -0.0741  1.8442
  260MOL   H11836896   5.109   1.225   6.967 -0.9103  2.0180  0.6634
  260MOL   H11936897   5.291   1.311   7.127 -0.5811  1.1660  1.7436
  260MOL   H12036898   5.347   1.462   6.930  0.2269  1.4980 -0.3616
  260MOL   C12136899   5.130   1.448   7.147  0.4333  0.8632  1.0831
  260MOL   C12236900   5.152   1.468   7.297  0.1602  0.2125 -0.3425
  260MOL   O12336901   5.126   1.347   7.368  0.3537 -0.2063 -0.2486
  260MOL   H12436902   5.104   1.539   7.093 -1.8521 -0.6554 -0.5002
  260MOL   H12536903   5.033   1.398   7.141  0.9691 -0.5479  3.3910
  260MOL   H12636904   5.076   1.542   7.321 -1.9592 -1.7088 -1.0170
  260MOL   H12736905   5.094   1.365   7.456 -0.1251 -3.4970  0.3265
  260MOL   C12836906   5.301   1.528   7.342  1.2021  0.2423  0.0053
  260MOL   C12936907   5.324   1.682   7.329 -0.2457 -0.2286 -0.1220
  260MOL   O13036908   5.231   1.758   7.401  0.4609 -0.2310 -0.3079
  260MOL   H13136909   5.328   1.511   7.446  3.4879 -0.0634 -0.6026
  260MOL   H13236910   5.384   1.475   7.294 -0.8950 -2.0467 -1.2373
  260MOL   H13336911   5.322   1.716   7.225 -1.3550  0.7442  0.2039
  260MOL   H13436912   5.194   1.816   7.336  0.7814  0.4091  0.0765
  260MOL   C13536913   5.464   1.724   7.383 -0.4511  0.2718 -0.6827
  260MOL   C13636914   5.583   1.696   7.290  0.3883 -0.3160 -0.3201
  260MOL   O13736915   5.694   1.721   7.371 -0.0494  0.0543  0.1425
  260MOL   H13836916   5.470   1.831   7.405 -2.3668  0.0833  0.8944
  260MOL   H13936917   5.485   1.678   7.479  1.9224 -1.6550 -2.0553
  260MOL   H14036918   5.586   1.761   7.203 -0.0258  0.4631  0.2377
  260MOL   H14136919   5.696   1.814   7.391  0.6241 -0.0440  0.5228
  260MOL   H14236920   5.589   1.590   7.267 -1.3309 -0.3488 -0.6518
  261MOL     C136921   0.753   2.748   1.624 -0.3395  0.0300 -0.2442
  261MOL     C236922   0.771   2.684   1.484 -0.5895 -0.1300  0.5599
  261MOL     O336923   0.649   2.667   1.417  0.0663  0.4328 -0.4967
  261MOL     H436924   0.852   2.759   1.669  0.4436  0.8562 -2.0962
  261MOL     H536925   0.707   2.678   1.693 -1.2358 -0.4040 -1.2782
  261MOL     H636926   0.816   2.585   1.497  0.9725  0.3888 -0.7335
  261MOL     H736927   0.603   2.614   1.480  1.3754 -1.6768 -1.2199
  261MOL     H836928   0.699   2.842   1.613  2.3320  1.6859  0.1903
  261MOL     C936929   0.879   2.744   1.394  0.0290 -0.4825 -0.3124
  261MOL    C1036930   1.010   2.781   1.467 -0.1398  0.2289 -0.1482
  261MOL    O1136931   1.092   2.676   1.527 -0.3291 -0.1355 -0.3749
  261MOL    H1236932   0.884   2.670   1.314 -2.7908 -0.9580 -0.1135
  261MOL    H1336933   0.842   2.837   1.350  1.1044  0.3046  0.4424
  261MOL    H1436934   0.999   2.862   1.540  0.2280 -1.1597  1.4829
  261MOL    H1536935   1.055   2.659   1.613 -1.0993  0.9366 -0.4908
  261MOL    C1636936   1.118   2.832   1.364 -0.4633 -0.8582  0.2605
  261MOL    C1736937   1.080   2.956   1.284  0.0061  0.2948  0.1945
  261MOL    O1836938   1.050   3.054   1.384  0.1510 -0.1646 -0.2154
  261MOL    H1936939   1.218   2.844   1.407 -0.7352 -0.5769  0.8185
  261MOL    H2036940   1.133   2.756   1.287 -1.1678  0.2881 -1.0440
  261MOL    H2136941   0.988   2.953   1.224  0.5170 -0.8434 -0.5425
  261MOL    H2236942   1.049   3.132   1.330 -1.0847 -1.0512 -1.4866
  261MOL    C2336943   1.197   3.003   1.200 -0.0196  0.7495 -0.4221
  261MOL    C2436944   1.170   3.135   1.130 -0.2271  0.8007 -0.4611
  261MOL    O2536945   1.153   3.244   1.218  0.0014  0.2955 -0.3213
  261MOL    H2636946   1.283   3.010   1.266 -0.1227 -2.0982  0.0547
  261MOL    H2736947   1.232   2.921   1.137 -0.9693  1.2408 -1.6052
  261MOL    H2836948   1.079   3.130   1.070  0.3990 -0.1796 -1.3501
  261MOL    H2936949   1.164   3.325   1.170  0.5686  1.1587  1.2346
  261MOL    C3036950   1.290   3.173   1.038  0.0631  0.2650  0.4942
  261MOL    C3136951   1.255   3.278   0.924 -0.3723 -0.3175  0.7381
  261MOL    O3236952   1.230   3.405   0.980  0.6278  0.4579 -0.1152
  261MOL    H3336953   1.371   3.207   1.102  0.2765 -2.7845  1.9322
  261MOL    H3436954   1.325   3.083   0.987 -0.5349  1.5061 -2.1537
  261MOL    H3536955   1.161   3.239   0.885 -0.2525 -0.8779  1.0059
  261MOL    H3636956   1.313   3.444   1.001 -0.7251  3.4290 -0.0481
  261MOL    C3736957   1.361   3.290   0.804  0.2326  0.2095 -0.5651
  261MOL    C3836958   1.331   3.185   0.695 -0.2848 -0.4052 -0.2306
  261MOL    O3936959   1.293   3.242   0.579 -0.0172  0.5086 -0.4063
  261MOL    H4036960   1.373   3.390   0.765  0.2362 -0.0640 -1.2681
  261MOL    H4136961   1.456   3.270   0.855 -1.1686  0.2737  2.1923
  261MOL    H4236962   1.246   3.118   0.709 -1.2124  0.9929  1.0306
  261MOL    H4336963   1.200   3.260   0.577  0.1259  1.4126  0.7676
  261MOL    C4436964   1.450   3.084   0.683  0.5066  0.1813  0.3963
  261MOL    C4536965   1.416   2.951   0.612  0.0575 -0.0954 -0.7682
  261MOL    O4636966   1.545   2.905   0.575  0.0290  0.3726 -0.3098
  261MOL    H4736967   1.523   3.137   0.622 -1.3731  2.7762  0.2556
  261MOL    H4836968   1.512   3.061   0.769  2.1918 -0.1715 -0.8817
  261MOL    H4936969   1.371   2.975   0.516  0.7082  3.1651 -0.3273
  261MOL    H5036970   1.576   2.966   0.509  1.0725 -0.4652 -0.5999
  261MOL    C5136971   1.353   2.850   0.712  0.3510 -0.2298 -0.1197
  261MOL    C5236972   1.332   2.704   0.671 -0.3633  0.3386  0.6864
  261MOL    O5336973   1.291   2.630   0.787  0.4719  0.3153  0.1315
  261MOL    H5436974   1.409   2.856   0.806  0.3651  0.7819 -0.1896
  261MOL    H5536975   1.255   2.889   0.737  0.8670  1.4145 -0.6256
  261MOL    H5636976   1.421   2.663   0.624  1.4917  1.5832  3.0108
  261MOL    H5736977   1.266   2.545   0.752 -1.1786  1.1141 -0.7127
  261MOL    C5836978   1.216   2.690   0.572 -0.3060 -0.0484 -0.4649
  261MOL    C5936979   1.185   2.544   0.528  0.2232 -0.1024 -0.2703
  261MOL    O6036980   1.096   2.480   0.613  0.3734 -0.0454 -0.0952
  261MOL    H6136981   1.127   2.740   0.610  0.0605 -0.2092  0.6309
  261MOL    H6236982   1.255   2.748   0.488 -0.8622 -0.3212 -0.9091
  261MOL    H6336983   1.283   2.497   0.532  0.4127  0.1608 -1.6656
  261MOL    H6436984   1.141   2.410   0.657 -1.2670 -1.3717 -0.4455
  261MOL    C6536985   1.111   2.547   0.388 -0.5276  0.4032  0.5467
  261MOL    C6636986   1.076   2.413   0.319  0.7877  0.0196 -1.0133
  261MOL    O6736987   0.960   2.438   0.253  0.2531 -0.1291  0.0631
  261MOL    H6836988   1.025   2.613   0.397 -1.4668 -0.9029  1.3979
  261MOL    H6936989   1.180   2.603   0.325  0.4341 -0.7295  0.5635
  261MOL    H7036990   1.035   2.340   0.389  0.7695  0.1099 -0.9291
  261MOL    H7136991   0.944   2.366   0.194  0.7557  0.4890 -0.8517
  261MOL    C7236992   1.184   2.332   0.240  0.5923  0.0392  0.2183
  261MOL    C7336993   1.144   2.195   0.190  0.8486  0.5207  0.2045
  261MOL    O7436994   1.007   2.183   0.152  0.1543 -0.3031  0.6589
  261MOL    H7536995   1.210   2.404   0.163 -0.4331 -1.1001 -1.2154
  261MOL    H7636996   1.271   2.320   0.304 -1.2102 -0.5884  2.6518
  261MOL    H7736997   1.141   2.137   0.282 -0.8848  0.6149  0.2397
  261MOL    H7836998   0.975   2.097   0.173  2.0941 -1.3234 -0.3848
  261MOL    C7936999   1.231   2.110   0.097 -0.8512 -0.6481 -0.2808
  261MOL    C8037000   1.361   2.182   0.046 -0.3865  0.3364  0.0721
  261MOL    O8137001   1.459   2.149   0.146  0.5458 -0.3180 -0.5235
  261MOL    H8237002   1.259   2.023   0.156  0.4888  0.9650  1.5747
  261MOL    H8337003   1.168   2.079   0.014  0.1311 -2.7535 -0.2728
  261MOL    H8437004   1.359   2.290   0.049  0.7759  0.3465  0.6154
  261MOL    H8537005   1.520   2.221   0.150 -1.2592  1.2271 -0.5584
  261MOL    C8637006   1.413   2.137   7.431 -0.0883 -0.3484  0.2878
  261MOL    C8737007   1.534   2.212   7.384  0.3305 -0.9420 -0.0082
  261MOL    O8837008   1.650   2.132   7.432 -0.0882  0.2563 -0.1422
  261MOL    H8937009   1.433   2.030   7.420 -1.6593 -0.5881 -0.3881
  261MOL    H9037010   1.332   2.148   7.359  2.1438 -0.4085 -2.3217
  261MOL    H9137011   1.547   2.303   7.443  0.1199 -1.2163  0.4649
  261MOL    H9237012   1.618   2.089   7.510  4.2990 -1.4270  0.8579
  261MOL    C9337013   1.551   2.212   7.227 -0.1038  0.5145  0.2361
  261MOL    C9437014   1.460   2.307   7.145 -0.0674 -0.1067  0.2545
  261MOL    O9537015   1.484   2.439   7.187 -0.2621 -0.3683 -0.1790
  261MOL    H9637016   1.655   2.241   7.215 -0.8965  1.9032 -4.4146
  261MOL    H9737017   1.540   2.111   7.188  0.3867  1.0350 -1.2978
  261MOL    H9837018   1.355   2.280   7.160 -0.4389  1.4212  0.5812
  261MOL    H9937019   1.573   2.461   7.168  0.0353 -2.0839 -0.9196
  261MOL   C10037020   1.492   2.306   6.997 -0.1776 -0.0197  0.4191
  261MOL   C10137021   1.411   2.377   6.890  0.4554 -0.8887  0.3081
  261MOL   O10237022   1.479   2.381   6.771 -0.0509 -0.6851 -0.1907
  261MOL   H10337023   1.593   2.347   6.998  0.1313 -0.7761  0.6837
  261MOL   H10437024   1.507   2.202   6.968 -0.2521  0.5820 -1.8605
  261MOL   H10537025   1.394   2.481   6.920  0.3089 -0.1034 -2.3527
  261MOL   H10637026   1.456   2.463   6.730  1.2997  0.0816  0.5545
  261MOL   C10737027   1.279   2.302   6.864  0.0080 -0.3623  0.5571
  261MOL   C10837028   1.172   2.386   6.809  0.4727  0.0996 -0.6285
  261MOL   O10937029   1.082   2.307   6.733  0.5827 -0.1663  0.1827
  261MOL   H11037030   1.309   2.222   6.796  1.4177  0.1270  0.6070
  261MOL   H11137031   1.239   2.255   6.954  1.8269 -2.1418  0.4857
  261MOL   H11237032   1.215   2.465   6.747 -1.6746  0.5600 -1.6124
  261MOL   H11337033   1.042   2.240   6.787  1.6721 -0.5989  0.4711
  261MOL   C11437034   1.080   2.448   6.917  0.6512 -0.8038  0.7745
  261MOL   C11537035   1.014   2.585   6.878 -0.4081  0.4397  0.5202
  261MOL   O11637036   1.103   2.690   6.870 -0.0930  0.2375  0.0100
  261MOL   H11737037   0.996   2.384   6.945  0.5234 -0.6497  0.7479
  261MOL   H11837038   1.138   2.470   7.006  0.2182 -1.1339  1.1373
  261MOL   H11937039   0.941   2.615   6.954 -2.4082 -0.1009 -1.1293
  261MOL   H12037040   1.058   2.765   6.906 -1.1291  0.0325 -0.8250
  261MOL   C12137041   0.925   2.579   6.752 -0.1054 -0.0341  0.8653
  261MOL   C12237042   0.800   2.497   6.774  0.3210 -0.2110 -0.3412
  261MOL   O12337043   0.722   2.560   6.879  0.2929 -0.7408  0.8312
  261MOL   H12437044   0.889   2.679   6.730 -0.2521  0.0901  1.6840
  261MOL   H12537045   0.989   2.550   6.668 -1.9924 -1.9347  0.0131
  261MOL   H12637046   0.831   2.398   6.807 -2.1424 -0.5422  1.0806
  261MOL   H12737047   0.645   2.509   6.900 -1.5472  1.6683  0.1833
  261MOL   C12837048   0.713   2.470   6.642  0.4560  0.2482 -0.9673
  261MOL   C12937049   0.762   2.353   6.551 -0.3987  0.3529  0.6463
  261MOL   O13037050   0.648   2.302   6.479  0.6880 -0.1591  0.5042
  261MOL   H13137051   0.612   2.443   6.672  0.6981 -0.3890 -0.7277
  261MOL   H13237052   0.695   2.560   6.583  0.2468  0.5413 -0.4586
  261MOL   H13337053   0.804   2.274   6.613 -0.2507  0.7434  1.0469
  261MOL   H13437054   0.625   2.361   6.409 -3.0615  0.6545  2.2894
  261MOL   C13537055   0.871   2.393   6.445  0.0368  0.4225 -0.2246
  261MOL   C13637056   0.921   2.276   6.360 -0.7477 -0.4893  0.1243
  261MOL   O13737057   1.013   2.330   6.261  0.5218  0.0378 -0.1807
  261MOL   H13837058   0.830   2.466   6.375 -0.9151 -1.2445 -1.4390
  261MOL   H13937059   0.960   2.438   6.489  2.0343 -1.0904 -2.6056
  261MOL   H14037060   0.834   2.232   6.312 -1.3903  0.9274 -0.0357
  261MOL   H14137061   0.957   2.378   6.202  1.4274 -0.4621 -1.4905
  261MOL   H14237062   0.954   2.187   6.414 -0.3513 -0.1894  0.3777
  262MOL     C137063   2.504   3.096   6.237  0.1094 -0.1979 -0.4992
  262MOL     C237064   2.647   3.154   6.245  0.4857 -0.2213  0.6466
  262MOL     O337065   2.651   3.235   6.360  0.0154 -0.4156 -0.0930
  262MOL     H437066   2.428   3.174   6.234 -0.1721 -0.4055  0.7699
  262MOL     H537067   2.480   3.042   6.329 -1.1950 -0.1935 -0.8237
  262MOL     H637068   2.670   3.221   6.162 -0.9829  1.0143  1.2015
  262MOL     H737069   2.649   3.181   6.438  1.4243 -2.5942 -1.5296
  262MOL     H837070   2.507   3.037   6.146  1.1222  0.3432 -0.8291
  262MOL     C937071   2.757   3.047   6.250 -0.1894 -1.0196 -0.4864
  262MOL    C1037072   2.781   2.947   6.141 -0.1819 -0.3503  0.2974
  262MOL    O1137073   2.916   2.927   6.119 -0.1608 -0.4534  0.1739
  262MOL    H1237074   2.848   3.104   6.271 -0.8411 -0.4985  1.0152
  262MOL    H1337075   2.748   2.996   6.346  1.9026 -3.3643 -1.4779
  262MOL    H1437076   2.742   2.993   6.050 -0.3492 -0.6303  0.2259
  262MOL    H1537077   2.945   3.012   6.090 -1.6652 -0.1628 -0.5481
  262MOL    C1637078   2.704   2.817   6.181  0.6101  0.7410  0.1410
  262MOL    C1737079   2.712   2.701   6.074 -0.1763  0.2223 -0.3617
  262MOL    O1837080   2.674   2.580   6.137 -0.0040 -0.0787  0.3365
  262MOL    H1937081   2.746   2.767   6.268  0.7369  0.4589 -0.0800
  262MOL    H2037082   2.602   2.845   6.206  0.3699  0.6201 -0.6870
  262MOL    H2137083   2.811   2.684   6.032  0.3876 -1.3438  1.5539
  262MOL    H2237084   2.621   2.611   6.209  0.4690  0.0006  0.6495
  262MOL    C2337085   2.601   2.709   5.954 -0.0027 -0.0022 -0.2283
  262MOL    C2437086   2.609   2.602   5.846 -0.2210  0.1130 -0.4319
  262MOL    O2537087   2.500   2.514   5.883 -0.1929 -0.1701 -0.2885
  262MOL    H2637088   2.502   2.718   5.998 -0.4993 -1.5346 -1.0052
  262MOL    H2737089   2.618   2.811   5.920  0.5224  0.4076  1.2188
  262MOL    H2837090   2.698   2.540   5.851  1.2494  2.2250  0.3225
  262MOL    H2937091   2.529   2.450   5.946 -1.2155 -0.0195  0.3634
  262MOL    C3037092   2.579   2.648   5.703  0.7221  0.4337  0.6291
  262MOL    C3137093   2.690   2.726   5.635  0.2671 -0.0210  0.2346
  262MOL    O3237094   2.811   2.655   5.657  0.5611 -0.5119 -0.3799
  262MOL    H3337095   2.546   2.559   5.649 -1.8773  0.8956  1.3770
  262MOL    H3437096   2.484   2.700   5.698 -0.3858 -1.6866 -1.4896
  262MOL    H3537097   2.699   2.829   5.672  0.0765 -0.0838  0.4543
  262MOL    H3637098   2.880   2.715   5.636 -1.0023  0.8375 -1.8527
  262MOL    C3737099   2.660   2.731   5.488 -0.2153  0.2359  0.0427
  262MOL    C3837100   2.727   2.847   5.410  0.9033  0.0814  0.2905
  262MOL    O3937101   2.680   2.828   5.277  0.3583  0.2595  0.1500
  262MOL    H4037102   2.675   2.636   5.437 -0.4760  0.1366  0.1541
  262MOL    H4137103   2.556   2.758   5.465 -0.0883  1.2132  0.5866
  262MOL    H4237104   2.834   2.823   5.405  0.8709 -0.4402  1.9408
  262MOL    H4337105   2.718   2.899   5.227  0.1531  1.4236  1.6016
  262MOL    C4437106   2.693   2.995   5.451 -0.9378 -0.6136 -0.1731
  262MOL    C4537107   2.803   3.059   5.548  0.0265 -0.0783  0.0435
  262MOL    O4637108   2.930   3.067   5.478 -0.5905 -0.0759  0.4196
  262MOL    H4737109   2.676   3.062   5.367  0.9812 -2.0262 -1.7203
  262MOL    H4837110   2.601   2.988   5.508 -1.8137 -0.2366 -1.5252
  262MOL    H4937111   2.833   3.003   5.636 -0.6898 -0.4262  0.0693
  262MOL    H5037112   2.926   3.141   5.419  1.7689 -2.1798 -2.5232
  262MOL    C5137113   2.761   3.197   5.593  0.4597 -0.7089 -0.5339
  262MOL    C5237114   2.664   3.188   5.712 -0.5996  0.0473  0.1581
  262MOL    O5337115   2.744   3.176   5.824  0.5061 -0.1540  0.1495
  262MOL    H5437116   2.840   3.268   5.617 -0.2737 -0.4408  1.1757
  262MOL    H5537117   2.706   3.237   5.507  0.8779  1.1316  0.0448
  262MOL    H5637118   2.601   3.099   5.723 -1.4269  0.6917  0.6983
  262MOL    H5737119   2.686   3.160   5.897  0.5748 -0.8431  0.0562
  262MOL    C5837120   2.569   3.311   5.735  0.3498  0.3560  0.6226
  262MOL    C5937121   2.448   3.282   5.818  0.6788  0.0634 -1.1314
  262MOL    O6037122   2.481   3.216   5.939  0.4284  0.0797  0.0257
  262MOL    H6137123   2.623   3.399   5.769 -0.1733  1.2082 -0.7195
  262MOL    H6237124   2.534   3.322   5.633  1.0617 -1.6738  0.1468
  262MOL    H6337125   2.377   3.221   5.762 -0.3913  1.3740 -1.2255
  262MOL    H6437126   2.406   3.166   5.966  1.3864 -1.4468 -0.0360
  262MOL    C6537127   2.380   3.414   5.862 -0.0459  0.0483  0.0501
  262MOL    C6637128   2.256   3.416   5.952  1.2543  0.0386 -0.1239
  262MOL    O6737129   2.227   3.555   5.984 -0.6625  0.0809  0.5749
  262MOL    H6837130   2.458   3.476   5.904  1.1619 -1.8175  0.6330
  262MOL    H6937131   2.363   3.470   5.770  1.6906 -1.9013 -1.5204
  262MOL    H7037132   2.283   3.370   6.047 -1.3062 -1.5943 -0.1649
  262MOL    H7137133   2.189   3.591   5.905  0.1634 -0.0726  0.1009
  262MOL    C7237134   2.133   3.357   5.887 -0.3355 -0.1737  0.1371
  262MOL    C7337135   2.087   3.219   5.934  0.9116  0.7860  0.0559
  262MOL    O7437136   2.168   3.122   5.869 -0.2350 -0.4547  0.5056
  262MOL    H7537137   2.046   3.420   5.910  0.3182  0.9907 -0.5393
  262MOL    H7637138   2.146   3.361   5.779 -1.0727  0.6807  0.0713
  262MOL    H7737139   1.991   3.196   5.886  0.0460  2.0860  1.1277
  262MOL    H7837140   2.138   3.035   5.893 -0.8187  0.4724  3.3677
  262MOL    C7937141   2.079   3.188   6.084  0.0964  0.5552 -0.1574
  262MOL    C8037142   1.973   3.280   6.151 -0.2103 -0.5205  0.5063
  262MOL    O8137143   1.845   3.242   6.099  0.9269  0.3143  0.0929
  262MOL    H8237144   2.051   3.084   6.100  0.2271  0.4705 -0.4691
  262MOL    H8337145   2.175   3.210   6.132  0.6751 -0.4711 -0.8230
  262MOL    H8437146   1.991   3.385   6.129  5.4840 -1.3494  0.5087
  262MOL    H8537147   1.822   3.297   6.026  0.8528 -0.1013 -0.2012
  262MOL    C8637148   1.974   3.263   6.312 -0.2729  0.3644  0.4514
  262MOL    C8737149   2.106   3.296   6.384  0.6219  0.0831 -0.6279
  262MOL    O8837150   2.183   3.400   6.324  0.5909  0.1757 -0.0508
  262MOL    H8937151   1.902   3.333   6.357 -0.4793  0.0856  0.5543
  262MOL    H9037152   1.932   3.167   6.340  1.8603 -0.7913 -0.2349
  262MOL    H9137153   2.168   3.207   6.376  1.6157  0.7785 -0.6761
  262MOL    H9237154   2.273   3.405   6.353  1.0901 -2.3708 -1.0848
  262MOL    C9337155   2.066   3.324   6.531  0.2786  0.3627 -0.2559
  262MOL    C9437156   2.187   3.312   6.634  0.3708  0.1047 -0.7369
  262MOL    O9537157   2.141   3.381   6.749 -0.6501  0.0480  0.6753
  262MOL    H9637158   2.029   3.427   6.531  0.4559  0.4333  0.5438
  262MOL    H9737159   1.991   3.251   6.561  0.9533  0.2940  1.3442
  262MOL    H9837160   2.277   3.361   6.597 -0.2106  0.7879 -1.2634
  262MOL    H9937161   2.047   3.370   6.760 -0.5102 -2.2797 -0.2491
  262MOL   C10037162   2.219   3.169   6.676 -0.2684 -0.3337 -0.2230
  262MOL   C10137163   2.351   3.156   6.756 -0.2340  0.1929  0.2862
  262MOL   O10237164   2.341   3.039   6.836  0.0417 -0.0365 -0.2557
  262MOL   H10337165   2.130   3.116   6.710 -0.2223  0.4466  1.1496
  262MOL   H10437166   2.238   3.114   6.584 -1.2934  0.5980 -1.0093
  262MOL   H10537167   2.360   3.247   6.816  1.5699  0.6160 -0.5863
  262MOL   H10637168   2.307   3.066   6.920 -3.4250 -0.5363 -1.4042
  262MOL   C10737169   2.472   3.154   6.663  0.0612  0.0981 -0.4122
  262MOL   C10837170   2.605   3.144   6.728  0.2870  0.3976 -0.6723
  262MOL   O10937171   2.706   3.134   6.624  0.4190  0.2929  0.1421
  262MOL   H11037172   2.464   3.076   6.587 -1.5256  2.5050 -2.7925
  262MOL   H11137173   2.467   3.247   6.607 -0.0803  0.4014  0.1091
  262MOL   H11237174   2.596   3.048   6.779 -1.6188  1.2610  0.6552
  262MOL   H11337175   2.786   3.114   6.670  0.8937 -0.0807 -0.8320
  262MOL   C11437176   2.633   3.255   6.841  0.6390 -0.4514 -0.2976
  262MOL   C11537177   2.756   3.231   6.930 -0.3262  0.3934  0.5026
  262MOL   O11637178   2.794   3.352   6.990 -0.5104 -0.1745  0.8207
  262MOL   H11737179   2.628   3.355   6.797 -1.1937 -0.5594 -0.3619
  262MOL   H11837180   2.550   3.267   6.910  0.9222 -3.6064  0.6946
  262MOL   H11937181   2.839   3.206   6.863  0.6374  0.5654  1.6221
  262MOL   H12037182   2.826   3.410   6.922 -0.9408 -1.4989 -0.5587
  262MOL   C12137183   2.725   3.125   7.038 -0.7150 -0.7226  0.1800
  262MOL   C12237184   2.845   3.044   7.089  0.0020 -0.3970  0.5723
  262MOL   O12337185   2.956   3.127   7.141 -0.1025  0.6130  0.1614
  262MOL   H12437186   2.670   3.168   7.121 -0.4147  0.6732 -0.3292
  262MOL   H12537187   2.669   3.044   6.991  1.4188 -2.8194  1.1401
  262MOL   H12637188   2.887   2.981   7.010 -0.5840  0.3569 -0.3589
  262MOL   H12737189   2.991   3.188   7.077  2.6865 -0.8905  0.1645
  262MOL   C12837190   2.806   2.946   7.203  0.0035  0.3197 -0.7612
  262MOL   C12937191   2.724   2.815   7.181  0.4927 -0.2319  0.0269
  262MOL   O13037192   2.720   2.757   7.312 -0.0617 -0.2362 -0.6081
  262MOL   H13137193   2.899   2.929   7.257 -0.6149 -0.6973 -0.0082
  262MOL   H13237194   2.751   3.010   7.272  1.1700  0.4533  0.0664
  262MOL   H13337195   2.781   2.743   7.122  0.8249  0.8915 -1.0290
  262MOL   H13437196   2.761   2.671   7.310 -1.3742 -0.8563 -1.5953
  262MOL   C13537197   2.572   2.830   7.133 -0.1606  0.0153 -0.0399
  262MOL   C13637198   2.572   2.787   6.982  0.4927 -0.4378  0.2575
  262MOL   O13737199   2.440   2.798   6.923  0.1064  0.5853 -0.0813
  262MOL   H13837200   2.499   2.770   7.186  0.4385  1.6957  2.7956
  262MOL   H13937201   2.534   2.932   7.145  1.6195  0.9198 -1.7770
  262MOL   H14037202   2.607   2.684   6.979 -0.5291 -0.7493 -2.0623
  262MOL   H14137203   2.408   2.884   6.902  0.7149  0.4581 -1.6692
  262MOL   H14237204   2.647   2.843   6.927 -0.1500 -0.0009 -0.1775
  263MOL     C137205   1.305   4.784   4.764  0.5080  0.2030 -1.1201
  263MOL     C237206   1.272   4.668   4.668  0.1734  0.2234  0.3540
  263MOL     O337207   1.134   4.620   4.688 -0.2177  0.4546  0.5152
  263MOL     H437208   1.228   4.861   4.770  0.0531 -0.3810  0.7063
  263MOL     H537209   1.401   4.830   4.742  1.3763  0.3902  2.7973
  263MOL     H637210   1.341   4.586   4.688 -0.4436 -0.8870 -1.8512
  263MOL     H737211   1.074   4.692   4.678 -1.4732 -0.4717  1.3510
  263MOL     H837212   1.315   4.744   4.865 -0.7287  0.4031 -0.9065
  263MOL     C937213   1.276   4.695   4.519 -0.1431  0.4569  0.0774
  263MOL    C1037214   1.416   4.690   4.456  0.0041 -0.1348  0.0170
  263MOL    O1137215   1.458   4.554   4.424  0.0914 -0.1797  0.8111
  263MOL    H1237216   1.208   4.630   4.464  0.1782  0.0328  0.1747
  263MOL    H1337217   1.239   4.797   4.517 -1.0934  0.1030 -0.8157
  263MOL    H1437218   1.480   4.740   4.529 -1.7569  0.3013  1.3007
  263MOL    H1537219   1.386   4.511   4.382 -0.1632  1.9259 -1.0403
  263MOL    C1637220   1.435   4.773   4.328 -0.3142 -0.2564 -0.0051
  263MOL    C1737221   1.450   4.925   4.346  0.3701 -0.0095 -0.6588
  263MOL    O1837222   1.577   4.951   4.397 -0.7246  0.7333 -0.2506
  263MOL    H1937223   1.526   4.744   4.275  0.3436 -0.6769  1.3512
  263MOL    H2037224   1.353   4.741   4.264 -1.0396  0.5958  0.4840
  263MOL    H2137225   1.372   4.959   4.415 -0.6952  3.0369 -3.2540
  263MOL    H2237226   1.594   5.044   4.395 -1.9365  1.0043  1.1646
  263MOL    C2337227   1.438   5.000   4.218 -0.6852  0.3570  0.4785
  263MOL    C2437228   1.411   5.154   4.225  0.6455  0.1840  0.0382
  263MOL    O2537229   1.506   5.212   4.309 -0.1018  0.3896 -0.2582
  263MOL    H2637230   1.530   4.977   4.166 -0.9876  1.1235 -0.3979
  263MOL    H2737231   1.357   4.964   4.155  1.1771 -2.5222 -0.3466
  263MOL    H2837232   1.317   5.171   4.278  0.2291 -0.8720 -0.3574
  263MOL    H2937233   1.458   5.250   4.382  1.4765 -1.9995  2.1233
  263MOL    C3037234   1.409   5.229   4.091  0.2261  0.4302 -0.5704
  263MOL    C3137235   1.300   5.181   3.987 -0.0385 -0.8874 -0.1998
  263MOL    O3237236   1.332   5.069   3.926 -0.2972  0.2710 -0.1488
  263MOL    H3337237   1.406   5.336   4.112 -1.4439 -0.1707  2.4708
  263MOL    H3437238   1.509   5.223   4.047  0.3602 -0.6781 -0.1373
  263MOL    H3537239   1.292   5.242   3.898 -0.4006  0.0903  0.5016
  263MOL    H3637240   1.413   5.080   3.879 -0.3361  0.2341 -0.2248
  263MOL    C3737241   1.156   5.183   4.044 -0.0061  0.0965  0.6031
  263MOL    C3837242   1.095   5.316   4.088  0.6607  0.6468 -0.1202
  263MOL    O3937243   1.038   5.376   3.973  0.1669  0.0522 -0.4820
  263MOL    H4037244   1.089   5.132   3.975  0.0550 -0.3711  0.8836
  263MOL    H4137245   1.149   5.101   4.116 -0.1787 -0.5686 -0.1706
  263MOL    H4237246   1.166   5.398   4.101 -0.9218  2.0470 -0.1284
  263MOL    H4337247   1.107   5.393   3.912 -1.2186 -1.1836 -2.4382
  263MOL    C4437248   0.986   5.320   4.196 -0.6936 -0.3286  0.7468
  263MOL    C4537249   1.038   5.307   4.338  0.1111 -0.0459  0.0687
  263MOL    O4637250   1.118   5.418   4.380 -0.0759 -0.0593 -0.3964
  263MOL    H4737251   0.920   5.405   4.182 -0.0637  0.1412  0.5867
  263MOL    H4837252   0.931   5.230   4.168 -2.4634  1.3679 -1.3114
  263MOL    H4937253   1.097   5.217   4.351 -0.4665 -0.4113  0.1970
  263MOL    H5037254   1.054   5.482   4.407 -1.7365 -2.2642  1.1084
  263MOL    C5137255   0.927   5.287   4.440 -0.1441 -0.2798  0.6142
  263MOL    C5237256   0.964   5.268   4.587 -0.2395 -0.3859  0.0044
  263MOL    O5337257   0.858   5.299   4.679 -0.1119  0.5839  0.5438
  263MOL    H5437258   0.860   5.373   4.435  0.9249  0.5339  0.1201
  263MOL    H5537259   0.859   5.206   4.413 -2.3930  2.1391 -1.2737
  263MOL    H5637260   1.051   5.332   4.605 -1.1736  2.3367 -4.2048
  263MOL    H5737261   0.897   5.375   4.720  0.2505  1.5225 -1.5047
  263MOL    C5837262   1.014   5.131   4.640 -0.8455 -0.0840 -0.2046
  263MOL    C5937263   0.927   5.000   4.613 -0.5390  0.1217 -0.2461
  263MOL    O6037264   1.003   4.890   4.668  0.2352 -0.1954 -0.0380
  263MOL    H6137265   1.107   5.116   4.585 -1.7017  0.7798 -1.9062
  263MOL    H6237266   1.048   5.139   4.744  1.8158 -2.2768 -0.8500
  263MOL    H6337267   0.921   4.980   4.506 -0.4032 -0.4938 -0.1394
  263MOL    H6437268   1.016   4.897   4.761 -1.3719  1.2812  0.1048
  263MOL    C6537269   0.784   5.004   4.676 -0.4808 -0.6460 -0.5103
  263MOL    C6637270   0.674   5.055   4.577 -0.0074 -0.1805  0.1964
  263MOL    O6737271   0.655   4.948   4.485 -0.3108  0.4176  0.3973
  263MOL    H6837272   0.755   4.905   4.712  0.9615 -1.3856 -1.3248
  263MOL    H6937273   0.795   5.061   4.769 -0.1748 -0.6558 -0.5392
  263MOL    H7037274   0.715   5.137   4.519 -0.7603  1.4445  1.9230
  263MOL    H7137275   0.594   4.969   4.416 -0.9257  1.6792  1.3150
  263MOL    C7237276   0.548   5.090   4.650 -0.1103  0.3811  0.7704
  263MOL    C7337277   0.538   5.207   4.756 -0.2154  0.5647 -0.1030
  263MOL    O7437278   0.580   5.322   4.688  0.2477 -0.1760  0.1760
  263MOL    H7537279   0.476   5.123   4.575 -0.9103 -0.5672  1.0986
  263MOL    H7637280   0.509   5.002   4.703  2.4318 -1.0803  0.2609
  263MOL    H7737281   0.604   5.199   4.843 -0.2059  0.3873 -0.1256
  263MOL    H7837282   0.674   5.316   4.685  0.4246  0.6083  3.0997
  263MOL    C7937283   0.402   5.236   4.817 -0.4543 -0.2431  0.1772
  263MOL    C8037284   0.399   5.248   4.969 -0.6118  0.2938 -0.0354
  263MOL    O8137285   0.452   5.126   5.024  0.3663 -0.2488  0.4293
  263MOL    H8237286   0.368   5.332   4.779 -1.1069 -0.4042  0.3335
  263MOL    H8337287   0.328   5.163   4.784  1.4087 -3.0447  1.9595
  263MOL    H8437288   0.293   5.254   4.993 -0.7608 -1.9695 -0.0016
  263MOL    H8537289   0.386   5.103   5.087  0.8925  1.5233  1.6715
  263MOL    C8637290   0.471   5.366   5.021  0.5663 -0.1963 -0.2505
  263MOL    C8737291   0.441   5.506   4.967  0.3166 -0.1112  0.1806
  263MOL    O8837292   0.296   5.520   5.001 -0.7234 -0.0407  0.2617
  263MOL    H8937293   0.443   5.353   5.126 -1.5715 -3.1439 -1.1012
  263MOL    H9037294   0.575   5.334   5.012 -0.2549 -2.3355 -2.6456
  263MOL    H9137295   0.447   5.511   4.858 -2.4721 -0.6361 -0.0280
  263MOL    H9237296   0.275   5.543   5.090 -2.9010 -2.3914  0.4130
  263MOL    C9337297   0.535   5.611   5.028  0.5966 -0.0385  0.0541
  263MOL    C9437298   0.648   5.655   4.938  0.5347  0.4272 -0.1620
  263MOL    O9537299   0.723   5.756   5.006  0.3627  0.1572 -0.2749
  263MOL    H9637300   0.468   5.698   5.035 -0.4556 -0.8542  0.2625
  263MOL    H9737301   0.566   5.582   5.129 -2.2672  1.5625  1.4674
  263MOL    H9837302   0.609   5.697   4.845 -3.7312 -1.2782  0.7274
  263MOL    H9937303   0.672   5.835   5.004 -0.1126 -0.1209  0.3767
  263MOL   C10037304   0.746   5.549   4.884 -0.6526 -0.7819  0.3415
  263MOL   C10137305   0.853   5.601   4.778 -0.3699  0.0297 -0.1524
  263MOL   O10237306   0.962   5.512   4.793  0.3207 -0.5329  0.4054
  263MOL   H10337307   0.798   5.527   4.977 -1.4903  2.8751  1.7806
  263MOL   H10437308   0.700   5.454   4.854  0.9010 -1.5435  0.3478
  263MOL   H10537309   0.884   5.702   4.803 -0.0778 -0.3599  1.1004
  263MOL   H10637310   1.031   5.559   4.836 -0.1131  1.5658 -1.1541
  263MOL   C10737311   0.813   5.609   4.634 -0.1833 -0.2766  0.1648
  263MOL   C10837312   0.908   5.694   4.541  0.0522 -0.6529  0.8361
  263MOL   O10937313   0.886   5.657   4.408  0.3649  0.5356  0.2601
  263MOL   H11037314   0.791   5.512   4.588 -0.6738  0.3159 -0.8859
  263MOL   H11137315   0.719   5.663   4.629  0.1822  0.3870  0.4341
  263MOL   H11237316   1.009   5.666   4.570  0.4931  0.4098  0.3576
  263MOL   H11337317   0.958   5.680   4.351  1.0952  0.8382  1.2790
  263MOL   C11437318   0.877   5.843   4.554 -0.8820 -0.1535 -0.4770
  263MOL   C11537319   0.986   5.942   4.528 -0.3119 -0.8494 -0.2264
  263MOL   O11637320   0.926   6.065   4.471  0.4286  0.0339  0.5908
  263MOL   H11737321   0.790   5.871   4.495 -0.5987 -1.7336 -1.6711
  263MOL   H11837322   0.828   5.862   4.649 -0.3971 -0.0404 -0.2507
  263MOL   H11937323   1.040   5.903   4.442  2.3556 -3.1119  2.3391
  263MOL   H12037324   0.852   6.102   4.517  0.6441 -0.8994  1.6959
  263MOL   C12137325   1.076   5.972   4.653  0.0684 -0.1959  0.0154
  263MOL   C12237326   1.195   6.059   4.616  0.2058 -1.0101 -0.4376
  263MOL   O12337327   1.267   6.092   4.737  0.7476 -0.5335 -0.3176
  263MOL   H12437328   1.010   6.025   4.722  0.4204 -0.2600  0.4084
  263MOL   H12537329   1.117   5.886   4.707  1.7062  0.1571 -0.6438
  263MOL   H12637330   1.148   6.150   4.581  0.2585 -0.6979  0.2963
  263MOL   H12737331   1.249   6.184   4.751 -0.1293 -0.5336 -1.3353
  263MOL   C12837332   1.287   5.980   4.528 -0.4006 -0.1402 -0.7108
  263MOL   C12937333   1.408   6.061   4.463 -0.1694 -0.4540  0.3088
  263MOL   O13037334   1.512   5.962   4.455 -0.1428  0.1599 -0.4955
  263MOL   H13137335   1.334   5.903   4.589 -0.5438 -1.5537 -2.3365
  263MOL   H13237336   1.243   5.915   4.452 -1.9971  0.2900 -0.1722
  263MOL   H13337337   1.448   6.145   4.520  0.9728  0.4794 -1.8141
  263MOL   H13437338   1.588   6.004   4.415 -0.0441  1.3102  0.8491
  263MOL   C13537339   1.385   6.115   4.326 -0.2522 -0.1284 -0.2044
  263MOL   C13637340   1.257   6.196   4.298 -0.6778  0.0966 -0.4368
  263MOL   O13737341   1.271   6.246   4.172  0.1264 -0.1104 -0.1789
  263MOL   H13837342   1.479   6.166   4.306 -0.5030  0.5548  0.3198
  263MOL   H13937343   1.385   6.030   4.257  2.7904  1.4704 -2.2818
  263MOL   H14037344   1.241   6.270   4.376  0.0655  0.1569 -0.3365
  263MOL   H14137345   1.251   6.175   4.113  0.1494 -0.7310  0.5470
  263MOL   H14237346   1.165   6.139   4.313 -0.9401  0.3947 -0.9302
  264MOL     C137347   0.056   7.045   6.281 -0.6406  0.6531 -0.4738
  264MOL     C237348   0.008   7.097   6.413 -0.1174 -0.2039  0.5636
  264MOL     O337349   7.454   7.220   6.402  0.4006  0.0693 -0.8998
  264MOL     H437350   7.487   7.029   6.220 -1.5913  1.7960  0.5614
  264MOL     H537351   0.099   6.946   6.289 -0.0424  0.6232 -3.4527
  264MOL     H637352   0.089   7.130   6.479  1.1024 -1.7164 -0.1551
  264MOL     H737353   7.485   7.268   6.477  0.2431 -0.7600 -0.2977
  264MOL     H837354   0.117   7.119   6.229 -0.1017  0.5217 -0.0360
  264MOL     C937355   7.449   6.998   6.500  0.1313 -0.9113 -0.1524
  264MOL    C1037356   7.519   6.878   6.570  0.0309  0.2614  0.1883
  264MOL    O1137357   0.090   6.941   6.666  0.1982  0.5845 -0.1089
  264MOL    H1237358   7.391   7.054   6.574  1.2822 -1.3528  1.1176
  264MOL    H1337359   7.365   6.959   6.443 -1.1191  0.0185  1.0022
  264MOL    H1437360   0.060   6.816   6.504 -1.2672  0.6556 -1.3938
  264MOL    H1537361   0.128   6.866   6.707 -2.5483 -0.3591  0.8350
  264MOL    C1637362   7.417   6.794   6.652 -0.6017  0.6248  0.4983
  264MOL    C1737363   7.409   6.652   6.587  0.3879  0.3132 -0.1098
  264MOL    O1837364   7.360   6.562   6.687  0.1077 -0.3564 -0.2825
  264MOL    H1937365   7.440   6.778   6.758 -0.5398 -1.6969  0.1487
  264MOL    H2037366   7.316   6.834   6.648 -0.7092  0.4701  1.5304
  264MOL    H2137367   7.510   6.619   6.564  0.3423 -0.7812  1.2152
  264MOL    H2237368   7.336   6.481   6.644 -0.0091 -0.6294  0.2909
  264MOL    C2337369   7.328   6.642   6.454  0.0051  1.5201 -0.3857
  264MOL    C2437370   7.404   6.671   6.326 -0.3717 -0.1257  0.0887
  264MOL    O2537371   0.002   6.593   6.316 -0.0377 -0.1428 -0.8182
  264MOL    H2637372   7.282   6.545   6.434  1.2592  1.0651 -1.1123
  264MOL    H2737373   7.244   6.712   6.459  0.5380  1.9989  2.3628
  264MOL    H2837374   7.456   6.767   6.336  0.4220 -0.6955  1.4300
  264MOL    H2937375   0.022   6.616   6.226  1.5037  0.4055 -0.3524
  264MOL    C3037376   7.320   6.656   6.200  0.7747 -0.4494 -0.4905
  264MOL    C3137377   7.375   6.716   6.072 -0.1340 -0.1065 -0.0427
  264MOL    O3237378   7.459   6.619   6.015  0.3683  0.3730 -0.1995
  264MOL    H3337379   7.293   6.551   6.184 -2.1279  0.0223  0.9893
  264MOL    H3437380   7.223   6.700   6.222  0.6989 -0.9124  0.1233
  264MOL    H3537381   7.449   6.794   6.093  0.5519 -0.3359 -1.5175
  264MOL    H3637382   0.010   6.664   5.971  3.5464 -0.2790  3.9104
  264MOL    C3737383   7.265   6.779   5.974 -0.1515  0.0927  0.0619
  264MOL    C3837384   7.161   6.874   6.039  0.2891 -0.1462  0.0133
  264MOL    O3937385   7.118   6.971   5.944  0.1599 -0.7304  0.2850
  264MOL    H4037386   7.322   6.842   5.905 -1.1427  0.3278 -0.5553
  264MOL    H4137387   7.213   6.706   5.912 -1.7152  1.5819 -0.4380
  264MOL    H4237388   7.205   6.922   6.126 -0.6062 -0.5774  0.7215
  264MOL    H4337389   7.065   6.935   5.875  2.2083 -1.0927 -1.1117
  264MOL    C4437390   7.030   6.799   6.075  0.4260  0.0627  0.0125
  264MOL    C4537391   6.944   6.872   6.188 -0.8645 -0.1244 -0.0851
  264MOL    O4637392   6.818   6.803   6.193 -0.0856 -0.1512 -0.5802
  264MOL    H4737393   6.974   6.779   5.983 -0.0304 -0.4766  0.3964
  264MOL    H4837394   7.050   6.699   6.114  0.4022 -0.7086 -1.9101
  264MOL    H4937395   6.939   6.977   6.159  1.9425 -0.6759 -2.8851
  264MOL    H5037396   6.829   6.716   6.228 -1.5001  0.0299  0.3528
  264MOL    C5137397   6.993   6.845   6.332 -0.2839  1.0107  0.3735
  264MOL    C5237398   6.926   6.932   6.441  0.6251  0.0788  1.0405
  264MOL    O5337399   6.796   6.883   6.462  0.0771  0.0110 -0.0364
  264MOL    H5437400   7.004   6.738   6.350  1.4782  0.8162 -1.7116
  264MOL    H5537401   7.095   6.883   6.325 -0.2654  0.8603 -0.2323
  264MOL    H5637402   6.929   7.032   6.399  0.8870 -0.3918 -0.0874
  264MOL    H5737403   6.760   6.869   6.375  0.6809  2.3213 -0.6949
  264MOL    C5837404   7.010   6.928   6.569  0.1887 -0.0353 -0.2493
  264MOL    C5937405   6.953   7.001   6.687 -0.3930  0.2813 -0.2656
  264MOL    O6037406   6.840   6.927   6.727 -0.4399  0.5934  0.2263
  264MOL    H6137407   7.018   6.822   6.592  2.1010  0.5623  2.0378
  264MOL    H6237408   7.112   6.957   6.543  0.0527 -1.0754 -2.0471
  264MOL    H6337409   6.909   7.094   6.652  1.5626  1.5659  0.6058
  264MOL    H6437410   6.805   6.888   6.649 -1.2744 -1.6768  1.6901
  264MOL    C6537411   7.040   7.017   6.814  0.5297  0.8848 -0.0403
  264MOL    C6637412   7.122   7.146   6.820  0.1336  0.2407  0.2757
  264MOL    O6737413   7.039   7.253   6.854 -0.3056  0.8435 -0.0310
  264MOL    H6837414   6.970   7.013   6.897 -0.4734  0.9524 -0.8703
  264MOL    H6937415   7.109   6.933   6.816  0.8845  1.1390 -1.2319
  264MOL    H7037416   7.161   7.168   6.721 -0.6624  0.4305  0.0041
  264MOL    H7137417   6.971   7.269   6.790  0.6231 -0.1002 -1.2820
  264MOL    C7237418   7.226   7.145   6.941 -0.0505  0.8007 -0.3738
  264MOL    C7337419   7.352   7.065   6.918  0.2846 -0.0613  0.0108
  264MOL    O7437420   7.436   7.128   6.822 -0.5143 -0.6820 -0.2472
  264MOL    H7537421   7.253   7.244   6.978 -1.5659  1.3530 -0.7103
  264MOL    H7637422   7.166   7.097   7.018  0.2926  2.6985  1.1063
  264MOL    H7737423   7.331   6.968   6.875 -0.5016 -1.0693  2.5566
  264MOL    H7837424   7.516   7.080   6.805  0.2360  0.1084  0.9444
  264MOL    C7937425   7.430   7.055   7.045  0.4113 -0.1795  0.2588
  264MOL    C8037426   0.024   6.947   7.047  0.4167 -0.6116  0.2928
  264MOL    O8137427   0.129   6.984   7.132  0.0989  0.4058 -0.6166
  264MOL    H8237428   7.464   7.155   7.073 -0.6042  0.7769 -1.8073
  264MOL    H8337429   7.354   7.034   7.120  1.3217  0.1258  1.2830
  264MOL    H8437430   0.057   6.950   6.943 -0.2373 -1.0429  0.0657
  264MOL    H8537431   0.205   6.933   7.108  2.2425  2.7082  1.0098
  264MOL    C8637432   7.490   6.806   7.089 -0.6580  0.6282  1.0144
  264MOL    C8737433   0.073   6.696   7.053 -0.1424  0.1163  0.0207
  264MOL    O8837434   0.198   6.732   7.107 -0.1103 -0.5344  0.3896
  264MOL    H8937435   7.473   6.804   7.197  1.8424 -1.9110  1.4068
  264MOL    H9037436   7.395   6.806   7.034 -0.5369  0.5717  0.8062
  264MOL    H9137437   0.094   6.694   6.946  0.5654  1.9911  0.1166
  264MOL    H9237438   0.263   6.668   7.081  0.9868  0.4873  0.5428
  264MOL    C9337439   0.024   6.555   7.095 -0.6097  0.0992 -0.7078
  264MOL    C9437440   7.428   6.482   7.031 -0.5258 -0.1172  0.0004
  264MOL    O9537441   7.466   6.430   6.909  0.1191  0.0480  0.3688
  264MOL    H9637442   0.107   6.485   7.111  0.6934  1.6187 -0.6330
  264MOL    H9737443   7.513   6.566   7.199 -1.3893  1.2747 -1.0624
  264MOL    H9837444   7.341   6.548   7.026 -0.6589 -0.2148  0.9667
  264MOL    H9937445   7.400   6.458   6.848 -3.7456 -0.9975  3.8367
  264MOL   C10037446   7.379   6.356   7.107  0.1502 -0.3541  0.3054
  264MOL   C10137447   7.288   6.388   7.234 -0.2521 -0.3693  0.1895
  264MOL   O10237448   7.149   6.362   7.204 -0.1213 -0.4080  0.5010
  264MOL   H10337449   7.317   6.286   7.051  1.1999 -0.2283 -1.0428
  264MOL   H10437450   7.471   6.306   7.138  1.2507  2.2028  1.2952
  264MOL   H10537451   7.306   6.495   7.242  0.9223 -0.2906 -2.9038
  264MOL   H10637452   7.112   6.449   7.209  1.4021  0.2635  0.2082
  264MOL   C10737453   7.326   6.315   7.367 -0.0987  0.8155 -0.0682
  264MOL   C10837454   7.217   6.339   7.476  0.0852 -0.0498  0.0984
  264MOL   O10937455   7.235   6.252   0.070  0.1269  0.5115  0.1141
  264MOL   H11037456   7.327   6.207   7.351  0.1629  0.7136  0.6288
  264MOL   H11137457   7.426   6.348   7.396  0.3897 -0.1118 -0.6498
  264MOL   H11237458   7.122   6.312   7.431 -0.0243  0.8603 -0.2375
  264MOL   H11337459   7.290   6.291   0.137  0.6216 -2.1960  1.3759
  264MOL   C11437460   7.212   6.484   0.013  0.4244  0.3264 -0.0917
  264MOL   C11537461   7.086   6.533   0.086 -0.2757  0.0443  0.0610
  264MOL   O11637462   7.112   6.675   0.101 -0.0363  0.3214 -0.3147
  264MOL   H11737463   7.298   6.505   0.077  0.3205  0.7742 -0.0995
  264MOL   H11837464   7.215   6.546   7.443 -2.0383 -1.2977 -1.3440
  264MOL   H11937465   7.074   6.506   0.191 -0.6732 -1.0820 -0.2700
  264MOL   H12037466   7.098   6.695   0.192  1.1179 -0.3438  0.0246
  264MOL   C12137467   6.961   6.515   0.004 -0.3249  0.7393  0.1797
  264MOL   C12237468   6.830   6.565   0.063 -0.2499 -0.2722 -0.0068
  264MOL   O12337469   6.753   6.574   7.465  0.0321 -0.1441  0.0694
  264MOL   H12437470   6.961   6.555   7.422  0.6635  1.8721  0.6189
  264MOL   H12537471   6.953   6.407   7.507  0.8310  0.5352  0.8840
  264MOL   H12637472   6.852   6.660   0.112 -1.7343 -0.9823  2.1513
  264MOL   H12737473   6.700   6.651   7.481 -0.8954 -1.1887  2.2484
  264MOL   C12837474   6.778   6.460   0.165 -0.2730  0.2404 -0.7146
  264MOL   C12937475   6.657   6.517   0.241 -0.5170 -0.2292 -0.2349
  264MOL   O13037476   6.586   6.407   0.288 -0.0379  0.3278  0.1603
  264MOL   H13137477   6.756   6.364   0.119  1.7848 -0.3511 -0.5187
  264MOL   H13237478   6.854   6.431   0.238  0.9607 -2.9000 -3.1613
  264MOL   H13337479   6.597   6.574   0.171 -0.8823  0.8153  0.9152
  264MOL   H13437480   6.649   6.346   0.325 -0.7333 -0.2383  0.4242
  264MOL   C13537481   6.690   6.599   0.367  0.4994 -0.2365 -0.0725
  264MOL   C13637482   6.578   6.639   0.465 -0.1192  0.8255  0.5459
  264MOL   O13737483   6.637   6.693   0.583 -0.0596 -0.4825 -0.1087
  264MOL   H13837484   6.761   6.536   0.421 -1.2600 -2.5911 -0.4466
  264MOL   H13937485   6.740   6.690   0.334 -0.5349  0.5381  0.4499
  264MOL   H14037486   6.520   6.551   0.491 -0.0076  0.9530  1.2345
  264MOL   H14137487   6.571   6.747   0.624 -0.3267 -0.7001 -0.2504
  264MOL   H14237488   6.522   6.711   0.405 -1.6766 -1.3231 -0.6622
  265MOL     C137489   1.263   2.613   6.066 -0.1976  0.5724 -0.6320
  265MOL     C237490   1.376   2.697   5.999  0.5543  0.6279  0.2987
  265MOL     O337491   1.319   2.816   5.956  0.1612 -0.1847 -0.1483
  265MOL     H437492   1.296   2.550   6.149  2.4632  2.7481  0.0432
  265MOL     H537493   1.229   2.549   5.985 -1.0555  0.0353  0.1434
  265MOL     H637494   1.405   2.656   5.903  2.0079 -3.0217  2.1775
  265MOL     H737495   1.375   2.844   5.885  0.5228  0.0699  0.2323
  265MOL     H837496   1.181   2.677   6.099 -0.4669 -0.0424 -0.1067
  265MOL     C937497   1.501   2.702   6.084 -0.3205 -0.3911  0.1318
  265MOL    C1037498   1.618   2.781   6.022 -0.4032 -0.0766  0.3503
  265MOL    O1137499   1.707   2.817   6.130 -0.4676  0.5559  0.1998
  265MOL    H1237500   1.477   2.756   6.176  4.2382  2.3796 -0.2179
  265MOL    H1337501   1.531   2.601   6.114 -0.5984 -0.8141 -0.9720
  265MOL    H1437502   1.571   2.868   5.976  0.6121 -1.2463 -2.9716
  265MOL    H1537503   1.681   2.897   6.172  0.2733  0.4040  0.9561
  265MOL    C1637504   1.691   2.700   5.914  0.0367 -0.1307  0.1495
  265MOL    C1737505   1.781   2.786   5.824  0.8483  0.1216 -0.4310
  265MOL    O1837506   1.889   2.842   5.902  0.3068 -0.2650  0.3866
  265MOL    H1937507   1.748   2.622   5.964  1.2109  0.7293  0.1798
  265MOL    H2037508   1.616   2.651   5.852 -0.6028  0.1066  0.7323
  265MOL    H2137509   1.724   2.864   5.775 -0.1159  0.1247  0.6860
  265MOL    H2237510   1.843   2.888   5.971 -1.1312 -3.2052  1.4845
  265MOL    C2337511   1.830   2.699   5.711  0.4587 -0.0917  0.2647
  265MOL    C2437512   1.896   2.773   5.599 -0.7284 -0.5879  0.7629
  265MOL    O2537513   1.965   2.684   5.517 -0.0711 -0.3730 -0.7016
  265MOL    H2637514   1.896   2.629   5.763  1.8625 -0.8290 -2.3886
  265MOL    H2737515   1.758   2.629   5.668  1.3988 -1.5390  0.9990
  265MOL    H2837516   1.975   2.839   5.635 -1.0055  0.0931  0.1292
  265MOL    H2937517   2.046   2.728   5.497  0.4938  0.1475  2.4127
  265MOL    C3037518   1.782   2.832   5.514 -0.0029 -0.1568 -0.1992
  265MOL    C3137519   1.830   2.941   5.408  0.0401 -0.2915 -0.4001
  265MOL    O3237520   1.729   2.983   5.314  0.0564 -0.3152  0.5327
  265MOL    H3337521   1.725   2.758   5.458 -0.2987 -0.0442 -0.0495
  265MOL    H3437522   1.693   2.873   5.562 -0.4065 -0.0916 -0.9983
  265MOL    H3537523   1.908   2.900   5.344  0.3862 -0.2131 -0.0306
  265MOL    H3637524   1.769   3.042   5.252 -1.2725 -0.1073 -0.1219
  265MOL    C3737525   1.867   3.069   5.478 -0.0284 -0.3884 -0.3020
  265MOL    C3837526   1.969   3.170   5.419  0.0469 -0.5089  0.5278
  265MOL    O3937527   1.899   3.284   5.390  0.2628 -0.1092 -0.4441
  265MOL    H4037528   1.771   3.108   5.512 -0.1202  0.2731 -1.3222
  265MOL    H4137529   1.903   3.050   5.580  1.2592  0.5600 -0.5643
  265MOL    H4237530   2.018   3.144   5.325 -0.5891 -1.5453  0.4731
  265MOL    H4337531   1.877   3.291   5.298  0.1249  2.0772 -0.2640
  265MOL    C4437532   2.080   3.204   5.524  0.3250 -0.3880 -0.7704
  265MOL    C4537533   2.204   3.277   5.475 -0.3627 -0.2719 -0.6507
  265MOL    O4637534   2.270   3.190   5.387 -0.4698 -0.2588 -0.2741
  265MOL    H4737535   2.032   3.238   5.616  0.8791 -0.1341 -0.5725
  265MOL    H4837536   2.115   3.107   5.559  0.0188 -0.5710 -0.9673
  265MOL    H4937537   2.283   3.293   5.549  0.5533  2.6157 -2.1853
  265MOL    H5037538   2.353   3.219   5.353 -0.3093 -0.1757  0.1787
  265MOL    C5137539   2.176   3.415   5.413 -0.2287  0.6783 -0.3499
  265MOL    C5237540   2.091   3.520   5.487 -0.0522  0.6039  0.3206
  265MOL    O5337541   2.158   3.566   5.605 -0.1910  0.2204 -0.6631
  265MOL    H5437542   2.277   3.454   5.400  0.4847 -0.6222  1.0474
  265MOL    H5537543   2.123   3.393   5.320  0.7548 -1.7052 -0.3877
  265MOL    H5637544   1.995   3.480   5.518 -0.3742  0.4221 -0.8737
  265MOL    H5737545   2.208   3.644   5.586  0.9547 -0.6393 -1.3215
  265MOL    C5837546   2.082   3.661   5.416 -0.2199  0.3228 -0.2701
  265MOL    C5937547   1.995   3.674   5.297 -0.2171  0.8389  0.2567
  265MOL    O6037548   2.076   3.621   5.188  0.5162 -0.3309  0.1508
  265MOL    H6137549   2.034   3.724   5.491 -0.6603  0.0070 -0.2860
  265MOL    H6237550   2.183   3.698   5.398  0.3511 -1.4414 -0.7493
  265MOL    H6337551   1.973   3.781   5.297  0.0236  0.9260 -2.8997
  265MOL    H6437552   2.037   3.665   5.114 -1.8390 -0.3250  1.3576
  265MOL    C6537553   1.857   3.604   5.293 -0.5868 -0.1282 -0.2029
  265MOL    C6637554   1.771   3.626   5.420  0.3496 -0.0740 -0.8630
  265MOL    O6737555   1.748   3.761   5.440 -0.1759  0.0184  0.2381
  265MOL    H6837556   1.805   3.635   5.202 -0.0177  0.9008 -0.1801
  265MOL    H6937557   1.866   3.497   5.271 -0.6973 -0.0433 -0.6717
  265MOL    H7037558   1.828   3.605   5.510  1.2438  0.8748 -1.1993
  265MOL    H7137559   1.761   3.776   5.533  4.3723  3.6974 -0.8103
  265MOL    C7237560   1.625   3.567   5.416  0.3125  0.0408  0.2589
  265MOL    C7337561   1.612   3.410   5.411 -0.4186  0.5978  0.3078
  265MOL    O7437562   1.670   3.367   5.532  0.3928  0.2822  0.4049
  265MOL    H7537563   1.571   3.615   5.498 -0.3359  0.9275 -0.6685
  265MOL    H7637564   1.575   3.604   5.327  0.5563  1.5106  0.7271
  265MOL    H7737565   1.670   3.373   5.327  0.3750  3.0738 -0.2637
  265MOL    H7837566   1.751   3.326   5.505  1.4661  1.5893  1.6279
  265MOL    C7937567   1.471   3.357   5.407  0.2745  0.3685  0.5067
  265MOL    C8037568   1.404   3.351   5.273  0.0889 -0.4696  0.1593
  265MOL    O8137569   1.498   3.287   5.182  0.7523 -0.0858  0.0171
  265MOL    H8237570   1.471   3.260   5.458 -1.0255 -0.1046 -0.3630
  265MOL    H8337571   1.416   3.414   5.482  0.6766  2.1408 -0.5242
  265MOL    H8437572   1.392   3.456   5.246 -2.4090  0.0736  3.1876
  265MOL    H8537573   1.479   3.314   5.093  0.6731 -0.5759 -0.1185
  265MOL    C8637574   1.270   3.274   5.279  0.4453  0.5344  0.7741
  265MOL    C8737575   1.161   3.319   5.369  0.1637 -0.1805 -0.0718
  265MOL    O8837576   1.118   3.453   5.325 -0.8684  0.2893 -0.1923
  265MOL    H8937577   1.238   3.258   5.176  2.7362  0.0342  0.0960
  265MOL    H9037578   1.297   3.171   5.306  1.4169  0.1017 -1.6622
  265MOL    H9137579   1.200   3.320   5.471  0.6590 -0.5093 -0.2550
  265MOL    H9237580   1.136   3.514   5.395 -2.5906 -0.4946  0.9665
  265MOL    C9337581   1.032   3.225   5.373  0.2977 -0.5805  0.2254
  265MOL    C9437582   1.016   3.113   5.479 -0.0138  0.4738 -0.5952
  265MOL    O9537583   1.033   3.166   5.610 -0.3624 -0.4507  0.0467
  265MOL    H9637584   0.944   3.288   5.388  0.3802 -0.7177  1.3217
  265MOL    H9737585   1.020   3.181   5.274 -1.0953  1.4274 -0.5286
  265MOL    H9837586   1.092   3.038   5.461 -1.4952 -1.6536  1.7635
  265MOL    H9937587   1.073   3.100   5.664  2.5013 -0.1666 -1.6328
  265MOL   C10037588   0.887   3.041   5.461  0.4957  0.1650  0.0549
  265MOL   C10137589   0.861   2.945   5.346 -0.7190 -0.2632  0.0506
  265MOL   O10237590   0.966   2.852   5.331 -0.2808 -0.5146  0.5542
  265MOL   H10337591   0.883   2.993   5.558 -0.1004 -1.7385 -0.8929
  265MOL   H10437592   0.809   3.117   5.456 -0.0030 -0.4460 -1.7607
  265MOL   H10537593   0.863   3.009   5.258  1.7270  0.2287  0.4330
  265MOL   H10637594   0.997   2.852   5.242 -1.7131  2.5682  0.0105
  265MOL   C10737595   0.728   2.870   5.350  0.6675 -0.6945  1.2538
  265MOL   C10837596   0.602   2.963   5.330  0.0338  0.2860  0.5784
  265MOL   O10937597   0.566   2.983   5.192 -0.4905 -0.9093 -0.6899
  265MOL   H11037598   0.722   2.790   5.276 -0.6591 -1.3446  2.0499
  265MOL   H11137599   0.709   2.817   5.443  1.0454 -0.1250  1.6576
  265MOL   H11237600   0.624   3.059   5.379 -0.6352  0.9765 -0.4632
  265MOL   H11337601   0.582   3.073   5.168 -0.5417 -0.7720 -0.2176
  265MOL   C11437602   0.480   2.905   5.409 -0.1390 -0.2373  0.0560
  265MOL   C11537603   0.480   2.935   5.567 -0.0597 -0.6781 -0.3895
  265MOL   O11637604   0.462   3.072   5.579 -0.3015  0.1891  0.2834
  265MOL   H11737605   0.393   2.959   5.371 -0.0317  0.7600  1.2205
  265MOL   H11837606   0.467   2.800   5.383 -0.0648 -0.6311  1.5710
  265MOL   H11937607   0.577   2.916   5.615  0.2988  0.6525 -0.5692
  265MOL   H12037608   0.543   3.114   5.552 -2.7520  2.4297 -4.1937
  265MOL   C12137609   0.370   2.856   5.649 -0.1315  0.3497 -0.3683
  265MOL   C12237610   0.367   2.699   5.645 -0.4739 -0.3396 -0.0692
  265MOL   O12337611   0.497   2.660   5.659  1.4025 -0.4436  0.1659
  265MOL   H12437612   0.390   2.870   5.755  1.4260 -1.3206 -0.3970
  265MOL   H12537613   0.272   2.901   5.635  0.2213  1.1533 -0.2619
  265MOL   H12637614   0.335   2.666   5.546  1.5871 -0.6181 -0.6477
  265MOL   H12737615   0.483   2.570   5.683 -0.1205 -1.0375 -2.7728
  265MOL   C12837616   0.267   2.648   5.749 -0.6897 -0.3367  0.1346
  265MOL   C12937617   0.226   2.502   5.729  0.3979 -0.6941  0.6507
  265MOL   O13037618   0.330   2.410   5.723  0.2710 -0.4443 -0.7371
  265MOL   H13137619   0.309   2.661   5.849 -1.1852 -3.5924  0.8137
  265MOL   H13237620   0.182   2.715   5.763 -0.2183  1.1075 -3.4277
  265MOL   H13337621   0.162   2.485   5.642  0.8966 -2.0182  0.5306
  265MOL   H13437622   0.298   2.329   5.686  1.6117 -0.7382 -1.3021
  265MOL   C13537623   0.132   2.451   5.837 -0.3722  0.0510  0.1166
  265MOL   C13637624   0.083   2.305   5.821 -1.1320  0.1485  0.6550
  265MOL   O13737625   7.485   2.285   5.894  0.5693 -0.0620  0.7186
  265MOL   H13837626   0.178   2.449   5.936  0.3145 -0.0210 -0.1944
  265MOL   H13937627   0.053   2.526   5.840  0.6175  1.0626  1.8742
  265MOL   H14037628   0.163   2.243   5.862  1.2823  1.2270 -2.2181
  265MOL   H14137629   7.480   2.192   5.913  1.0658  0.1375  1.8190
  265MOL   H14237630   0.071   2.283   5.715 -2.3329 -0.6145  0.9385
  266MOL     C137631   6.568   5.318   3.318 -0.0484 -0.3894  0.2997
  266MOL     C237632   6.536   5.176   3.338 -0.2682 -0.3989 -0.1500
  266MOL     O337633   6.443   5.156   3.440  0.9832 -0.0193  0.0701
  266MOL     H437634   6.480   5.381   3.308  1.1903  1.3101 -0.1878
  266MOL     H537635   6.625   5.337   3.227 -1.3603  0.1611 -0.4167
  266MOL     H637636   6.623   5.116   3.365 -2.7424 -2.7815  2.7776
  266MOL     H737637   6.495   5.168   3.518  0.8656 -0.5404  0.2367
  266MOL     H837638   6.637   5.358   3.393 -0.7491  0.7376  0.3514
  266MOL     C937639   6.479   5.109   3.213 -0.3112  0.0693 -0.0760
  266MOL    C1037640   6.558   5.110   3.074 -0.0220  0.5013 -0.2881
  266MOL    O1137641   6.689   5.072   3.090 -0.0914 -0.0329 -0.2584
  266MOL    H1237642   6.451   5.007   3.236  1.6661  0.5274  4.8919
  266MOL    H1337643   6.392   5.173   3.196 -0.2966  0.8284  2.4911
  266MOL    H1437644   6.568   5.205   3.022  0.3105  0.2671 -0.6541
  266MOL    H1537645   6.743   5.128   3.035 -0.9185 -0.7139 -1.7902
  266MOL    C1637646   6.502   5.003   2.970  0.5705  0.1376 -0.3737
  266MOL    C1737647   6.369   5.043   2.901 -0.5791  0.2357 -0.3848
  266MOL    O1837648   6.374   5.159   2.821 -0.5550  0.0313  0.0292
  266MOL    H1937649   6.571   4.992   2.887  1.4089 -1.2799  0.4832
  266MOL    H2037650   6.490   4.903   3.011  0.0917 -0.2185 -1.3811
  266MOL    H2137651   6.294   5.062   2.978  0.8418  0.8145  0.8769
  266MOL    H2237652   6.364   5.230   2.883 -0.7720 -1.9287  2.2995
  266MOL    C2337653   6.322   4.926   2.812 -0.0301 -0.7479  0.0703
  266MOL    C2437654   6.205   4.957   2.721  1.0268  0.3458 -0.2564
  266MOL    O2537655   6.205   4.842   2.643  0.2028  0.0415 -0.3157
  266MOL    H2637656   6.407   4.889   2.754 -0.8452  0.0117 -1.6244
  266MOL    H2737657   6.287   4.846   2.878 -1.4363 -0.7467 -0.6679
  266MOL    H2837658   6.220   5.042   2.654  3.2362  0.8146  0.7816
  266MOL    H2937659   6.130   4.851   2.585 -0.2252 -0.9035  0.0812
  266MOL    C3037660   6.067   4.979   2.787 -0.0372 -0.1274  0.1217
  266MOL    C3137661   5.954   5.026   2.699 -0.1582 -0.5589  1.3189
  266MOL    O3237662   5.951   4.940   2.587 -0.2289 -0.0918 -0.1752
  266MOL    H3337663   6.025   4.896   2.845 -2.6723  1.4703  0.5713
  266MOL    H3437664   6.082   5.060   2.858  1.6135 -2.0984  2.0956
  266MOL    H3537665   5.986   5.123   2.662  0.6242 -0.6130  1.8341
  266MOL    H3637666   5.892   4.872   2.616  0.8859 -0.4907  1.2361
  266MOL    C3737667   5.818   5.032   2.763 -0.0154 -0.2792 -0.5613
  266MOL    C3837668   5.817   5.103   2.901 -0.3737 -0.5727 -0.5192
  266MOL    O3937669   5.850   5.236   2.890 -0.3645 -0.3115  0.0311
  266MOL    H4037670   5.751   5.070   2.686  0.2154 -1.1468 -1.1916
  266MOL    H4137671   5.777   4.932   2.779 -1.0902  0.5441  2.3114
  266MOL    H4237672   5.888   5.051   2.967  0.7071  0.6474 -0.7033
  266MOL    H4337673   5.798   5.272   2.960 -1.4134 -0.3012 -0.7461
  266MOL    C4437674   5.678   5.111   2.958  0.1591 -0.0657  0.2703
  266MOL    C4537675   5.670   5.130   3.107 -0.2883  0.3596 -0.5515
  266MOL    O4637676   5.751   5.235   3.152  0.6255  1.0388 -0.1694
  266MOL    H4737677   5.621   5.190   2.908  2.1064  1.5203  0.4841
  266MOL    H4837678   5.633   5.015   2.933  1.7924 -0.9914  0.8226
  266MOL    H4937679   5.711   5.041   3.154 -1.9471  0.1456  0.5322
  266MOL    H5037680   5.759   5.205   3.241 -0.6090 -2.2090 -1.0675
  266MOL    C5137681   5.524   5.137   3.165 -0.3141  0.5810 -0.0311
  266MOL    C5237682   5.521   5.110   3.315  0.5907 -0.7426 -0.0504
  266MOL    O5337683   5.564   5.231   3.376  0.5733 -0.4397 -0.5296
  266MOL    H5437684   5.486   5.234   3.134  2.5340  1.1931 -1.8321
  266MOL    H5537685   5.464   5.069   3.105 -2.7369  2.6553 -0.0402
  266MOL    H5637686   5.576   5.024   3.352  1.2966 -0.0421  0.5299
  266MOL    H5737687   5.555   5.223   3.470 -0.5951 -1.1659 -0.6920
  266MOL    C5837688   5.386   5.109   3.376  0.1058  0.2756  0.4455
  266MOL    C5937689   5.296   4.990   3.346  0.0301  0.1500 -0.1589
  266MOL    O6037690   5.369   4.872   3.337  0.0614 -0.2830  0.5126
  266MOL    H6137691   5.396   5.113   3.485  0.4921 -1.7798  0.4941
  266MOL    H6237692   5.326   5.196   3.350 -1.9679 -0.3718  2.8516
  266MOL    H6337693   5.252   5.011   3.248  3.1519  0.3059 -1.5680
  266MOL    H6437694   5.316   4.799   3.309  2.0588 -1.3663 -0.5767
  266MOL    C6537695   5.174   4.982   3.448 -0.3064 -0.2737 -0.4085
  266MOL    C6637696   5.046   4.936   3.376 -0.1709  0.3493 -0.3839
  266MOL    O6737697   4.979   4.891   3.491 -0.0709  0.3854  0.3969
  266MOL    H6837698   5.215   4.911   3.520  0.1142 -0.9456 -1.3056
  266MOL    H6937699   5.153   5.076   3.500  2.7795  0.3773 -0.2096
  266MOL    H7037700   5.063   4.853   3.308  1.4382  1.1922 -1.0233
  266MOL    H7137701   4.930   4.816   3.459 -0.1949  0.8124 -0.4098
  266MOL    C7237702   4.967   5.033   3.289  0.2533 -0.3149  0.5638
  266MOL    C7337703   4.828   4.979   3.241 -0.0959 -0.2748  0.0218
  266MOL    O7437704   4.758   5.090   3.189 -0.1002 -0.8527  0.2378
  266MOL    H7537705   4.947   5.122   3.349  1.4473  0.5142 -0.2475
  266MOL    H7637706   5.029   5.065   3.206 -0.7710 -1.0968 -0.5220
  266MOL    H7737707   4.761   4.936   3.315  1.0120  0.1718  1.2873
  266MOL    H7837708   4.708   5.062   3.114 -0.7405  0.5251  0.1458
  266MOL    C7937709   4.836   4.892   3.109 -0.7153  0.4943 -0.1203
  266MOL    C8037710   4.704   4.821   3.067 -0.5430 -0.8142 -0.1505
  266MOL    O8137711   4.618   4.923   3.008 -0.5128 -0.2693  0.0133
  266MOL    H8237712   4.890   4.938   3.027 -0.7831 -1.9564 -1.5865
  266MOL    H8337713   4.910   4.811   3.113  0.9477  1.9298 -1.0398
  266MOL    H8437714   4.665   4.775   3.158 -1.0623 -1.8426 -0.8860
  266MOL    H8537715   4.546   4.874   2.972  0.1981 -0.5960 -0.9998
  266MOL    C8637716   4.722   4.729   2.941  0.1171  0.7653 -0.1997
  266MOL    C8737717   4.813   4.612   2.962 -0.2312 -0.3797 -0.2118
  266MOL    O8837718   4.770   4.532   3.068  0.0681  0.1629  0.8022
  266MOL    H8937719   4.627   4.690   2.904  1.0713 -0.6829 -1.1828
  266MOL    H9037720   4.763   4.788   2.859  0.4970  1.1387  0.2621
  266MOL    H9137721   4.918   4.635   2.975  0.1370 -1.9398 -0.3221
  266MOL    H9237722   4.677   4.522   3.053  0.6755 -1.8709 -2.1049
  266MOL    C9337723   4.821   4.517   2.843 -0.1578 -0.1439 -0.3044
  266MOL    C9437724   4.875   4.569   2.706 -0.0608  0.1003  0.1446
  266MOL    O9537725   4.777   4.646   2.643  0.4754  1.0706 -0.9209
  266MOL    H9637726   4.884   4.435   2.876 -0.1898 -0.4041 -0.8891
  266MOL    H9737727   4.723   4.475   2.820 -0.1683  1.4867 -3.5040
  266MOL    H9837728   4.889   4.484   2.638  2.9855  0.7201 -0.0919
  266MOL    H9937729   4.704   4.591   2.620  1.8840 -0.9544 -0.7380
  266MOL   C10037730   5.007   4.642   2.712  0.4774 -0.7288 -0.2336
  266MOL   C10137731   5.114   4.558   2.796 -0.0232  0.6176  0.8514
  266MOL   O10237732   5.154   4.448   2.713 -0.0218  0.6869  0.4530
  266MOL   H10337733   5.045   4.677   2.616  1.9094 -1.3681  0.0899
  266MOL   H10437734   4.989   4.740   2.756  0.2705 -0.6416 -0.5099
  266MOL   H10537735   5.067   4.517   2.885 -0.8133  1.3160  0.7577
  266MOL   H10637736   5.082   4.391   2.689  1.0837  0.4678 -2.5269
  266MOL   C10737737   5.241   4.635   2.828  0.0178  0.1983 -0.0194
  266MOL   C10837738   5.229   4.759   2.924 -0.2943  0.1549  0.1872
  266MOL   O10937739   5.253   4.722   3.063 -0.5836 -0.1104  0.6451
  266MOL   H11037740   5.316   4.561   2.857  0.2669  1.2184  1.9747
  266MOL   H11137741   5.274   4.676   2.732 -1.6694  1.7025  0.0270
  266MOL   H11237742   5.129   4.803   2.929  0.4426  2.0138 -0.8285
  266MOL   H11337743   5.346   4.715   3.074 -0.0447  1.5483 -2.2668
  266MOL   C11437744   5.327   4.873   2.891 -0.3806 -0.5132 -0.3708
  266MOL   C11537745   5.305   4.940   2.754  0.1387 -0.0194 -0.8118
  266MOL   O11637746   5.204   5.037   2.782  0.1621 -0.0600  0.1905
  266MOL   H11737747   5.319   4.950   2.968 -0.1948  1.9182 -2.7110
  266MOL   H11837748   5.432   4.844   2.898 -0.6400 -2.1968 -2.6130
  266MOL   H11937749   5.274   4.871   2.676  2.8082 -0.5282 -1.4493
  266MOL   H12037750   5.215   5.095   2.856  0.0808  1.4927 -0.9797
  266MOL   C12137751   5.434   5.024   2.714  0.4944  1.0709 -0.3035
  266MOL   C12237752   5.450   5.059   2.563 -0.5487 -0.0607 -0.7840
  266MOL   O12337753   5.494   4.939   2.500  0.1367  0.2169  0.6327
  266MOL   H12437754   5.442   5.108   2.783 -0.8427  0.5272  0.5436
  266MOL   H12537755   5.519   4.964   2.744 -0.8968 -0.6709  0.2538
  266MOL   H12637756   5.537   5.124   2.560 -2.0177  1.8955 -1.2768
  266MOL   H12737757   5.547   4.893   2.563 -0.4883 -3.5679 -1.4580
  266MOL   C12837758   5.321   5.119   2.496 -0.1679 -0.4390 -0.0012
  266MOL   C12937759   5.347   5.192   2.368 -0.3399 -0.0355 -0.0143
  266MOL   O13037760   5.223   5.201   2.298 -0.3631 -0.2276  0.7723
  266MOL   H13137761   5.246   5.039   2.493  0.5481 -1.1276  0.3364
  266MOL   H13237762   5.281   5.186   2.571 -0.7641 -1.0955  0.2766
  266MOL   H13337763   5.426   5.138   2.316 -0.0535 -1.8739  2.2296
  266MOL   H13437764   5.154   5.222   2.359 -2.1183 -0.3483 -1.1240
  266MOL   C13537765   5.399   5.328   2.403  0.7598  0.3910  0.1283
  266MOL   C13637766   5.442   5.404   2.278  0.2309  0.1683  0.2268
  266MOL   O13737767   5.499   5.529   2.307  0.1861 -0.2049  0.5479
  266MOL   H13837768   5.329   5.391   2.457 -1.7022 -2.4730  0.4207
  266MOL   H13937769   5.480   5.317   2.474  1.1278 -0.2123 -0.3729
  266MOL   H14037770   5.357   5.424   2.213  0.4433 -2.5933 -0.9749
  266MOL   H14137771   5.443   5.603   2.286  0.1737 -0.2240  0.5144
  266MOL   H14237772   5.515   5.346   2.222  3.6123  1.8901  2.7188
  267MOL     C137773   5.400   6.970   7.131  0.0019  0.5517  0.5501
  267MOL     C237774   5.524   6.941   7.045 -0.1219 -0.1552 -0.0793
  267MOL     O337775   5.566   6.805   7.069 -0.2762  0.0560  0.5496
  267MOL     H437776   5.362   7.061   7.083  0.0575  0.3693  0.1593
  267MOL     H537777   5.417   6.993   7.236 -1.2719  0.4542  0.7810
  267MOL     H637778   5.589   7.019   7.083 -0.2888  0.4519 -1.0155
  267MOL     H737779   5.485   6.758   7.063 -0.3407 -0.2432  3.2364
  267MOL     H837780   5.325   6.893   7.114  1.8542 -1.1165 -0.2803
  267MOL     C937781   5.494   6.968   6.894 -0.0236  0.0713 -0.5234
  267MOL    C1037782   5.612   6.954   6.792 -0.3364 -0.4228 -1.0286
  267MOL    O1137783   5.562   6.971   6.660  0.0184 -0.3770 -0.4052
  267MOL    H1237784   5.410   6.913   6.851 -0.3329  1.0398 -1.1838
  267MOL    H1337785   5.453   7.068   6.878  0.2454 -0.0720 -2.2567
  267MOL    H1437786   5.645   6.850   6.794  4.4018  0.9465 -1.6346
  267MOL    H1537787   5.535   6.886   6.629  4.8460 -1.4818 -1.9565
  267MOL    C1637788   5.723   7.052   6.821 -0.0293 -0.2806  0.5004
  267MOL    C1737789   5.866   7.021   6.766  0.1516  0.3886  0.2485
  267MOL    O1837790   5.948   7.133   6.776 -0.3339  0.3900  0.1315
  267MOL    H1937791   5.686   7.151   6.795 -1.0181 -1.0326 -0.9979
  267MOL    H2037792   5.738   7.068   6.928  1.2719  0.3739  0.2349
  267MOL    H2137793   5.848   6.989   6.664  1.4929  0.1217  0.0872
  267MOL    H2237794   5.931   7.181   6.855 -0.5822  0.3249  0.1170
  267MOL    C2337795   5.939   6.901   6.827  0.2043  1.2410 -0.4867
  267MOL    C2437796   6.050   6.833   6.745 -0.2287 -0.2423  0.5318
  267MOL    O2537797   6.069   6.714   6.814 -0.9134 -0.3851  0.8157
  267MOL    H2637798   5.981   6.930   6.924  0.0376  1.0311 -0.3500
  267MOL    H2737799   5.864   6.828   6.858 -1.6379  1.8359 -3.3907
  267MOL    H2837800   6.140   6.894   6.743  1.4121 -2.5867  0.6652
  267MOL    H2937801   6.157   6.726   6.847 -0.3006 -1.5617 -0.3394
  267MOL    C3037802   6.019   6.778   6.603 -0.0946  0.0747  0.0951
  267MOL    C3137803   6.056   6.884   6.494  0.2056  0.3581 -0.5088
  267MOL    O3237804   6.198   6.878   6.475 -0.1041  0.1678  0.2384
  267MOL    H3337805   6.068   6.684   6.579 -0.5623 -0.1202 -0.1038
  267MOL    H3437806   5.914   6.751   6.594 -0.4377  1.1369  0.8074
  267MOL    H3537807   6.030   6.985   6.524 -2.2349 -0.5242  0.4236
  267MOL    H3637808   6.214   6.960   6.430 -2.1449 -0.9080 -2.5647
  267MOL    C3737809   5.997   6.858   6.355  0.2304 -0.3785 -0.1542
  267MOL    C3837810   5.865   6.935   6.325  0.2621 -0.3993  0.9605
  267MOL    O3937811   5.892   7.074   6.329  0.0758 -0.4646  0.1794
  267MOL    H4037812   6.072   6.878   6.279 -1.5925  3.6875 -1.0216
  267MOL    H4137813   5.991   6.749   6.348  3.1462 -0.4734 -2.0782
  267MOL    H4237814   5.782   6.918   6.394 -0.6507  1.1553  0.2515
  267MOL    H4337815   5.812   7.120   6.348 -1.0967 -2.1329 -0.6350
  267MOL    C4437816   5.803   6.897   6.187 -0.6616 -0.4308  0.2839
  267MOL    C4537817   5.695   6.786   6.191  0.0692  0.4584 -0.6128
  267MOL    O4637818   5.745   6.672   6.255  0.2727 -0.6959  0.2081
  267MOL    H4737819   5.761   6.987   6.143 -1.2130 -0.5970  0.4642
  267MOL    H4837820   5.886   6.871   6.121 -1.2161  2.0922 -1.4858
  267MOL    H4937821   5.659   6.753   6.093 -0.2537  1.0358 -0.6947
  267MOL    H5037822   5.761   6.606   6.190  0.5633  0.0268 -0.4615
  267MOL    C5137823   5.561   6.816   6.251  0.6071 -0.9016  0.4820
  267MOL    C5237824   5.491   6.943   6.190  0.2386 -0.2529 -0.0489
  267MOL    O5337825   5.416   6.925   6.070 -0.2122  0.3557 -0.4708
  267MOL    H5437826   5.501   6.727   6.230 -0.5921  0.1475 -0.6916
  267MOL    H5537827   5.570   6.830   6.358 -1.4308  1.9883  0.3368
  267MOL    H5637828   5.568   7.019   6.179 -0.1516  0.1974  0.3055
  267MOL    H5737829   5.475   6.935   5.997  0.5594 -1.1429 -0.0740
  267MOL    C5837830   5.396   6.995   6.298  0.3919  0.1645  0.1536
  267MOL    C5937831   5.339   7.138   6.263 -0.1828  0.3182 -0.7576
  267MOL    O6037832   5.242   7.135   6.152 -0.1440  0.5036  0.1018
  267MOL    H6137833   5.317   6.923   6.321 -1.1414  2.8136  3.4864
  267MOL    H6237834   5.463   6.999   6.383 -0.2895 -0.6238  0.7377
  267MOL    H6337835   5.424   7.196   6.229  1.2021 -1.6522 -0.7854
  267MOL    H6437836   5.286   7.108   6.073  1.4226  3.6888 -0.2113
  267MOL    C6537837   5.264   7.225   6.365  0.8141 -0.4405  0.2579
  267MOL    C6637838   5.287   7.201   6.519 -0.2418 -0.5273 -0.6115
  267MOL    O6737839   5.426   7.189   6.552  0.3071 -0.6305  0.4965
  267MOL    H6837840   5.304   7.325   6.349 -2.0556  1.0057  1.7062
  267MOL    H6937841   5.157   7.225   6.346  1.0596 -1.2514 -1.2589
  267MOL    H7037842   5.239   7.105   6.541 -2.6050  0.7365 -0.1078
  267MOL    H7137843   5.436   7.113   6.607 -0.1627 -0.8035  0.3436
  267MOL    C7237844   5.217   7.312   6.598  0.2037  0.0464 -0.4826
  267MOL    C7337845   5.193   7.290   6.748  0.1366  0.1992 -0.5605
  267MOL    O7437846   5.164   7.408   6.807  0.5032  0.0289 -0.4321
  267MOL    H7537847   5.272   7.406   6.587 -0.2458  0.3510 -0.1534
  267MOL    H7637848   5.114   7.336   6.568 -0.3134  1.2664  2.1432
  267MOL    H7737849   5.294   7.270   6.784 -0.9515 -0.4445  2.2428
  267MOL    H7837850   5.098   7.394   6.873 -0.7359  2.5761 -1.0637
  267MOL    C7937851   5.101   7.174   6.798 -0.4605  0.0468 -0.1366
  267MOL    C8037852   5.078   7.165   6.951  0.3985  0.0015  0.7658
  267MOL    O8137853   5.029   7.290   6.992 -0.1459 -0.1770  0.5510
  267MOL    H8237854   5.002   7.186   6.754 -1.5003  0.1157  2.1756
  267MOL    H8337855   5.141   7.081   6.757  1.1384  0.2319  0.9674
  267MOL    H8437856   5.173   7.134   6.996 -0.2260 -2.1717  0.6674
  267MOL    H8537857   4.988   7.290   7.077 -1.4246 -1.6951 -0.0229
  267MOL    C8637858   4.964   7.064   6.993 -0.3682  0.0181 -0.3012
  267MOL    C8737859   5.006   6.919   7.029  0.4735 -0.0423 -0.1616
  267MOL    O8837860   5.063   6.932   7.158  0.1337  0.0260 -0.3326
  267MOL    H8937861   4.907   7.106   7.076  0.4348  0.0054  0.2606
  267MOL    H9037862   4.895   7.047   6.910  0.4565 -0.8691 -0.8132
  267MOL    H9137863   5.083   6.878   6.963  0.3801 -0.2536 -0.1394
  267MOL    H9237864   4.996   6.957   7.220  0.2993 -3.4459  1.4042
  267MOL    C9337865   4.891   6.816   7.050  0.5494  0.2180  0.6324
  267MOL    C9437866   4.826   6.755   6.915  0.0394 -0.4990 -0.0718
  267MOL    O9537867   4.919   6.664   6.860 -0.3259  0.2159 -0.0377
  267MOL    H9637868   4.929   6.725   7.098  2.4346  0.3261 -0.5824
  267MOL    H9737869   4.818   6.852   7.123 -1.4051 -0.9363 -0.7047
  267MOL    H9837870   4.801   6.840   6.851  0.1017  0.4569  1.1582
  267MOL    H9937871   4.917   6.593   6.922 -2.0560  0.4840  0.2445
  267MOL   C10037872   4.696   6.683   6.930  0.2108 -0.8130 -0.7281
  267MOL   C10137873   4.630   6.615   6.809 -0.7530  0.1077  0.0732
  267MOL   O10237874   4.499   6.567   6.841  0.1200 -0.5168 -0.4927
  267MOL   H10337875   4.697   6.619   7.018 -1.4175 -0.7174 -0.6336
  267MOL   H10437876   4.637   6.766   6.968  1.5724 -0.2440  0.1753
  267MOL   H10537877   4.693   6.529   6.786  0.1444  1.6604 -3.6272
  267MOL   H10637878   4.445   6.643   6.853 -0.1845 -0.8712  0.4195
  267MOL   C10737879   4.636   6.702   6.673  0.2883  0.0357 -0.2278
  267MOL   C10837880   4.574   6.632   6.555  0.5315 -0.0913 -0.1594
  267MOL   O10937881   4.555   6.729   6.450 -0.9470  0.1675  0.3884
  267MOL   H11037882   4.590   6.800   6.689  1.1280  0.1600  1.6588
  267MOL   H11137883   4.738   6.729   6.645  0.3525  0.8138  0.7267
  267MOL   H11237884   4.473   6.602   6.583  0.4763 -0.0400 -0.3006
  267MOL   H11337885   4.639   6.774   6.449 -0.4101 -0.8113  0.7532
  267MOL   C11437886   4.661   6.523   6.484  0.4424 -0.2504  0.0927
  267MOL   C11537887   4.581   6.417   6.403  0.1239  0.4259 -0.6760
  267MOL   O11637888   4.481   6.485   6.329  0.3478  0.5173 -0.0545
  267MOL   H11737889   4.737   6.578   6.428 -1.3168  1.8186 -0.3064
  267MOL   H11837890   4.732   6.470   6.548  0.5699  0.2051  0.3319
  267MOL   H11937891   4.544   6.339   6.469 -1.5750  1.1795 -0.7400
  267MOL   H12037892   4.470   6.571   6.366  0.4759  0.0180  1.1809
  267MOL   C12137893   4.671   6.333   6.309  0.7440 -0.2485 -0.6996
  267MOL   C12237894   4.609   6.194   6.268 -0.8877  0.5378 -0.0463
  267MOL   O12337895   4.477   6.218   6.218  0.0525  0.0105 -0.1083
  267MOL   H12437896   4.706   6.397   6.228  0.3722  1.7703  0.6970
  267MOL   H12537897   4.761   6.313   6.368  0.1094 -0.4011  0.2318
  267MOL   H12637898   4.598   6.131   6.356 -0.5978 -0.5281 -0.7645
  267MOL   H12737899   4.460   6.305   6.251 -0.4772 -1.1859  2.8505
  267MOL   C12837900   4.696   6.125   6.153 -0.1194 -0.4084  1.2731
  267MOL   C12937901   4.657   5.987   6.102 -0.2118 -0.1727  0.0253
  267MOL   O13037902   4.741   5.949   5.991  0.7180 -0.2022  0.0424
  267MOL   H13137903   4.691   6.192   6.067  0.3874  0.0878  1.6228
  267MOL   H13237904   4.800   6.121   6.185 -0.3614 -0.4123  2.0712
  267MOL   H13337905   4.555   5.976   6.066  0.0932 -2.0710 -0.3303
  267MOL   H13437906   4.831   5.967   6.016  0.9922 -1.7564  0.1891
  267MOL   C13537907   4.684   5.880   6.209 -0.4222  0.4158 -0.6155
  267MOL   C13637908   4.616   5.745   6.183  0.2947  0.5096  0.6006
  267MOL   O13737909   4.642   5.660   6.292  0.1027  0.2580  0.1016
  267MOL   H13837910   4.791   5.867   6.226 -0.6694  0.7437  1.3421
  267MOL   H13937911   4.642   5.902   6.307  0.2013 -0.0465 -0.2411
  267MOL   H14037912   4.644   5.690   6.093 -1.1625  0.8490 -0.0724
  267MOL   H14137913   4.729   5.626   6.282  1.0467  1.5715  3.3942
  267MOL   H14237914   4.509   5.762   6.172  0.1016 -1.6514 -1.2744
  268MOL     C137915   6.585   3.475   5.365  0.0565 -0.0965 -0.2949
  268MOL     C237916   6.501   3.484   5.487  0.2801  0.3896 -0.1663
  268MOL     O337917   6.467   3.359   5.545 -0.2694 -0.3273 -0.0232
  268MOL     H437918   6.542   3.396   5.303  0.5166  0.0185 -0.7718
  268MOL     H537919   6.683   3.438   5.394  0.5260  1.5692  0.2382
  268MOL     H637920   6.408   3.540   5.473 -0.0468 -0.1560 -0.1903
  268MOL     H737921   6.384   3.360   5.589  0.2939 -3.9566  1.2828
  268MOL     H837922   6.599   3.570   5.314 -0.5114  0.8404  1.2793
  268MOL     C937923   6.572   3.552   5.608  0.0007  0.2328 -0.7873
  268MOL    C1037924   6.608   3.708   5.586  0.2190 -0.2291 -0.4928
  268MOL    O1137925   6.531   3.795   5.674 -0.3352  0.6140  0.0796
  268MOL    H1237926   6.535   3.538   5.709 -1.0222 -0.4840 -1.2534
  268MOL    H1337927   6.670   3.504   5.601 -1.0461 -2.1678  0.5362
  268MOL    H1437928   6.571   3.734   5.487 -2.2312 -1.0221  0.1903
  268MOL    H1537929   6.590   3.864   5.700  1.8031 -1.4910  1.0773
  268MOL    C1637930   6.760   3.745   5.592  0.3611  0.4879  0.6805
  268MOL    C1737931   6.857   3.679   5.492  0.4835  0.6459 -0.0945
  268MOL    O1837932   6.805   3.703   5.360 -0.1756  0.2400 -0.0096
  268MOL    H1937933   6.762   3.852   5.571  1.8960  0.1130 -1.1845
  268MOL    H2037934   6.795   3.731   5.694  0.0382 -1.3367  0.5582
  268MOL    H2137935   6.860   3.572   5.511 -1.1486  0.4204 -0.9470
  268MOL    H2237936   6.855   3.652   5.299  2.6014  1.5395  1.0990
  268MOL    C2337937   7.000   3.733   5.487  0.4525 -0.0115 -0.1105
  268MOL    C2437938   7.082   3.731   5.616 -0.0620  0.0995 -0.6334
  268MOL    O2537939   7.213   3.703   5.593  0.1000 -0.0830 -0.1870
  268MOL    H2637940   7.056   3.683   5.408 -0.4782 -2.3312  0.6386
  268MOL    H2737941   6.995   3.839   5.462 -0.0394 -0.2092 -0.8667
  268MOL    H2837942   7.048   3.648   5.679 -0.6554 -1.5790 -3.0981
  268MOL    H2937943   7.222   3.614   5.563 -2.8644 -0.0825 -1.2225
  268MOL    C3037944   7.071   3.870   5.689 -0.1825 -0.0281  0.4088
  268MOL    C3137945   7.140   3.886   5.829  0.2478 -0.6192 -0.1196
  268MOL    O3237946   7.141   4.021   5.873 -0.0243  0.6295  0.2169
  268MOL    H3337947   7.095   3.956   5.626 -0.3016  0.5393  1.1266
  268MOL    H3437948   6.968   3.882   5.721 -1.2646 -3.5065 -1.6171
  268MOL    H3537949   7.246   3.860   5.818  0.1679 -1.1944  0.4346
  268MOL    H3637950   7.146   4.010   5.966 -0.5450  0.2016  0.2023
  268MOL    C3737951   7.092   3.791   5.942  0.6335  0.1665 -0.2002
  268MOL    C3837952   7.176   3.793   6.080 -0.1303 -0.5506  0.7597
  268MOL    O3937953   7.179   3.925   6.124 -0.2978  0.3873  0.0317
  268MOL    H4037954   6.992   3.813   5.977  0.8799 -0.7353  1.1096
  268MOL    H4137955   7.087   3.686   5.912 -0.8466 -0.1495  1.0779
  268MOL    H4237956   7.279   3.762   6.064  0.1029  0.0924  1.0048
  268MOL    H4337957   7.246   3.938   6.189 -1.7581  1.0100  1.4416
  268MOL    C4437958   7.114   3.701   6.189  0.1924  0.3811  0.1985
  268MOL    C4537959   7.088   3.554   6.147  0.5141 -0.0163  0.2302
  268MOL    O4637960   7.203   3.505   6.079  0.3830  0.1933  0.5448
  268MOL    H4737961   7.179   3.692   6.275  0.8707  1.7417 -0.1666
  268MOL    H4837962   7.029   3.754   6.232 -0.4932 -0.0920 -0.5527
  268MOL    H4937963   7.000   3.539   6.084 -0.3064  0.0646  1.3358
  268MOL    H5037964   7.175   3.416   6.063 -3.1101  0.6875  3.4228
  268MOL    C5137965   7.068   3.466   6.279 -0.6266 -0.6219  0.4890
  268MOL    C5237966   6.994   3.330   6.242 -0.0826 -0.5137 -0.0876
  268MOL    O5337967   7.070   3.244   6.168 -0.6078 -0.1866 -0.3002
  268MOL    H5437968   7.161   3.453   6.335  1.9544 -0.6496 -3.5757
  268MOL    H5537969   7.007   3.527   6.345  1.5535  1.0898  0.9896
  268MOL    H5637970   6.898   3.356   6.197 -1.0159 -0.8963  1.6349
  268MOL    H5737971   7.125   3.202   6.233 -0.7197 -2.1198 -1.4086
  268MOL    C5837972   6.944   3.249   6.372  0.0153  0.0761  0.0925
  268MOL    C5937973   6.853   3.127   6.368  0.4536 -0.8768  0.0174
  268MOL    O6037974   6.841   3.096   6.503 -0.0140 -0.2535 -0.2969
  268MOL    H6137975   7.020   3.231   6.448  1.4066  3.5581 -0.3828
  268MOL    H6237976   6.888   3.324   6.427 -0.2788  0.2510 -0.4434
  268MOL    H6337977   6.910   3.041   6.334  0.4085 -0.4358 -1.2221
  268MOL    H6437978   6.895   3.019   6.515 -0.8669 -0.3884  3.1976
  268MOL    C6537979   6.724   3.153   6.296 -0.1003  0.4651 -0.8003
  268MOL    C6637980   6.691   3.042   6.190 -0.1380 -0.9327  0.5792
  268MOL    O6737981   6.553   3.063   6.145  0.0254  0.3883 -0.8748
  268MOL    H6837982   6.649   3.136   6.373 -0.2161 -1.6401 -1.3317
  268MOL    H6937983   6.714   3.255   6.260 -2.3523  0.3201 -0.6662
  268MOL    H7037984   6.695   2.944   6.237 -1.3457 -1.0993  0.3444
  268MOL    H7137985   6.557   3.113   6.065 -1.6827  1.1797 -0.4866
  268MOL    C7237986   6.791   3.035   6.067  0.8314  0.6179  0.0812
  268MOL    C7337987   6.844   2.892   6.043 -0.8224  0.4654  0.5749
  268MOL    O7437988   6.922   2.888   5.925 -0.4971 -0.3823 -0.4750
  268MOL    H7537989   6.745   3.094   5.988  0.6575 -0.3077 -0.5058
  268MOL    H7637990   6.875   3.097   6.099 -0.0781  0.0660  3.7720
  268MOL    H7737991   6.762   2.824   6.020 -0.7598  0.3391  0.7178
  268MOL    H7837992   6.980   2.961   5.913  0.2294 -0.9389 -0.3521
  268MOL    C7937993   6.930   2.840   6.154  0.1238  0.2030  0.1147
  268MOL    C8037994   6.952   2.693   6.156 -0.5016  0.5104  0.3190
  268MOL    O8137995   7.056   2.669   6.253 -0.0052  0.4498  0.1626
  268MOL    H8237996   7.029   2.886   6.157  1.2457 -2.1943  0.6169
  268MOL    H8337997   6.885   2.864   6.250  1.2167  0.4364  0.5756
  268MOL    H8437998   7.003   2.665   6.064  1.0026  0.3656  1.1821
  268MOL    H8537999   7.139   2.695   6.218 -1.0117  1.3584 -1.6081
  268MOL    C8638000   6.827   2.600   6.184  0.2398  0.2215  0.3172
  268MOL    C8738001   6.859   2.453   6.178 -0.0248  0.1771 -0.1392
  268MOL    O8838002   6.751   2.371   6.221 -0.0221 -0.0348  0.4462
  268MOL    H8938003   6.789   2.627   6.282  0.0534  1.0243  0.0294
  268MOL    H9038004   6.755   2.621   6.105  3.3488 -0.1219 -2.7306
  268MOL    H9138005   6.948   2.427   6.236 -0.6996 -2.4521 -0.1877
  268MOL    H9238006   6.792   2.296   6.262 -0.4105  0.3141  1.5072
  268MOL    C9338007   6.888   2.410   6.031  0.2691  0.4003  0.0035
  268MOL    C9438008   7.029   2.355   6.021  0.7700  0.4838  0.4589
  268MOL    O9538009   7.019   2.219   6.064 -0.3108  0.6809  0.3403
  268MOL    H9638010   6.810   2.342   5.998 -0.1085  0.4178  0.8668
  268MOL    H9738011   6.864   2.488   5.958  0.2780 -0.0991 -0.5317
  268MOL    H9838012   7.092   2.405   6.094  0.5280  0.8313  0.4267
  268MOL    H9938013   6.930   2.209   6.096  0.3284 -0.5584  1.8325
  268MOL   C10038014   7.098   2.348   5.887  0.6142 -0.0649  0.0032
  268MOL   C10138015   7.186   2.469   5.840  1.4352  0.5451  0.0301
  268MOL   O10238016   7.293   2.479   5.926 -0.0753 -0.1455 -0.4116
  268MOL   H10338017   7.172   2.268   5.890 -0.1815 -0.9022 -1.8063
  268MOL   H10438018   7.042   2.305   5.804  0.0686 -2.7271  1.7222
  268MOL   H10538019   7.130   2.562   5.852 -1.1469 -1.0292  0.5674
  268MOL   H10638020   7.362   2.417   5.911  0.8927  0.0597  2.7621
  268MOL   C10738021   7.231   2.464   5.695  0.1406  0.5388 -0.0596
  268MOL   C10838022   7.328   2.582   5.649  0.2153 -0.4888  0.0666
  268MOL   O10938023   7.357   2.557   5.512  0.0217  0.8897 -0.3174
  268MOL   H11038024   7.279   2.367   5.682 -0.6019  0.0983  0.4617
  268MOL   H11138025   7.140   2.455   5.637  0.5221  1.0261 -0.7476
  268MOL   H11238026   7.424   2.570   5.701  0.4112 -0.4557 -0.2864
  268MOL   H11338027   7.356   2.464   5.500  0.7856  0.7105  0.9391
  268MOL   C11438028   7.280   2.730   5.667  0.2584  0.1079  0.2365
  268MOL   C11538029   7.372   2.847   5.629 -0.3005 -0.1288 -0.0196
  268MOL   O11638030   7.394   2.839   5.489 -0.0937 -0.7044  0.5560
  268MOL   H11738031   7.179   2.742   5.626 -0.0823 -0.9828  0.7343
  268MOL   H11838032   7.269   2.746   5.774  0.0553  1.5437  0.0065
  268MOL   H11938033   7.470   2.847   5.678  0.3057 -0.4035 -1.2056
  268MOL   H12038034   7.348   2.762   5.459  0.3128 -1.2396  1.2908
  268MOL   C12138035   7.327   2.991   5.655  0.2477 -0.5001  0.1713
  268MOL   C12238036   7.348   3.043   5.804 -0.3155  0.7789 -0.4508
  268MOL   O12338037   7.486   3.047   5.837  0.4726 -0.1228 -0.1501
  268MOL   H12438038   7.390   3.054   5.590  2.4160 -0.3912  2.2970
  268MOL   H12538039   7.225   3.000   5.620 -0.0941 -1.9021  0.7945
  268MOL   H12638040   7.301   2.968   5.867 -2.3127  0.1628 -2.5961
  268MOL   H12738041   7.492   3.070   5.928 -1.6449  2.8287 -0.6546
  268MOL   C12838042   7.288   3.183   5.831  0.2159 -0.3930 -0.8496
  268MOL   C12938043   7.139   3.200   5.813  0.4454  0.1243 -0.1334
  268MOL   O13038044   7.072   3.120   5.908 -0.0595 -0.1712 -0.4425
  268MOL   H13138045   7.313   3.220   5.930  1.3575 -0.4927 -1.0902
  268MOL   H13238046   7.333   3.258   5.766 -0.8620  0.3686 -0.7149
  268MOL   H13338047   7.124   3.168   5.710  0.0534 -1.0437  0.2730
  268MOL   H13438048   7.063   3.168   5.989 -0.2731 -0.9442 -0.0106
  268MOL   C13538049   7.080   3.343   5.827 -0.2661  0.3432  0.3154
  268MOL   C13638050   6.955   3.357   5.744  0.3781  0.4102  0.0452
  268MOL   O13738051   6.881   3.473   5.771  0.8099 -0.6795  0.1689
  268MOL   H13838052   7.058   3.367   5.931  2.6270 -2.9952  1.8241
  268MOL   H13938053   7.152   3.415   5.788 -0.0625 -0.2288 -0.3713
  268MOL   H14038054   6.898   3.266   5.762  0.3618  0.7681  1.9702
  268MOL   H14138055   6.851   3.470   5.860 -0.1506 -0.6821 -0.1426
  268MOL   H14238056   6.989   3.354   5.641  0.2965  2.4371 -0.0594
  269MOL     C138057   3.846   3.113   6.743  0.3579  0.3411 -0.1892
  269MOL     C238058   3.813   3.189   6.609  0.1230  0.2244 -0.3923
  269MOL     O338059   3.833   3.331   6.639  0.0318  0.8760 -0.3682
  269MOL     H438060   3.818   3.008   6.744 -0.5943  0.5914  0.9142
  269MOL     H538061   3.800   3.157   6.831  2.1614  0.6467  0.6292
  269MOL     H638062   3.711   3.176   6.573  0.2767 -1.5480 -0.2620
  269MOL     H738063   3.766   3.384   6.599  0.0113  1.0494 -0.1052
  269MOL     H838064   3.953   3.113   6.764  0.3373  3.2832  0.1135
  269MOL     C938065   3.896   3.160   6.486 -0.0373 -0.1070 -0.8266
  269MOL    C1038066   3.889   3.012   6.446 -0.2834 -0.1270  0.1873
  269MOL    O1138067   3.759   2.985   6.385 -0.1335  0.6440 -0.6498
  269MOL    H1238068   3.854   3.225   6.409 -1.1498 -0.0137 -0.1438
  269MOL    H1338069   3.996   3.194   6.513 -0.3142 -0.4397  0.6043
  269MOL    H1438070   3.892   2.960   6.541  2.6880  0.6591  0.5659
  269MOL    H1538071   3.696   2.976   6.454 -0.2514 -2.4337 -1.0814
  269MOL    C1638072   3.989   2.962   6.335  0.1304  0.0561  0.2692
  269MOL    C1738073   3.989   2.809   6.308 -0.6422  0.1229  0.6308
  269MOL    O1838074   3.866   2.777   6.247 -0.4621  0.1795  0.1023
  269MOL    H1938075   3.972   3.011   6.239 -0.6205 -2.3934 -0.8673
  269MOL    H2038076   4.087   3.001   6.364  0.5112  0.3214 -1.3208
  269MOL    H2138077   4.006   2.754   6.401  0.8808  1.8807  1.4141
  269MOL    H2238078   3.812   2.843   6.286  0.8129  0.4814  1.4193
  269MOL    C2338079   4.111   2.760   6.214  0.6223  0.7377 -0.5082
  269MOL    C2438080   4.119   2.613   6.172 -0.4321 -0.4292 -0.5306
  269MOL    O2538081   4.002   2.581   6.096  0.2380 -0.9456  0.0911
  269MOL    H2638082   4.120   2.825   6.127 -1.3652 -0.2076 -1.4575
  269MOL    H2738083   4.206   2.782   6.263  0.9073 -1.9692  0.2001
  269MOL    H2838084   4.112   2.553   6.263 -0.4172  0.3486 -0.0123
  269MOL    H2938085   3.928   2.624   6.137  1.3521  0.3068  0.8354
  269MOL    C3038086   4.257   2.565   6.121  0.6775  0.3594 -0.1719
  269MOL    C3138087   4.318   2.629   6.003  0.4438 -0.1380 -0.3426
  269MOL    O3238088   4.458   2.621   6.019 -0.5453 -0.2397 -0.7630
  269MOL    H3338089   4.327   2.583   6.203 -0.8045 -1.1669  1.4915
  269MOL    H3438090   4.272   2.457   6.122  1.6766  0.4585 -2.7110
  269MOL    H3538091   4.306   2.737   5.997  0.6967 -0.0871  0.0885
  269MOL    H3638092   4.483   2.698   6.069  0.9192 -0.2787 -1.4265
  269MOL    C3738093   4.251   2.574   5.875  0.1015 -0.2701  0.2744
  269MOL    C3838094   4.169   2.682   5.790 -0.7611  0.1893  0.3554
  269MOL    O3938095   4.259   2.773   5.727 -0.3331 -0.4995  0.0613
  269MOL    H4038096   4.330   2.522   5.821 -1.7527 -2.1683 -0.7360
  269MOL    H4138097   4.177   2.497   5.898 -0.6572  0.8055  1.5436
  269MOL    H4238098   4.106   2.735   5.862 -0.1733  1.1950  0.1295
  269MOL    H4338099   4.299   2.721   5.659 -0.7796  0.4006 -0.9173
  269MOL    C4438100   4.071   2.636   5.686  0.3132  0.2902 -0.9181
  269MOL    C4538101   3.929   2.590   5.731  1.0881 -0.1380 -0.8190
  269MOL    O4638102   3.835   2.670   5.645 -0.1909 -0.1087 -0.5646
  269MOL    H4738103   4.061   2.727   5.626  0.7288  1.4768  0.7545
  269MOL    H4838104   4.111   2.552   5.630  0.9495  0.1732 -0.2886
  269MOL    H4938105   3.910   2.608   5.837  1.2130 -0.1501 -0.7942
  269MOL    H5038106   3.755   2.688   5.692 -0.7142  0.1819 -1.5430
  269MOL    C5138107   3.897   2.446   5.690 -0.3353  0.0825 -0.0622
  269MOL    C5238108   3.979   2.342   5.767  0.0589 -0.4569 -0.3734
  269MOL    O5338109   3.931   2.354   5.899  0.2676 -0.6234 -0.4432
  269MOL    H5438110   3.791   2.427   5.706 -0.2608 -1.7799 -1.5103
  269MOL    H5538111   3.917   2.426   5.585 -0.7066 -0.7858  0.0227
  269MOL    H5638112   4.086   2.363   5.761 -0.0540  0.3247  0.3323
  269MOL    H5738113   3.969   2.425   5.947 -0.8251  0.4911 -1.1964
  269MOL    C5838114   3.962   2.197   5.711 -0.2307  0.2435 -0.0561
  269MOL    C5938115   4.060   2.170   5.596  0.5755  0.2155  0.3091
  269MOL    O6038116   4.193   2.187   5.632  0.4565 -0.1019  0.2339
  269MOL    H6138117   3.980   2.131   5.796 -0.6072 -0.1727 -0.2999
  269MOL    H6238118   3.859   2.195   5.676 -0.3682  2.3685  0.1631
  269MOL    H6338119   4.030   2.250   5.528 -1.7051 -0.9920 -0.1401
  269MOL    H6438120   4.222   2.146   5.712 -1.6993 -2.8099 -0.2936
  269MOL    C6538121   4.039   2.038   5.521  0.9523  0.0145 -0.1601
  269MOL    C6638122   4.044   2.064   5.369 -0.2701  0.0732  0.0214
  269MOL    O6738123   4.049   1.949   5.299 -0.2581 -0.0956 -0.8697
  269MOL    H6838124   4.115   1.963   5.546  1.0370 -0.2830 -1.3037
  269MOL    H6938125   3.943   1.993   5.543  1.3369 -0.3691  0.7738
  269MOL    H7038126   4.133   2.123   5.347 -0.5217 -0.4904 -2.7351
  269MOL    H7138127   4.122   1.894   5.323 -0.1767  0.4740  0.2301
  269MOL    C7238128   3.914   2.133   5.322 -0.6109  0.1461 -0.7216
  269MOL    C7338129   3.912   2.201   5.186  0.2719 -0.1239  0.1842
  269MOL    O7438130   3.778   2.241   5.150  0.0343  0.8226  0.1072
  269MOL    H7538131   3.839   2.054   5.330  1.3059 -1.6950 -0.5028
  269MOL    H7638132   3.876   2.208   5.392 -2.9230 -1.0285 -0.6653
  269MOL    H7738133   3.943   2.118   5.122 -1.5241 -1.4147  0.9377
  269MOL    H7838134   3.726   2.164   5.165  2.2518 -0.2151  2.8694
  269MOL    C7938135   4.001   2.328   5.176 -0.3484  0.2298 -0.9840
  269MOL    C8038136   4.035   2.367   5.034 -0.5606 -0.6230  0.0072
  269MOL    O8138137   3.994   2.500   5.012  0.2749  0.1651  0.5190
  269MOL    H8238138   3.960   2.414   5.228  1.5246  0.4982  0.1187
  269MOL    H8338139   4.094   2.297   5.226  0.1858  1.8861 -0.9217
  269MOL    H8438140   3.968   2.308   4.971 -1.3497 -1.5860  1.7266
  269MOL    H8538141   4.031   2.558   5.076 -1.0834  3.0504 -1.2518
  269MOL    C8638142   4.179   2.354   4.985 -0.1355  0.5555 -0.1600
  269MOL    C8738143   4.229   2.205   4.969 -0.0990  0.3939 -0.1461
  269MOL    O8838144   4.158   2.126   4.880  0.4314  0.5129  0.0829
  269MOL    H8938145   4.198   2.407   4.891  0.4673 -0.8792 -0.8535
  269MOL    H9038146   4.241   2.407   5.057 -0.4781 -3.1849  3.0667
  269MOL    H9138147   4.226   2.167   5.072  1.8160  1.3242  0.2592
  269MOL    H9238148   4.211   2.062   4.835 -2.9791 -0.1301 -3.3116
  269MOL    C9338149   4.378   2.182   4.930  0.5050 -0.4806 -0.3729
  269MOL    C9438150   4.476   2.264   5.014  1.0862  0.0424 -0.2489
  269MOL    O9538151   4.595   2.184   5.030  0.1262 -0.2502 -0.1234
  269MOL    H9638152   4.403   2.076   4.937  0.7394 -0.4095 -0.1263
  269MOL    H9738153   4.383   2.206   4.824 -0.3321  0.6830 -0.1539
  269MOL    H9838154   4.443   2.284   5.116 -0.4225  1.6773 -1.0270
  269MOL    H9938155   4.641   2.215   5.106 -1.0352 -1.2803  1.0394
  269MOL   C10038156   4.509   2.392   4.934  0.5001 -0.4671  0.2205
  269MOL   C10138157   4.622   2.486   4.998 -0.4326 -0.4526 -0.1674
  269MOL   O10238158   4.739   2.414   4.968  0.1883  0.1010  0.2305
  269MOL   H10338159   4.514   2.375   4.827 -1.3476 -1.0892  0.2111
  269MOL   H10438160   4.427   2.463   4.927  0.5210 -0.5267 -0.6438
  269MOL   H10538161   4.616   2.492   5.107  2.6757  0.5732 -0.0097
  269MOL   H10638162   4.721   2.335   4.921  0.7048  0.0471  0.1165
  269MOL   C10738163   4.620   2.628   4.930  0.0128  0.0291 -0.3482
  269MOL   C10838164   4.737   2.725   4.971 -0.5734  0.2452 -0.8142
  269MOL   O10938165   4.737   2.842   4.891  0.0619  0.3359 -0.6307
  269MOL   H11038166   4.627   2.606   4.823 -1.2335 -4.3092  0.3389
  269MOL   H11138167   4.524   2.681   4.936  0.9784  1.6312  1.5252
  269MOL   H11238168   4.832   2.675   4.954 -0.5278  0.0870 -0.0965
  269MOL   H11338169   4.784   2.823   4.811 -0.2660  0.3771 -0.8322
  269MOL   C11438170   4.722   2.774   5.123 -0.4640  0.1318 -0.4426
  269MOL   C11538171   4.844   2.853   5.172 -0.1184 -0.4602 -0.4295
  269MOL   O11638172   4.798   2.902   5.296 -0.0816 -0.6387  0.5883
  269MOL   H11738173   4.638   2.844   5.123  0.3564  1.1356 -1.4772
  269MOL   H11838174   4.698   2.685   5.180  0.4683 -1.4011 -2.3992
  269MOL   H11938175   4.870   2.939   5.111 -4.5561  1.3970  0.1552
  269MOL   H12038176   4.737   2.970   5.271  1.0066 -0.2920 -1.2101
  269MOL   C12138177   4.969   2.765   5.202 -1.1836  0.1387  0.2696
  269MOL   C12238178   5.084   2.833   5.285  0.1340 -0.0765  1.2548
  269MOL   O12338179   5.042   2.867   5.413  0.2370  0.2002  0.2574
  269MOL   H12438180   4.951   2.670   5.254 -1.3450 -0.2265 -0.4548
  269MOL   H12538181   5.003   2.713   5.113 -1.7000 -0.8563  0.6433
  269MOL   H12638182   5.105   2.927   5.236 -1.2610 -1.0515 -1.2919
  269MOL   H12738183   4.953   2.897   5.404 -0.2680 -0.4560  2.7059
  269MOL   C12838184   5.214   2.750   5.278  0.3846  0.2942  1.0606
  269MOL   C12938185   5.338   2.825   5.222 -0.3182 -0.3155  0.6197
  269MOL   O13038186   5.316   2.842   5.082 -0.1447  0.6611  0.0179
  269MOL   H13138187   5.227   2.705   5.376 -0.9176  1.2341  1.6863
  269MOL   H13238188   5.214   2.659   5.218 -1.7742  1.6614 -1.1110
  269MOL   H13338189   5.430   2.768   5.229 -0.2549 -0.1394  1.2916
  269MOL   H13438190   5.363   2.916   5.047  1.4621 -0.9416 -1.2896
  269MOL   C13538191   5.366   2.963   5.297  0.4740  0.3430  0.0078
  269MOL   C13638192   5.387   2.950   5.447 -0.5293  1.0842  0.1906
  269MOL   O13738193   5.406   3.080   5.497 -0.7508  0.5930  0.8932
  269MOL   H13838194   5.453   3.015   5.258  1.1868  0.1301  1.2949
  269MOL   H13938195   5.283   3.031   5.277 -0.2992 -0.5035  0.3052
  269MOL   H14038196   5.466   2.882   5.481  0.8136  1.5489 -1.9255
  269MOL   H14138197   5.491   3.110   5.470 -0.2847 -1.7781 -0.4268
  269MOL   H14238198   5.303   2.898   5.494 -0.7927 -0.3232 -1.7622
  270MOL     C138199   4.268   5.167   1.848  0.1175  0.0706 -0.5387
  270MOL     C238200   4.224   5.302   1.793 -0.3190  0.1656 -0.4809
  270MOL     O338201   4.090   5.306   1.747  0.1568 -0.1443  0.2248
  270MOL     H438202   4.219   5.154   1.944 -2.7369  3.4999 -1.3965
  270MOL     H538203   4.375   5.175   1.865 -0.0949 -0.7836  1.2107
  270MOL     H638204   4.290   5.318   1.708  0.1647  1.0922  0.0547
  270MOL     H738205   4.058   5.394   1.750  0.3147 -0.0975  0.7224
  270MOL     H838206   4.247   5.086   1.778  1.9296 -0.2289 -0.7354
  270MOL     C938207   4.264   5.416   1.888 -0.6147  0.2266  0.0971
  270MOL    C1038208   4.240   5.554   1.832 -0.1746  0.4028  0.4653
  270MOL    O1138209   4.105   5.587   1.804  0.2213 -0.7189  0.2849
  270MOL    H1238210   4.212   5.417   1.984 -1.7194  0.3202 -0.5011
  270MOL    H1338211   4.369   5.422   1.918 -1.1475  1.8808  1.7406
  270MOL    H1438212   4.295   5.550   1.738 -1.0209 -0.9795  0.0217
  270MOL    H1538213   4.058   5.563   1.883  0.1745 -1.3924  0.0494
  270MOL    C1638214   4.305   5.665   1.909 -0.1836 -0.0439  0.6228
  270MOL    C1738215   4.224   5.729   2.027 -0.1236 -0.4495 -0.2963
  270MOL    O1838216   4.249   5.641   2.140  0.2811 -0.6665  0.4381
  270MOL    H1938217   4.404   5.628   1.935  0.0178 -1.1132 -1.5374
  270MOL    H2038218   4.315   5.752   1.844  0.3084  0.1644  0.9763
  270MOL    H2138219   4.117   5.731   2.008 -0.2485 -0.1111  0.4182
  270MOL    H2238220   4.178   5.652   2.202  1.4226  1.8147  1.3908
  270MOL    C2338221   4.284   5.875   2.065  0.4316  0.3046 -0.3724
  270MOL    C2438222   4.195   5.943   2.173  0.2590 -0.4207 -1.0556
  270MOL    O2538223   4.270   6.049   2.234 -0.0127 -0.2041 -0.4149
  270MOL    H2638224   4.384   5.867   2.107  0.6168 -1.3336 -1.1149
  270MOL    H2738225   4.285   5.936   1.974  0.1197 -0.1955 -0.7113
  270MOL    H2838226   4.175   5.868   2.250 -2.9139  1.8133  0.4192
  270MOL    H2938227   4.340   6.075   2.176  0.7093  0.4178  0.6973
  270MOL    C3038228   4.053   5.998   2.131  0.2353 -0.1662  0.4139
  270MOL    C3138229   3.960   6.050   2.248  0.3658  0.4550 -0.1920
  270MOL    O3238230   3.834   6.104   2.188 -0.2810  0.4068  0.6649
  270MOL    H3338231   4.060   6.079   2.059 -1.1684 -1.1732 -0.8864
  270MOL    H3438232   4.012   5.916   2.071  1.1258  1.5670 -2.6787
  270MOL    H3538233   4.010   6.126   2.307  2.4166 -2.0546  1.4080
  270MOL    H3638234   3.773   6.032   2.179 -0.3310  0.5311 -0.0456
  270MOL    C3738235   3.902   5.946   2.345  0.4792 -0.3696  0.3708
  270MOL    C3838236   3.983   5.899   2.464  0.5428  0.3837  0.2191
  270MOL    O3938237   3.963   5.992   2.572 -0.0025  0.6702  0.3097
  270MOL    H4038238   3.797   5.966   2.367  0.6902  0.8045  0.3563
  270MOL    H4138239   3.879   5.855   2.290 -2.1128  1.3558 -1.4806
  270MOL    H4238240   4.088   5.906   2.437  0.4793  1.9571  0.3127
  270MOL    H4338241   4.028   6.058   2.552  0.8357 -0.6448 -1.4109
  270MOL    C4438242   3.954   5.756   2.515 -0.2575 -0.4113  0.8938
  270MOL    C4538243   4.014   5.654   2.422  0.2785  0.3099  0.6221
  270MOL    O4638244   4.150   5.670   2.406 -0.5005 -0.1896  0.0835
  270MOL    H4738245   3.999   5.751   2.614  0.3935  0.2543  0.6372
  270MOL    H4838246   3.851   5.742   2.548 -0.2098 -1.5449  0.5926
  270MOL    H4938247   3.963   5.665   2.326 -0.1653  0.0766  0.8272
  270MOL    H5038248   4.179   5.666   2.496 -1.4213  0.0007  0.3948
  270MOL    C5138249   3.975   5.505   2.465 -0.5567 -0.5778  0.2816
  270MOL    C5238250   3.985   5.396   2.353  1.0645 -0.8046 -0.4354
  270MOL    O5338251   3.902   5.441   2.249 -0.1125  0.1366  0.6377
  270MOL    H5438252   4.029   5.477   2.555  2.2631  0.3699 -1.0798
  270MOL    H5538253   3.870   5.502   2.496 -0.3043 -1.4042  1.0767
  270MOL    H5638254   3.929   5.306   2.381  2.2151 -1.1305  0.9075
  270MOL    H5738255   3.812   5.431   2.278 -0.6762  0.8361 -0.7959
  270MOL    C5838256   4.123   5.368   2.299 -0.4085 -0.2763 -0.5553
  270MOL    C5938257   4.173   5.223   2.341 -0.3944 -0.1090  0.5903
  270MOL    O6038258   4.098   5.132   2.265 -0.0779  0.8756  0.0207
  270MOL    H6138259   4.119   5.385   2.191  2.5874  2.3110 -0.3107
  270MOL    H6238260   4.194   5.434   2.347 -0.8367  0.8257 -1.4084
  270MOL    H6338261   4.155   5.202   2.446 -0.3325 -1.2974  0.3751
  270MOL    H6438262   4.110   5.053   2.315  2.0789  1.7197  0.9260
  270MOL    C6538263   4.318   5.196   2.298  0.1277  0.4496 -0.2854
  270MOL    C6638264   4.435   5.254   2.388  0.2411 -0.2098 -0.3061
  270MOL    O6738265   4.540   5.170   2.366 -0.0248  0.0674 -0.2885
  270MOL    H6838266   4.334   5.088   2.296  1.9092  0.6827  0.2543
  270MOL    H6938267   4.318   5.224   2.193  0.8666 -3.1611 -1.2904
  270MOL    H7038268   4.407   5.230   2.490  1.6057 -1.5748 -0.2408
  270MOL    H7138269   4.593   5.216   2.303 -2.4977  1.1122 -1.6778
  270MOL    C7238270   4.471   5.403   2.370 -0.4551 -0.2014 -0.6570
  270MOL    C7338271   4.487   5.472   2.237  0.3627 -0.3920  0.1238
  270MOL    O7438272   4.487   5.614   2.249 -0.1783 -0.1050 -0.0388
  270MOL    H7538273   4.392   5.455   2.425 -0.3736 -0.9217  0.1618
  270MOL    H7638274   4.562   5.417   2.429 -1.2594  0.4436  0.4407
  270MOL    H7738275   4.398   5.445   2.180  0.0295  1.1026 -0.0866
  270MOL    H7838276   4.396   5.632   2.228  0.4510  1.0058 -2.0210
  270MOL    C7938277   4.606   5.428   2.149 -0.2294 -0.3354 -0.6579
  270MOL    C8038278   4.740   5.426   2.212 -0.6109 -0.3440 -0.1600
  270MOL    O8138279   4.755   5.292   2.257  0.4834  0.0222 -0.3595
  270MOL    H8238280   4.576   5.330   2.111 -0.7879 -0.8855  1.1908
  270MOL    H8338281   4.615   5.503   2.070  1.2173  0.9655  0.7338
  270MOL    H8438282   4.739   5.494   2.297  2.4118  0.9449 -1.0716
  270MOL    H8538283   4.744   5.234   2.183 -1.4540  1.4496 -1.2407
  270MOL    C8638284   4.864   5.462   2.128  0.4056 -0.0800 -0.6386
  270MOL    C8738285   5.005   5.479   2.194 -0.4401 -0.5690 -0.2705
  270MOL    O8838286   5.087   5.544   2.101 -0.5705  0.1451  0.5100
  270MOL    H8938287   4.878   5.409   2.033 -0.2764 -0.8129 -0.3377
  270MOL    H9038288   4.840   5.565   2.103  1.7479  0.1557 -1.0070
  270MOL    H9138289   5.051   5.380   2.196  0.0975 -0.3088  0.5945
  270MOL    H9238290   5.098   5.483   2.030 -0.1149 -0.5242  1.1494
  270MOL    C9338291   5.020   5.548   2.332  0.1963  0.7053  0.1698
  270MOL    C9438292   4.979   5.470   2.463  0.2170 -0.8857 -0.7677
  270MOL    O9538293   5.047   5.347   2.459 -0.0332  0.0954 -0.1526
  270MOL    H9638294   5.127   5.546   2.354  0.2835 -1.6352 -0.3776
  270MOL    H9738295   4.985   5.651   2.338 -1.9885 -0.0047 -0.1328
  270MOL    H9838296   4.871   5.456   2.458  0.1306  0.1090 -1.8699
  270MOL    H9938297   5.007   5.292   2.525  0.3716  1.0061  0.8654
  270MOL   C10038298   5.005   5.557   2.589 -0.6192 -0.4881 -0.1061
  270MOL   C10138299   4.894   5.663   2.614  0.3136  0.7400  0.7177
  270MOL   O10238300   4.782   5.583   2.649  0.3381 -0.3023 -0.1568
  270MOL   H10338301   5.008   5.488   2.673 -2.5475 -2.8730 -1.9187
  270MOL   H10438302   5.095   5.617   2.575 -1.6408  1.8643  2.7146
  270MOL   H10538303   4.885   5.727   2.527  1.5656  0.5369  0.4291
  270MOL   H10638304   4.722   5.577   2.576  0.4648  1.0404 -0.3933
  270MOL   C10738305   4.935   5.752   2.735 -0.6303  0.2588  0.1316
  270MOL   C10838306   5.035   5.864   2.696  0.1480  0.3311  0.1301
  270MOL   O10938307   4.960   5.944   2.601 -0.1784 -0.0899  0.3482
  270MOL   H11038308   4.845   5.800   2.772  0.3206  0.5408  2.1762
  270MOL   H11138309   4.981   5.692   2.814 -1.3887  1.8375  1.8013
  270MOL   H11238310   5.120   5.820   2.644  0.6036 -1.1610  2.0901
  270MOL   H11338311   4.914   6.007   2.654 -2.0357 -2.4403  1.5979
  270MOL   C11438312   5.071   5.952   2.818  0.8702 -0.0062 -0.6146
  270MOL   C11538313   5.170   5.902   2.926 -0.2279  0.2419 -0.4298
  270MOL   O11638314   5.282   5.867   2.855 -0.6395 -0.8443 -0.5366
  270MOL   H11738315   5.094   6.053   2.784 -0.1740  0.5798  0.3924
  270MOL   H11838316   4.974   5.973   2.862  0.4952 -3.0440  0.1549
  270MOL   H11938317   5.117   5.819   2.972  0.7047  0.2564  0.6943
  270MOL   H12038318   5.331   5.948   2.861 -0.1339 -1.2399  0.7987
  270MOL   C12138319   5.214   6.014   3.020  0.1280  0.9160 -0.1672
  270MOL   C12238320   5.108   6.071   3.112 -0.5649  0.0448  0.2130
  270MOL   O12338321   5.081   5.980   3.216 -0.3242  0.1683  0.4319
  270MOL   H12438322   5.297   5.984   3.084  1.2627  0.6395 -1.7600
  270MOL   H12538323   5.254   6.095   2.959 -1.6759  2.5066  0.6835
  270MOL   H12638324   5.015   6.078   3.055 -0.7355 -0.8186  0.3825
  270MOL   H12738325   4.991   5.979   3.243 -0.0847  2.4176  1.4853
  270MOL   C12838326   5.142   6.223   3.159 -0.0015  0.4561 -0.4178
  270MOL   C12938327   5.035   6.298   3.242 -0.1782  0.6479 -0.1341
  270MOL   O13038328   5.099   6.416   3.293  0.8790 -0.1605  0.2468
  270MOL   H13138329   5.227   6.220   3.226 -1.5593  1.5262  1.6662
  270MOL   H13238330   5.169   6.283   3.072 -0.2519  0.1536 -0.7062
  270MOL   H13338331   5.004   6.243   3.331  1.3148  0.0169  0.0045
  270MOL   H13438332   5.123   6.404   3.383 -0.9154 -0.0335  0.7641
  270MOL   C13538333   4.912   6.342   3.162  0.7525  0.5072 -0.4008
  270MOL   C13638334   4.803   6.393   3.261  0.0144 -0.2975 -0.2151
  270MOL   O13738335   4.681   6.411   3.194 -0.0451 -0.9031  0.0321
  270MOL   H13838336   4.934   6.422   3.090 -0.9869  0.8532 -0.5702
  270MOL   H13938337   4.874   6.257   3.106  0.6163  0.3896 -0.1281
  270MOL   H14038338   4.838   6.482   3.312 -1.1134 -0.3427  0.6515
  270MOL   H14138339   4.642   6.333   3.158 -0.8018 -0.4234 -0.2017
  270MOL   H14238340   4.788   6.325   3.344  2.2244 -1.2284 -0.5639
  271MOL     C138341   3.767   4.132   3.197 -0.1047  0.3088  0.2205
  271MOL     C238342   3.832   4.127   3.059  0.6256  0.0762  0.6374
  271MOL     O338343   3.735   4.176   2.962 -0.0032  0.6562 -0.1091
  271MOL     H438344   3.671   4.081   3.194  0.1329 -0.2377  1.4335
  271MOL     H538345   3.751   4.236   3.223 -1.4220  0.4465 -1.1202
  271MOL     H638346   3.847   4.025   3.026  2.0363 -0.1010  1.7831
  271MOL     H738347   3.770   4.165   2.875 -2.3182  1.5705 -1.1959
  271MOL     H838348   3.815   4.083   3.283 -0.5459 -0.4767  0.0213
  271MOL     C938349   3.971   4.200   3.054 -0.1319  0.6646 -0.6351
  271MOL    C1038350   3.974   4.350   3.096  0.2688 -0.5132 -0.3486
  271MOL    O1138351   3.975   4.365   3.229 -0.2878  0.6938 -0.1171
  271MOL    H1238352   4.039   4.137   3.111 -1.1987 -0.2938 -0.4035
  271MOL    H1338353   4.012   4.191   2.953  0.3815 -1.3400 -0.2585
  271MOL    H1438354   3.878   4.382   3.056  0.3818 -1.1341 -1.1316
  271MOL    H1538355   4.049   4.320   3.266 -0.6679 -1.2446 -1.5802
  271MOL    C1638356   4.100   4.418   3.025 -0.1448 -0.4578  0.0036
  271MOL    C1738357   4.132   4.562   3.069 -0.8511 -0.1889  0.3152
  271MOL    O1838358   4.240   4.601   2.988  0.3226  0.0445  0.1567
  271MOL    H1938359   4.192   4.360   3.035  0.9121  0.7393 -2.3342
  271MOL    H2038360   4.085   4.407   2.917 -0.2099 -0.0399 -0.0313
  271MOL    H2138361   4.166   4.567   3.172  1.9651 -1.2712 -0.4999
  271MOL    H2238362   4.310   4.543   3.012  1.3069  1.1358 -0.0636
  271MOL    C2338363   4.010   4.655   3.042 -0.6785 -0.2417 -0.0415
  271MOL    C2438364   4.010   4.791   3.127  0.4874  0.1161  1.1289
  271MOL    O2538365   3.901   4.864   3.078  0.7446 -0.0572 -1.3205
  271MOL    H2638366   4.003   4.664   2.934  0.2456 -1.2757 -0.1937
  271MOL    H2738367   3.918   4.601   3.064 -1.2742  0.4721 -0.7528
  271MOL    H2838368   4.097   4.850   3.098 -0.1606 -0.2203 -1.7435
  271MOL    H2938369   3.932   4.953   3.088 -1.0003  0.1725  2.6646
  271MOL    C3038370   3.984   4.791   3.278 -0.0571 -0.4937 -0.4251
  271MOL    C3138371   4.099   4.862   3.364  0.7014  0.1087 -0.0307
  271MOL    O3238372   4.044   4.879   3.493  0.5275 -0.2248 -0.1576
  271MOL    H3338373   3.884   4.828   3.303 -0.9567 -2.1508 -1.4851
  271MOL    H3438374   3.988   4.690   3.318  1.6852 -0.7497 -1.1830
  271MOL    H3538375   4.104   4.963   3.321  1.8009 -0.2200 -0.7079
  271MOL    H3638376   3.961   4.924   3.487  0.6314 -0.2857 -2.4535
  271MOL    C3738377   4.233   4.789   3.374 -0.7585  0.2752  0.3472
  271MOL    C3838378   4.351   4.870   3.432  0.5902 -0.0249 -0.0694
  271MOL    O3938379   4.435   4.779   3.496  0.2611  0.1283  0.0139
  271MOL    H4038380   4.216   4.690   3.416 -1.4301  0.3861  0.3441
  271MOL    H4138381   4.259   4.762   3.272 -1.3473  2.0128 -0.2853
  271MOL    H4238382   4.317   4.943   3.504 -0.4862  0.6804 -1.2776
  271MOL    H4338383   4.503   4.832   3.534  1.9282 -1.9687  0.0034
  271MOL    C4438384   4.447   4.930   3.321  0.1106  0.7960 -1.0577
  271MOL    C4538385   4.406   5.045   3.233 -0.5980 -0.7877  0.5256
  271MOL    O4638386   4.304   4.992   3.149 -0.0391  0.2691 -1.1302
  271MOL    H4738387   4.542   4.961   3.365 -0.5741  0.6334  0.5369
  271MOL    H4838388   4.477   4.852   3.250  0.7599  1.9109 -2.0391
  271MOL    H4938389   4.488   5.073   3.167 -0.6847  0.5215  0.9522
  271MOL    H5038390   4.340   4.923   3.095  0.4129 -0.8712  0.6034
  271MOL    C5138391   4.353   5.169   3.315  0.1581  0.1989  0.3739
  271MOL    C5238392   4.461   5.246   3.393  0.7294 -0.2267  0.0593
  271MOL    O5338393   4.571   5.281   3.307  0.0241  0.1947 -0.4106
  271MOL    H5438394   4.321   5.237   3.236  0.1185  0.2656  0.4457
  271MOL    H5538395   4.265   5.138   3.372 -0.4083 -0.2996 -0.7677
  271MOL    H5638396   4.498   5.181   3.473  0.3565 -1.2470 -0.5905
  271MOL    H5738397   4.630   5.207   3.314 -1.2538 -0.7894  0.1734
  271MOL    C5838398   4.410   5.371   3.458  0.0464  0.1516 -0.4206
  271MOL    C5938399   4.280   5.362   3.542 -0.2739 -0.4977 -0.0097
  271MOL    O6038400   4.307   5.287   3.655 -0.3224 -0.2925 -0.0495
  271MOL    H6138401   4.492   5.413   3.517  1.4717  1.8142 -3.4929
  271MOL    H6238402   4.400   5.456   3.390  2.7817  1.2156  0.4181
  271MOL    H6338403   4.200   5.312   3.487  3.4039 -3.9285 -2.5389
  271MOL    H6438404   4.220   5.272   3.689 -0.7380 -1.0053 -1.3925
  271MOL    C6538405   4.223   5.503   3.583 -0.0636  0.8498 -0.0827
  271MOL    C6638406   4.174   5.600   3.469  0.2929  0.0783  0.1596
  271MOL    O6738407   4.071   5.538   3.393 -0.0111 -0.0567  0.3831
  271MOL    H6838408   4.150   5.483   3.661  0.1283 -2.2301 -0.6012
  271MOL    H6938409   4.299   5.562   3.634  2.4759 -1.3437 -1.1971
  271MOL    H7038410   4.257   5.616   3.401  0.4746 -0.0350  0.3550
  271MOL    H7138411   4.100   5.532   3.304 -0.8727  0.1181  0.0783
  271MOL    C7238412   4.116   5.733   3.526  0.6124  0.1032  0.1072
  271MOL    C7338413   4.048   5.820   3.416 -1.1394 -0.4186  0.7428
  271MOL    O7438414   4.000   5.931   3.492 -0.5454  0.0739  0.2799
  271MOL    H7538415   4.055   5.704   3.611  0.5400 -3.0246 -0.9463
  271MOL    H7638416   4.194   5.802   3.561  0.2044  1.2168 -1.1232
  271MOL    H7738417   3.965   5.764   3.373  0.2579 -1.1687 -1.0315
  271MOL    H7838418   4.006   5.913   3.584  2.1957  1.9746  0.5136
  271MOL    C7938419   4.138   5.862   3.301  0.3865 -0.6180 -0.4202
  271MOL    C8038420   4.070   5.976   3.219 -0.6378  0.5999  0.0402
  271MOL    O8138421   4.080   6.102   3.292 -0.2172 -0.0990  0.2736
  271MOL    H8238422   4.241   5.885   3.329  0.4607 -0.8057 -0.5432
  271MOL    H8338423   4.140   5.776   3.236 -0.0768 -0.1405 -1.0766
  271MOL    H8438424   3.963   5.956   3.223  0.0874 -3.2554  2.6583
  271MOL    H8538425   4.039   6.083   3.375 -0.8539 -0.0822 -0.0307
  271MOL    C8638426   4.137   5.986   3.082  0.2089 -0.0802 -0.1425
  271MOL    C8738427   4.047   5.933   2.970 -0.7045  0.1037 -0.5966
  271MOL    O8838428   4.072   6.021   2.862 -0.2885  0.3281 -0.1509
  271MOL    H8938429   4.149   6.092   3.061 -1.1787  0.0995 -0.0815
  271MOL    H9038430   4.235   5.937   3.080  0.6601  0.8391 -0.6898
  271MOL    H9138431   3.941   5.955   2.985 -0.5256 -0.8152  2.2682
  271MOL    H9238432   4.121   5.969   2.801  1.0458 -0.5841  1.6522
  271MOL    C9338433   4.077   5.788   2.919  0.2276  0.2924  0.3277
  271MOL    C9438434   3.999   5.672   2.992 -0.5701 -0.1939 -0.6985
  271MOL    O9538435   3.862   5.696   2.959  0.2948  0.4088  0.4630
  271MOL    H9638436   4.063   5.791   2.811 -1.4982 -2.4685  0.4162
  271MOL    H9738437   4.181   5.755   2.928 -0.0430 -0.5856  0.2872
  271MOL    H9838438   4.005   5.696   3.098 -0.8231  0.8932 -0.9255
  271MOL    H9938439   3.849   5.750   2.882  0.8331  1.2245  0.9351
  271MOL   C10038440   4.022   5.525   2.951 -0.2545 -0.5094 -0.0026
  271MOL   C10138441   4.168   5.483   2.982  0.0080 -0.6703 -0.4540
  271MOL   O10238442   4.205   5.511   3.117  0.8162  0.5425  0.2792
  271MOL   H10338443   3.945   5.466   3.002  0.3860  0.6546  2.3803
  271MOL   H10438444   3.999   5.523   2.844 -2.0013 -1.1154  0.3635
  271MOL   H10538445   4.235   5.534   2.913  1.3425 -0.3626  1.0384
  271MOL   H10638446   4.299   5.510   3.118  0.8122 -1.3027 -0.0449
  271MOL   C10738447   4.194   5.331   2.957  0.7379 -0.1661 -0.8043
  271MOL   C10838448   4.166   5.301   2.806 -0.8231 -0.1733 -0.0939
  271MOL   O10938449   4.246   5.390   2.722  0.3546  0.3226  0.1782
  271MOL   H11038450   4.295   5.302   2.987 -0.1126 -1.8956  0.5330
  271MOL   H11138451   4.118   5.268   3.004  0.2188  0.2214 -1.1177
  271MOL   H11238452   4.060   5.318   2.788 -1.1719 -1.2998  0.8492
  271MOL   H11338453   4.334   5.382   2.757 -0.3271 -1.0313  1.6881
  271MOL   C11438454   4.208   5.155   2.761 -0.3951 -0.2640  0.7482
  271MOL   C11538455   4.147   5.045   2.850 -1.2176 -0.2493  0.4900
  271MOL   O11638456   4.007   5.051   2.868 -0.7250  0.3850  0.1828
  271MOL   H11738457   4.166   5.136   2.662 -1.1569  0.1421  0.9850
  271MOL   H11838458   4.317   5.149   2.763 -0.1427  1.6641 -3.1823
  271MOL   H11938459   4.191   5.051   2.950 -3.7385  0.7856  1.5878
  271MOL   H12038460   3.969   5.065   2.782  0.5859 -0.4543 -0.5490
  271MOL   C12138461   4.180   4.903   2.802 -1.1136  0.4391 -0.3810
  271MOL   C12238462   4.330   4.865   2.814 -0.4430 -0.2666 -0.0048
  271MOL   O12338463   4.368   4.820   2.945  0.7913  0.9290 -0.0437
  271MOL   H12438464   4.117   4.832   2.856  0.5451  0.8475  2.1948
  271MOL   H12538465   4.145   4.902   2.699 -0.9627 -0.6542 -0.4281
  271MOL   H12638466   4.391   4.954   2.800 -0.2711 -0.5742 -1.2889
  271MOL   H12738467   4.313   4.744   2.957  2.0539  0.0686  0.3373
  271MOL   C12838468   4.382   4.763   2.708  0.5365 -0.1609 -0.3502
  271MOL   C12938469   4.461   4.818   2.591  0.6393 -0.0729  0.5078
  271MOL   O13038470   4.524   4.707   2.532 -0.2407  0.3669 -0.0341
  271MOL   H13138471   4.450   4.692   2.757  0.1782  0.2516  0.7622
  271MOL   H13238472   4.305   4.690   2.685 -0.2110  0.6556 -0.4439
  271MOL   H13338473   4.543   4.886   2.617  0.3588  1.4792 -2.5491
  271MOL   H13438474   4.610   4.737   2.507  0.1464 -0.0665  0.7573
  271MOL   C13538475   4.371   4.883   2.481  0.1616  0.1414  0.7009
  271MOL   C13638476   4.257   4.796   2.427  0.4278 -0.0938  0.1539
  271MOL   O13738477   4.184   4.863   2.322  0.4410  0.8074 -0.3721
  271MOL   H13838478   4.330   4.979   2.510  2.2345  0.4419  2.7526
  271MOL   H13938479   4.432   4.915   2.396  0.7673 -1.8358  0.3585
  271MOL   H14038480   4.189   4.763   2.506 -0.7180  0.1300 -0.7218
  271MOL   H14138481   4.164   4.809   2.247  0.6238  0.2167  0.0010
  271MOL   H14238482   4.307   4.709   2.383  0.8537 -0.1473  0.7366
  272MOL     C138483   2.409   6.866   6.821 -0.4008  0.4787  0.2878
  272MOL     C238484   2.351   6.924   6.692 -0.0186 -0.6404 -0.5582
  272MOL     O338485   2.254   7.016   6.747  0.3063 -0.2533 -0.0532
  272MOL     H438486   2.477   6.941   6.862  1.2799 -0.6349 -0.4029
  272MOL     H538487   2.470   6.776   6.809 -1.7724 -0.5262  0.6441
  272MOL     H638488   2.287   6.860   6.631 -1.8431  1.2695 -0.7004
  272MOL     H738489   2.201   7.055   6.679  0.9579 -0.8631 -0.9180
  272MOL     H838490   2.332   6.836   6.893  0.1202 -0.2823  0.5422
  272MOL     C938491   2.453   7.012   6.600 -0.2853  0.1951  0.4580
  272MOL    C1038492   2.539   6.929   6.508 -0.2605  0.4772 -0.3380
  272MOL    O1138493   2.567   6.999   6.387 -0.1884  0.4741  0.0711
  272MOL    H1238494   2.396   7.075   6.532 -1.6309 -1.0569  0.4159
  272MOL    H1338495   2.530   7.074   6.648  1.0981  1.5925 -3.3957
  272MOL    H1438496   2.467   6.850   6.487 -0.5826  0.7584 -0.2902
  272MOL    H1538497   2.594   7.086   6.413  1.2226  0.2385 -0.5499
  272MOL    C1638498   2.669   6.882   6.578 -0.4014  0.4242 -0.2723
  272MOL    C1738499   2.773   6.806   6.486 -0.4041 -0.4047  0.0347
  272MOL    O1838500   2.891   6.797   6.565  0.2083 -0.0178  0.3758
  272MOL    H1938501   2.730   6.965   6.612  1.4870 -0.7504 -0.7061
  272MOL    H2038502   2.647   6.820   6.665  0.8672  1.3716  0.7554
  272MOL    H2138503   2.799   6.861   6.396 -0.4763 -0.3173  0.0675
  272MOL    H2238504   2.943   6.875   6.575  1.3709 -0.7354 -0.0831
  272MOL    C2338505   2.737   6.666   6.440 -0.1700  1.0248 -0.4580
  272MOL    C2438506   2.631   6.656   6.322  1.0308 -0.0097 -0.4303
  272MOL    O2538507   2.650   6.762   6.233  0.1351 -0.2300  0.1584
  272MOL    H2638508   2.823   6.615   6.396 -1.4162 -1.7282  0.2055
  272MOL    H2738509   2.704   6.599   6.519 -3.1469  1.4805 -1.2673
  272MOL    H2838510   2.532   6.672   6.364  1.7416 -0.2223  1.3800
  272MOL    H2938511   2.623   6.841   6.277  1.7322 -0.5391  1.7578
  272MOL    C3038512   2.625   6.528   6.241  0.1015  0.3115  0.0203
  272MOL    C3138513   2.577   6.409   6.335  0.0248 -0.7355  0.1568
  272MOL    O3238514   2.437   6.437   6.359 -0.4717 -0.5490  0.3968
  272MOL    H3338515   2.555   6.552   6.161  1.0103 -0.0984 -0.8996
  272MOL    H3438516   2.723   6.503   6.201 -0.2083 -2.0831  0.6748
  272MOL    H3538517   2.618   6.407   6.436 -1.1398 -0.8254  0.6346
  272MOL    H3638518   2.393   6.355   6.344  0.0609 -0.6638 -0.5693
  272MOL    C3738519   2.591   6.266   6.273  0.1674  0.8480 -0.0696
  272MOL    C3838520   2.731   6.201   6.318  0.4079 -0.4418  0.1659
  272MOL    O3938521   2.723   6.183   6.458 -0.1428  0.8350  0.0525
  272MOL    H4038522   2.522   6.186   6.301  2.3646 -1.2690 -0.4886
  272MOL    H4138523   2.585   6.270   6.165  2.2368  0.2993 -0.2325
  272MOL    H4238524   2.811   6.273   6.297 -0.0778  0.5906  1.7253
  272MOL    H4338525   2.814   6.172   6.483 -0.3557 -0.2458  0.3392
  272MOL    C4438526   2.751   6.066   6.248 -0.8311 -0.0908  0.0319
  272MOL    C4538527   2.848   6.060   6.135 -0.3391  0.0714 -0.8864
  272MOL    O4638528   2.836   5.934   6.074  0.2632 -0.2797 -0.2100
  272MOL    H4738529   2.775   5.994   6.326 -0.0005 -1.6333 -1.6192
  272MOL    H4838530   2.656   6.023   6.216 -0.2623 -0.4438 -1.1668
  272MOL    H4938531   2.951   6.065   6.169  0.0588 -0.0043 -2.0476
  272MOL    H5038532   2.874   5.878   6.140 -0.5661 -0.0394  0.4854
  272MOL    C5138533   2.819   6.157   6.019  0.8034 -0.2559 -0.2332
  272MOL    C5238534   2.939   6.167   5.920  0.1604  0.5071  0.4396
  272MOL    O5338535   2.880   6.240   5.807  0.0778 -0.0002 -0.3426
  272MOL    H5438536   2.725   6.128   5.972 -0.3719  1.2965  1.1183
  272MOL    H5538537   2.799   6.262   6.038  2.0909 -0.0737  0.1706
  272MOL    H5638538   2.959   6.067   5.881  1.7393  0.7357  0.6372
  272MOL    H5738539   2.889   6.187   5.729 -1.5780 -0.8193 -0.0109
  272MOL    C5838540   3.057   6.248   5.957 -0.4784 -0.9932  0.5146
  272MOL    C5938541   3.172   6.257   5.856 -0.6809  0.4761 -0.1946
  272MOL    O6038542   3.250   6.371   5.906 -0.7962  0.5236  0.0472
  272MOL    H6138543   3.025   6.348   5.984 -0.4931 -0.4558 -1.4213
  272MOL    H6238544   3.097   6.216   6.053 -1.0349 -1.3577  0.6272
  272MOL    H6338545   3.145   6.289   5.755  1.4942 -1.0178 -1.2995
  272MOL    H6438546   3.259   6.427   5.830  0.2205  2.1394  1.3140
  272MOL    C6538547   3.254   6.130   5.847 -0.1724 -0.5394  0.1042
  272MOL    C6638548   3.359   6.125   5.734  0.4979 -0.5219  0.5998
  272MOL    O6738549   3.441   6.008   5.754 -0.2009  0.4274  0.4691
  272MOL    H6838550   3.312   6.126   5.939  1.6558 -0.9910 -1.0199
  272MOL    H6938551   3.189   6.043   5.849  0.5895 -1.0897  1.2033
  272MOL    H7038552   3.426   6.210   5.746  0.1514 -0.2706  0.7474
  272MOL    H7138553   3.420   5.940   5.692 -1.7185 -1.9059  3.4276
  272MOL    C7238554   3.295   6.129   5.597  0.1478  0.7369 -0.0236
  272MOL    C7338555   3.390   6.117   5.474 -1.1309  0.1605 -0.1891
  272MOL    O7438556   3.335   6.040   5.376  0.0794 -0.3722  0.0501
  272MOL    H7538557   3.228   6.045   5.583 -1.5017  1.8459  0.9295
  272MOL    H7638558   3.222   6.209   5.586 -4.0019 -2.4863  2.8468
  272MOL    H7738559   3.476   6.059   5.508  0.3636  1.2570 -1.9944
  272MOL    H7838560   3.341   5.952   5.408  1.6370 -0.9447 -1.7631
  272MOL    C7938561   3.436   6.255   5.422  0.6164  0.2342 -0.3153
  272MOL    C8038562   3.542   6.247   5.310 -0.3394  1.4360 -0.0398
  272MOL    O8138563   3.513   6.356   5.228  0.3895  0.1144  0.3158
  272MOL    H8238564   3.339   6.292   5.390 -0.7416 -2.1082  0.9783
  272MOL    H8338565   3.476   6.315   5.504 -3.6646  0.5796  1.6334
  272MOL    H8438566   3.527   6.153   5.257 -0.6575  2.2133 -1.3533
  272MOL    H8538567   3.435   6.402   5.253  0.6283  0.2860  0.7360
  272MOL    C8638568   3.691   6.271   5.346  0.1070  0.2016 -0.0699
  272MOL    C8738569   3.746   6.150   5.426 -0.6296 -0.6634 -0.2641
  272MOL    O8838570   3.740   6.032   5.345  0.5269 -0.3239  0.2302
  272MOL    H8938571   3.737   6.290   5.249  0.2726 -1.6494 -0.3703
  272MOL    H9038572   3.691   6.367   5.398  2.0707  1.0847 -1.6472
  272MOL    H9138573   3.682   6.132   5.512  1.2772 -1.5188  0.9955
  272MOL    H9238574   3.826   5.998   5.323 -0.0842 -0.4266 -2.1558
  272MOL    C9338575   3.892   6.186   5.462  0.5967 -0.1506 -0.3088
  272MOL    C9438576   3.902   6.309   5.560 -0.6068 -0.0549  0.3252
  272MOL    O9538577   3.877   6.261   5.687  0.0369  0.1565  0.1416
  272MOL    H9638578   3.930   6.096   5.509 -0.9631 -0.5088  0.3023
  272MOL    H9738579   3.942   6.205   5.367 -0.3974  1.3892 -0.5428
  272MOL    H9838580   3.835   6.394   5.542 -1.4199 -0.5053  1.2005
  272MOL    H9938581   3.917   6.325   5.745  1.6805 -1.2044  0.5325
  272MOL   C10038582   4.048   6.356   5.573 -0.4296  0.9776  0.4677
  272MOL   C10138583   4.119   6.418   5.447  0.3088  0.0715 -1.0299
  272MOL   O10238584   4.171   6.313   5.379  0.1642 -0.1671  0.1117
  272MOL   H10338585   4.056   6.434   5.649  1.9361 -2.2119  3.6880
  272MOL   H10438586   4.118   6.285   5.616  0.8492  0.1414 -2.8455
  272MOL   H10538587   4.197   6.490   5.473  1.0344  0.4354 -3.9589
  272MOL   H10638588   4.228   6.272   5.442  0.2160 -0.3294 -0.0389
  272MOL   C10738589   4.026   6.499   5.350  0.0408  0.3566 -0.0390
  272MOL   C10838590   3.941   6.622   5.402 -0.2961 -0.1245  0.4555
  272MOL   O10938591   4.039   6.713   5.453 -0.1259  0.4044  0.2509
  272MOL   H11038592   4.100   6.519   5.273  0.3763 -2.8849 -0.6257
  272MOL   H11138593   3.956   6.422   5.316 -0.9762  0.2583  2.1581
  272MOL   H11238594   3.867   6.591   5.475 -1.4252  0.2042 -0.5280
  272MOL   H11338595   4.098   6.719   5.379 -2.8080  0.0405 -2.0127
  272MOL   C11438596   3.860   6.705   5.298  0.2213  0.3949 -0.6749
  272MOL   C11538597   3.740   6.630   5.235  0.8421 -0.6260 -0.1900
  272MOL   O11638598   3.646   6.592   5.334  0.2585 -0.6525  0.2803
  272MOL   H11738599   3.843   6.797   5.354  3.0677  0.3628  0.3557
  272MOL   H11838600   3.931   6.726   5.217  2.3598 -2.1159  0.4745
  272MOL   H11938601   3.779   6.541   5.184  1.2695  1.2841 -3.3655
  272MOL   H12038602   3.585   6.530   5.297 -0.9681  0.7992 -0.2081
  272MOL   C12138603   3.664   6.711   5.129  0.2957  0.0903  0.5755
  272MOL   C12238604   3.740   6.766   5.013  0.1921 -0.1349 -0.0864
  272MOL   O12338605   3.797   6.886   5.051 -0.0376 -0.0799 -0.4831
  272MOL   H12438606   3.593   6.642   5.083  2.1724 -1.2286 -0.3960
  272MOL   H12538607   3.609   6.796   5.171  0.9805  1.4780 -1.2811
  272MOL   H12638608   3.670   6.798   4.936  1.1202 -0.2055 -0.9711
  272MOL   H12738609   3.767   6.949   4.988 -3.5270 -0.5479  0.6379
  272MOL   C12838610   3.837   6.671   4.936 -0.4076 -0.5300  0.3466
  272MOL   C12938611   3.887   6.718   4.796 -0.1909  0.2061  0.4377
  272MOL   O13038612   3.988   6.818   4.810 -0.1439  0.4826 -0.0678
  272MOL   H13138613   3.927   6.640   4.990  0.3012  0.3783 -0.2772
  272MOL   H13238614   3.781   6.579   4.924  1.3758 -1.6345  0.3824
  272MOL   H13338615   3.809   6.764   4.734  0.3486 -0.4388 -0.7413
  272MOL   H13438616   3.946   6.895   4.844 -0.4771  0.5805 -0.6838
  272MOL   C13538617   3.949   6.605   4.712  0.0043 -0.2679  0.0733
  272MOL   C13638618   3.848   6.517   4.649 -0.5169  0.6194 -0.7642
  272MOL   O13738619   3.891   6.449   4.536  0.5034 -0.3508 -0.1233
  272MOL   H13838620   4.012   6.653   4.637  0.2306  0.8189  0.9391
  272MOL   H13938621   4.026   6.550   4.766  2.6481  0.5781 -2.6551
  272MOL   H14038622   3.755   6.559   4.612 -1.7841  0.0044  1.6326
  272MOL   H14138623   3.962   6.394   4.565 -0.3454 -0.7409  1.2353
  272MOL   H14238624   3.825   6.449   4.731 -0.4632 -0.4742 -1.6387
  273MOL     C138625   6.263   1.343   6.986 -0.5193 -0.8980  0.3795
  273MOL     C238626   6.255   1.199   7.032 -0.4371 -0.2995 -0.1335
  273MOL     O338627   6.224   1.125   6.911 -0.4151  0.2758 -0.1126
  273MOL     H438628   6.340   1.371   6.914 -0.4829 -0.9250  0.4079
  273MOL     H538629   6.292   1.400   7.075 -0.6496  3.3601 -2.1782
  273MOL     H638630   6.170   1.199   7.100  0.8376 -0.9028  1.4929
  273MOL     H738631   6.150   1.164   6.867  0.0758  0.2219 -0.9878
  273MOL     H838632   6.169   1.390   6.955 -0.2199 -1.0628 -0.7628
  273MOL     C938633   6.384   1.145   7.094 -0.3006 -0.5783 -0.0859
  273MOL    C1038634   6.376   1.005   7.144 -0.7876  0.9882  0.2338
  273MOL    O1138635   6.513   0.970   7.175 -0.6073  0.9121 -0.3443
  273MOL    H1238636   6.455   1.155   7.012  0.3573  0.6203  0.6168
  273MOL    H1338637   6.417   1.212   7.173 -2.3840  1.0475 -0.5464
  273MOL    H1438638   6.329   0.937   7.073  0.9185 -0.3310  0.3252
  273MOL    H1538639   6.534   0.978   7.267  2.2723 -0.1574 -0.8860
  273MOL    C1638640   6.297   0.993   7.273  0.0040 -0.4010 -0.5540
  273MOL    C1738641   6.223   0.856   7.288 -0.4412  0.4742 -0.3313
  273MOL    O1838642   6.215   0.830   7.422  0.3126  0.2754 -0.3177
  273MOL    H1938643   6.348   1.022   7.365 -1.6522 -1.0157  0.5845
  273MOL    H2038644   6.216   1.066   7.261  0.4289  0.3731  1.1275
  273MOL    H2138645   6.285   0.776   7.248  0.8713  0.7894  1.0088
  273MOL    H2238646   6.277   0.763   7.448  0.5753  0.2107 -1.1047
  273MOL    C2338647   6.087   0.860   7.214  1.4705  0.4660  0.7735
  273MOL    C2438648   5.997   0.738   7.233  1.0499  0.1698  0.2027
  273MOL    O2538649   5.867   0.786   7.187  0.1996  0.1366  0.0002
  273MOL    H2638650   6.034   0.952   7.239  1.3777  0.7134 -0.3247
  273MOL    H2738651   6.105   0.878   7.108  1.3598 -0.6718  0.5545
  273MOL    H2838652   5.997   0.722   7.341 -0.0710 -1.0909  0.0396
  273MOL    H2938653   5.831   0.833   7.261 -2.9128 -0.5289 -1.0306
  273MOL    C3038654   6.043   0.610   7.163  0.7203 -0.2696 -0.4481
  273MOL    C3138655   6.021   0.487   7.249 -0.7646 -0.2366 -0.0521
  273MOL    O3238656   6.039   0.383   7.163 -0.2209 -0.1598 -0.0169
  273MOL    H3338657   5.987   0.606   7.070  0.4930  0.1508 -0.3306
  273MOL    H3438658   6.149   0.614   7.139  0.9903  2.1863  0.9467
  273MOL    H3538659   5.918   0.490   7.284 -0.1599  0.8793  1.7341
  273MOL    H3638660   5.974   0.386   7.094 -0.5941 -0.9746  0.2883
  273MOL    C3738661   6.114   0.463   7.369  0.4997  0.4073  0.2286
  273MOL    C3838662   6.086   0.332   7.457  0.2092 -0.0302 -0.6954
  273MOL    O3938663   6.202   0.290   0.007  0.1392 -0.1202 -0.0601
  273MOL    H4038664   6.219   0.455   7.340  0.5598  0.7277  0.3640
  273MOL    H4138665   6.105   0.551   7.432  1.0618  0.8159 -0.2626
  273MOL    H4238666   6.063   0.253   7.385  4.3327 -1.4147 -0.6512
  273MOL    H4338667   6.266   0.283   7.457  0.2815  0.4362  0.0165
  273MOL    C4438668   5.976   0.344   0.045 -0.2414  0.0566  0.3539
  273MOL    C4538669   5.935   0.203   0.090 -0.2204 -0.1405  0.3201
  273MOL    O4638670   6.044   0.157   0.173 -0.3360 -0.0501  0.6012
  273MOL    H4738671   6.007   0.412   0.124  0.6899 -2.0656  1.8595
  273MOL    H4838672   5.896   0.385   7.503  0.8371  2.0235  0.2275
  273MOL    H4938673   5.918   0.138   0.004 -2.8521 -0.5607  1.1086
  273MOL    H5038674   6.119   0.192   0.128 -0.3498 -2.4258 -1.3410
  273MOL    C5138675   5.811   0.199   0.177  0.4019 -0.1910 -0.2534
  273MOL    C5238676   5.681   0.228   0.100 -0.1601 -1.0932  0.0749
  273MOL    O5338677   5.653   0.128   0.003 -0.2411 -0.0502 -0.3193
  273MOL    H5438678   5.798   0.102   0.226 -3.1449  0.6747  0.7115
  273MOL    H5538679   5.820   0.270   0.259 -1.2584  2.5093 -2.3041
  273MOL    H5638680   5.688   0.324   0.049  1.7793 -1.6112 -0.6870
  273MOL    H5738681   5.670   0.161   7.435  0.4620 -0.4955 -0.3529
  273MOL    C5838682   5.556   0.241   0.184  0.6269 -0.2480 -0.1256
  273MOL    C5938683   5.576   0.346   0.295  0.1338  0.4463  0.4871
  273MOL    O6038684   5.586   0.471   0.232  0.2973 -0.0770 -0.3724
  273MOL    H6138685   5.474   0.265   0.116  0.8023  2.5478  0.5940
  273MOL    H6238686   5.540   0.144   0.232  0.1821 -0.6256 -1.0178
  273MOL    H6338687   5.654   0.324   0.368 -0.0754 -2.4068 -0.0758
  273MOL    H6438688   5.535   0.516   0.297  0.0761 -0.4101 -0.3151
  273MOL    C6538689   5.454   0.361   0.385  0.0599  0.7220 -0.4072
  273MOL    C6638690   5.481   0.444   0.516 -0.9617  0.1083  0.7417
  273MOL    O6738691   5.479   0.580   0.468  0.5882  0.3939  0.3982
  273MOL    H6838692   5.365   0.395   0.331 -0.4833  0.7619  0.5000
  273MOL    H6938693   5.431   0.256   0.404  3.3438 -0.0829 -0.6055
  273MOL    H7038694   5.581   0.428   0.559 -1.6308  2.0768  3.1553
  273MOL    H7138695   5.509   0.635   0.538 -0.8555  1.5156  0.1560
  273MOL    C7238696   5.381   0.435   0.628  0.2133 -0.8908 -0.0568
  273MOL    C7338697   5.323   0.298   0.665 -0.1850 -0.3906 -0.5282
  273MOL    O7438698   5.421   0.235   0.751  0.2176  0.4609 -0.0750
  273MOL    H7538699   5.408   0.483   0.722 -2.6234 -0.6727  0.7099
  273MOL    H7638700   5.299   0.489   0.579  0.0796 -1.5589 -0.5669
  273MOL    H7738701   5.300   0.232   0.581 -1.9997 -1.9244  1.1078
  273MOL    H7838702   5.430   0.143   0.732  0.4978  0.9515 -2.4513
  273MOL    C7938703   5.187   0.307   0.740 -0.2398 -0.3647 -0.3672
  273MOL    C8038704   5.057   0.379   0.676  0.1012  0.0074  0.2451
  273MOL    O8138705   5.045   0.323   0.544  0.2579 -0.1279 -1.1463
  273MOL    H8238706   5.152   0.208   0.772  1.0301  0.0906  2.5312
  273MOL    H8338707   5.206   0.360   0.833 -1.8106  1.8757 -1.2688
  273MOL    H8438708   5.080   0.486   0.672 -1.4870  0.3531  0.3026
  273MOL    H8538709   5.058   0.230   0.543 -1.7096 -0.4354 -0.8767
  273MOL    C8638710   4.926   0.351   0.748 -0.2266 -0.0850 -0.5908
  273MOL    C8738711   4.913   0.417   0.886  0.6148  0.2136 -0.8008
  273MOL    O8838712   4.881   0.554   0.864  0.3630 -0.1904  0.3792
  273MOL    H8938713   4.833   0.366   0.693 -0.0741 -1.9655 -1.3745
  273MOL    H9038714   4.921   0.243   0.764 -1.2581  0.1414  0.7880
  273MOL    H9138715   5.007   0.411   0.941  1.3464 -0.8433 -2.1223
  273MOL    H9238716   4.803   0.559   0.811  0.8574  0.2840 -0.3301
  273MOL    C9338717   4.805   0.343   0.958  0.1850  0.5374 -0.4509
  273MOL    C9438718   4.781   0.410   1.102 -0.1480 -0.2076 -0.2696
  273MOL    O9538719   4.676   0.335   1.163 -0.9310 -0.1904  0.4583
  273MOL    H9638720   4.711   0.336   0.904  0.1144  0.4869 -0.3203
  273MOL    H9738721   4.835   0.239   0.962 -0.5791  0.3699  1.3923
  273MOL    H9838722   4.759   0.516   1.094 -0.3116 -0.2747 -0.7372
  273MOL    H9938723   4.660   0.260   1.109 -2.7883 -0.0859  0.8470
  273MOL   C10038724   4.892   0.387   1.197  0.2163  0.5030 -0.3844
  273MOL   C10138725   4.888   0.442   1.338 -1.1925  0.4028  0.4208
  273MOL   O10238726   4.994   0.387   1.412  0.1395  0.3797 -0.8054
  273MOL   H10338727   4.919   0.282   1.190  2.4414  0.9261  1.1503
  273MOL   H10438728   4.986   0.431   1.165  1.1305  0.5334  2.1752
  273MOL   H10538729   4.802   0.406   1.394  1.1074 -0.8271  3.2236
  273MOL   H10638730   5.014   0.302   1.376  1.6478  0.7397 -0.8407
  273MOL   C10738731   4.909   0.591   1.355  0.4766  0.9302 -0.1656
  273MOL   C10838732   4.785   0.674   1.367  0.0196  0.2886 -0.1128
  273MOL   O10938733   4.708   0.642   1.487 -0.2168 -0.8184 -0.3952
  273MOL   H11038734   4.973   0.606   1.442  0.5840  0.8614 -0.2330
  273MOL   H11138735   4.978   0.635   1.282 -1.2348  3.3900 -0.3509
  273MOL   H11238736   4.722   0.663   1.278  2.0446 -2.6979 -1.2569
  273MOL   H11338737   4.642   0.580   1.461 -0.6288 -1.1774  1.4632
  273MOL   C11438738   4.842   0.823   1.373 -0.1053 -0.2090 -0.0251
  273MOL   C11538739   4.735   0.926   1.406  0.2644 -0.1456  0.8483
  273MOL   O11638740   4.788   1.022   1.501 -0.2318 -0.0831 -0.2237
  273MOL   H11738741   4.922   0.827   1.447  1.5412  0.2509 -1.7620
  273MOL   H11838742   4.886   0.845   1.275 -0.2953  2.0571  0.3720
  273MOL   H11938743   4.643   0.882   1.445 -0.2131 -0.6255 -0.7875
  273MOL   H12038744   4.829   0.974   1.571 -0.8958  0.2557  0.3951
  273MOL   C12138745   4.693   1.006   1.282  0.1348 -0.0121  0.2953
  273MOL   C12238746   4.614   0.921   1.179 -0.2029  0.4566 -0.4289
  273MOL   O12338747   4.492   0.881   1.235 -0.5296 -0.4295 -1.0039
  273MOL   H12438748   4.624   1.083   1.318  0.8736  0.9726 -0.3769
  273MOL   H12538749   4.782   1.051   1.239  1.3445 -1.2227  1.4415
  273MOL   H12638750   4.666   0.828   1.157  2.2182  1.5192  0.5526
  273MOL   H12738751   4.459   0.816   1.175  0.9073 -1.7653 -0.3800
  273MOL   C12838752   4.593   1.012   1.054  0.1134  0.2156  0.4513
  273MOL   C12938753   4.538   0.954   0.920 -0.0443 -0.8851  0.2547
  273MOL   O13038754   4.514   1.058   0.821 -0.3126  0.6020 -0.3650
  273MOL   H13138755   4.521   1.085   1.093  1.1814 -0.2209  3.3470
  273MOL   H13238756   4.685   1.067   1.038 -0.6991  1.8452  1.1687
  273MOL   H13338757   4.443   0.905   0.942 -1.0599  1.1695  0.5960
  273MOL   H13438758   4.453   1.119   0.860  0.0475  0.4796  0.3920
  273MOL   C13538759   4.636   0.853   0.846 -0.0486 -0.0448 -0.8334
  273MOL   C13638760   4.582   0.708   0.846  0.8378 -0.1102  0.2456
  273MOL   O13738761   4.629   0.613   0.749  0.3648  0.2852  0.3685
  273MOL   H13838762   4.647   0.897   0.747  2.6009  0.2217 -0.4448
  273MOL   H13938763   4.732   0.847   0.896 -0.2862 -0.4199 -0.4215
  273MOL   H14038764   4.478   0.715   0.814  0.6624  0.0500  0.8379
  273MOL   H14138765   4.634   0.662   0.669 -0.2612 -1.1890 -0.5910
  273MOL   H14238766   4.580   0.667   0.947  0.8890  0.7604  0.6080
  274MOL     C138767   0.044   0.917   5.077  0.1072 -0.1991 -0.3617
  274MOL     C238768   0.127   0.931   4.950  0.6761  0.3533  0.3750
  274MOL     O338769   0.259   0.941   5.002  0.7375 -0.4963  0.3146
  274MOL     H438770   0.067   0.831   5.140  0.0446  1.1577  1.5229
  274MOL     H538771   7.459   0.906   5.049 -0.0200 -1.3335  0.5232
  274MOL     H638772   0.118   1.032   4.908  1.1489 -0.1543 -0.9766
  274MOL     H738773   0.251   1.014   5.061  1.2725  0.7476 -1.1373
  274MOL     H838774   0.062   0.996   5.150 -0.7556 -1.1914  0.9371
  274MOL     C938775   0.112   0.836   4.831 -0.3348 -0.4842 -0.6042
  274MOL    C1038776   0.021   0.895   4.721  0.2797  0.5287  0.4733
  274MOL    O1138777   0.046   0.819   4.601 -0.2238 -0.2420 -0.2014
  274MOL    H1238778   0.213   0.814   4.797 -0.2625 -0.2838 -0.5232
  274MOL    H1338779   0.072   0.737   4.849 -0.1061 -0.7176 -1.3480
  274MOL    H1438780   0.039   1.001   4.705 -0.1055  0.4838 -0.2514
  274MOL    H1538781   0.018   0.881   4.536  0.4960  1.8203  1.4196
  274MOL    C1638782   7.389   0.894   4.769  0.3469 -0.0996  0.5451
  274MOL    C1738783   7.294   0.975   4.682  0.9732  0.3493 -0.2563
  274MOL    O1838784   7.158   0.944   4.711 -0.0910 -0.3066 -0.7524
  274MOL    H1938785   7.355   0.791   4.776 -0.1817 -0.0166 -0.6855
  274MOL    H2038786   7.376   0.932   4.870 -1.1687  0.3989  0.1699
  274MOL    H2138787   7.313   0.941   4.580 -1.3549  0.7541 -0.8516
  274MOL    H2238788   7.150   0.849   4.711  0.9242 -0.3973 -0.6540
  274MOL    C2338789   7.313   1.130   4.696  0.3446 -0.6060 -0.7319
  274MOL    C2438790   7.322   1.195   4.845  0.5490 -0.4573 -0.0752
  274MOL    O2538791   7.398   1.315   4.853 -0.3586 -0.6885  0.6762
  274MOL    H2638792   7.404   1.156   4.642  1.4155  0.0230  1.2905
  274MOL    H2738793   7.237   1.195   4.654  1.2662  0.7587 -0.3159
  274MOL    H2838794   7.379   1.122   4.902  0.6436  0.3547  0.8685
  274MOL    H2938795   7.378   1.362   4.774  0.9465 -3.5370 -1.4247
  274MOL    C3038796   7.182   1.226   4.910  0.2838  0.2304 -0.5431
  274MOL    C3138797   7.190   1.271   5.062  0.4619 -0.8033 -0.0904
  274MOL    O3238798   7.243   1.402   5.066 -0.1833 -0.1522  0.1772
  274MOL    H3338799   7.134   1.298   4.844 -1.8753  0.7330  1.4906
  274MOL    H3438800   7.127   1.132   4.912 -0.7554  0.8610  1.2449
  274MOL    H3538801   7.253   1.200   5.116  1.1358 -0.3586 -0.2877
  274MOL    H3638802   7.286   1.409   4.983  0.5502  1.0022  0.6432
  274MOL    C3738803   7.060   1.266   5.138  0.0575  0.5911  0.0020
  274MOL    C3838804   6.948   1.357   5.090  0.0231 -0.2674  1.0515
  274MOL    O3938805   6.825   1.306   5.127 -0.2400  0.6570 -0.6174
  274MOL    H4038806   7.026   1.163   5.126 -0.9009  0.8447  0.5098
  274MOL    H4138807   7.062   1.283   5.245  1.1085 -0.0571  0.0949
  274MOL    H4238808   6.964   1.374   4.983 -2.3198  0.7791  0.8255
  274MOL    H4338809   6.803   1.224   5.086  0.1318  0.6322 -0.7627
  274MOL    C4438810   6.946   1.497   5.166 -0.2375 -0.2353  0.4980
  274MOL    C4538811   6.854   1.602   5.109  0.1881 -0.5765  0.2853
  274MOL    O4638812   6.857   1.725   5.186  0.7317  0.5962  0.7826
  274MOL    H4738813   6.925   1.480   5.271 -1.5384  0.3126  0.3292
  274MOL    H4838814   7.049   1.533   5.161  0.2642 -1.6804 -0.0764
  274MOL    H4938815   6.751   1.568   5.121  1.0342 -2.3968  2.8436
  274MOL    H5038816   6.776   1.732   5.234 -0.4465  1.0530 -1.2400
  274MOL    C5138817   6.873   1.650   4.965  0.1397  0.1046  0.2743
  274MOL    C5238818   6.762   1.747   4.916 -0.0064  0.9702 -0.4364
  274MOL    O5338819   6.817   1.869   4.920  0.0300  0.2795  0.1657
  274MOL    H5438820   6.968   1.702   4.958  1.1075 -1.8608 -1.9889
  274MOL    H5538821   6.876   1.564   4.898  2.2135  1.4729 -1.4265
  274MOL    H5638822   6.675   1.748   4.982 -0.0458 -1.3021 -0.3942
  274MOL    H5738823   6.868   1.874   4.998  0.9702 -0.2027 -0.4103
  274MOL    C5838824   6.718   1.728   4.769  0.6836 -0.1619 -0.1286
  274MOL    C5938825   6.589   1.646   4.753 -0.3232  0.1271 -0.1296
  274MOL    O6038826   6.552   1.655   4.618  0.3321 -0.0274  0.0381
  274MOL    H6138827   6.701   1.822   4.716  0.7140  0.1916  0.4782
  274MOL    H6238828   6.799   1.683   4.712  0.9027  1.4518 -1.1312
  274MOL    H6338829   6.515   1.706   4.806  0.6410  1.8545 -0.6739
  274MOL    H6438830   6.540   1.746   4.596  0.0298  0.3168  1.5456
  274MOL    C6538831   6.593   1.494   4.802  0.8124  0.5836 -0.4803
  274MOL    C6638832   6.457   1.430   4.855 -0.3028  0.4838  0.2417
  274MOL    O6738833   6.466   1.290   4.842  0.5166 -0.1809 -0.1985
  274MOL    H6838834   6.618   1.425   4.721 -0.0348 -0.6053  0.2424
  274MOL    H6938835   6.670   1.478   4.877  0.1555 -0.2744  0.0210
  274MOL    H7038836   6.370   1.463   4.800 -0.0011  0.9946  0.0607
  274MOL    H7138837   6.454   1.268   4.751 -0.7299 -2.9583  0.5544
  274MOL    C7238838   6.428   1.456   5.005  0.3859  0.2748 -0.7781
  274MOL    C7338839   6.405   1.603   5.051 -0.4220  0.9986  0.7892
  274MOL    O7438840   6.287   1.642   4.983 -0.3335 -0.0420 -0.0856
  274MOL    H7538841   6.345   1.397   5.043  0.2862  1.1279  0.3834
  274MOL    H7638842   6.515   1.418   5.059  0.2185 -0.9112 -1.3388
  274MOL    H7738843   6.488   1.664   5.016  1.3689 -0.9546  1.4825
  274MOL    H7838844   6.219   1.576   4.987 -1.2671  0.9937  1.6561
  274MOL    C7938845   6.387   1.622   5.198  0.3896 -0.5841  0.2861
  274MOL    C8038846   6.502   1.583   5.288 -0.2087  0.0168  0.1498
  274MOL    O8138847   6.603   1.686   5.270 -0.5905  0.1436  0.3003
  274MOL    H8238848   6.357   1.727   5.205  0.5116 -0.4249 -1.4237
  274MOL    H8338849   6.297   1.566   5.223  0.7121 -0.6863  1.2318
  274MOL    H8438850   6.547   1.487   5.266  1.4685  1.2904 -2.2195
  274MOL    H8538851   6.568   1.770   5.296  0.5176 -0.0106  2.3685
  274MOL    C8638852   6.456   1.584   5.430 -0.1466 -0.0890  0.0127
  274MOL    C8738853   6.561   1.536   5.532  0.5730 -0.3764  0.3607
  274MOL    O8838854   6.535   1.598   5.654 -0.4054  0.6249 -1.1730
  274MOL    H8938855   6.424   1.685   5.455 -0.9319 -0.7646  1.7892
  274MOL    H9038856   6.366   1.526   5.448 -0.7526  1.3137  1.6660
  274MOL    H9138857   6.662   1.571   5.508 -0.1395  0.4962 -1.5044
  274MOL    H9238858   6.616   1.601   5.703  0.4907  0.1736 -2.5982
  274MOL    C9338859   6.580   1.385   5.537  0.4202 -0.1262  0.7255
  274MOL    C9438860   6.714   1.337   5.602  0.2827 -0.7186  0.3729
  274MOL    O9538861   6.699   1.197   5.638 -0.4304  0.7554 -0.3856
  274MOL    H9638862   6.507   1.340   5.603  1.8406 -1.0520  1.6970
  274MOL    H9738863   6.572   1.338   5.439 -0.0350 -1.5099  1.4281
  274MOL    H9838864   6.731   1.392   5.695  3.1700 -0.7374 -0.0891
  274MOL    H9938865   6.651   1.142   5.578  1.1645 -2.2186  0.9658
  274MOL   C10038866   6.842   1.353   5.516 -0.9653 -0.1287  0.1013
  274MOL   C10138867   6.976   1.299   5.575 -0.5654  0.2135  0.4657
  274MOL   O10238868   6.971   1.156   5.569 -0.4356  0.1495  0.4076
  274MOL   H10338869   6.820   1.293   5.428 -0.3153  2.0526 -1.5788
  274MOL   H10438870   6.850   1.459   5.491  0.8328 -0.4963 -0.9945
  274MOL   H10538871   6.985   1.328   5.679 -0.0507  0.6136  0.3109
  274MOL   H10638872   6.908   1.128   5.634 -0.2094 -0.0635  0.5332
  274MOL   C10738873   7.105   1.365   5.517 -0.5242 -0.0161 -0.4883
  274MOL   C10838874   7.182   1.459   5.606 -0.3607 -0.7025  0.1946
  274MOL   O10938875   7.236   1.377   5.719  0.2398 -0.4471  0.3324
  274MOL   H11038876   7.175   1.301   5.464 -1.2662 -1.4475  0.2481
  274MOL   H11138877   7.071   1.437   5.442  0.1890  0.3114 -0.5046
  274MOL   H11238878   7.117   1.537   5.645 -0.7783 -1.8067  1.7694
  274MOL   H11338879   7.320   1.345   5.690 -0.0589  0.5210 -1.6934
  274MOL   C11438880   7.306   1.527   5.536  0.4864  0.2546  0.8074
  274MOL   C11538881   7.271   1.650   5.448 -0.5801  0.7412 -0.4300
  274MOL   O11638882   7.195   1.743   5.529  0.2347 -0.2244 -0.2143
  274MOL   H11738883   7.366   1.565   5.620  1.0204  1.2856 -0.0244
  274MOL   H11838884   7.354   1.447   5.479  0.8964  0.1513  1.2904
  274MOL   H11938885   7.207   1.610   5.369  0.2267 -0.0453 -0.6968
  274MOL   H12038886   7.158   1.807   5.471 -1.5837 -0.8052  0.2751
  274MOL   C12138887   7.399   1.706   5.385  0.0853  0.0062  0.1286
  274MOL   C12238888   7.434   1.613   5.259 -0.1360  0.0917  0.4813
  274MOL   O12338889   7.355   1.644   5.146 -0.2352 -0.1759 -0.4513
  274MOL   H12438890   7.383   1.805   5.343 -0.1367  0.5840  1.5666
  274MOL   H12538891   7.479   1.720   5.458 -0.6090  0.3024  0.8379
  274MOL   H12638892   7.406   1.510   5.283  0.7668 -0.9423 -2.6241
  274MOL   H12738893   7.300   1.569   5.134  0.3088 -0.7720  0.7375
  274MOL   C12838894   0.055   1.611   5.227 -0.6901 -0.2696 -0.2998
  274MOL   C12938895   0.102   1.519   5.105 -0.5031 -0.4221 -0.2068
  274MOL   O13038896   0.207   1.594   5.044 -0.1641 -0.1859 -0.8694
  274MOL   H13138897   0.075   1.718   5.218 -2.8855  0.2686  0.8175
  274MOL   H13238898   0.116   1.577   5.310  1.4804  1.4284 -1.1331
  274MOL   H13338899   0.017   1.504   5.038  0.4313  0.2536 -1.5670
  274MOL   H13438900   0.279   1.600   5.105 -0.5223  2.2513 -0.6259
  274MOL   C13538901   0.152   1.389   5.163 -0.4451  0.2144 -0.1714
  274MOL   C13638902   0.169   1.281   5.059  0.2589 -0.0551  0.5228
  274MOL   O13738903   0.236   1.173   5.124  0.1672  0.1951 -0.1335
  274MOL   H13838904   0.257   1.399   5.190 -0.6094  1.0251  0.1802
  274MOL   H13938905   0.092   1.359   5.248  0.5805 -1.7677 -0.1164
  274MOL   H14038906   0.223   1.314   4.970 -0.5326  0.6327  0.2971
  274MOL   H14138907   0.234   1.182   5.218  1.9929  0.0125 -0.0543
  274MOL   H14238908   0.069   1.248   5.031  0.5906  0.1135 -0.8899
  275MOL     C138909   6.753   3.422   4.786  0.4552  0.1882  1.7343
  275MOL     C238910   6.718   3.467   4.928 -0.0309  0.4469 -0.8508
  275MOL     O338911   6.593   3.407   4.958  0.2000  0.5481  0.1771
  275MOL     H438912   6.853   3.458   4.764  1.1284 -1.1674  2.5582
  275MOL     H538913   6.682   3.467   4.716  1.3627  2.2016  2.0752
  275MOL     H638914   6.710   3.574   4.949  1.0474  0.1879  0.9830
  275MOL     H738915   6.528   3.432   4.895  0.9206  3.8019  0.6817
  275MOL     H838916   6.741   3.315   4.772 -1.5935  0.5001  0.9074
  275MOL     C938917   6.823   3.419   5.032  0.3113 -0.1437 -0.4641
  275MOL    C1038918   6.949   3.509   5.039 -0.1682 -0.8208 -0.0199
  275MOL    O1138919   6.948   3.599   5.146  0.5888 -0.2335  0.3322
  275MOL    H1238920   6.785   3.429   5.134  2.6877  0.1732  0.4287
  275MOL    H1338921   6.839   3.312   5.021  0.3450 -0.2098  0.1952
  275MOL    H1438922   6.943   3.581   4.958 -1.7884 -0.2608  0.5708
  275MOL    H1538923   7.037   3.631   5.145 -0.7317  3.6711 -2.1772
  275MOL    C1638924   7.081   3.426   5.036 -0.0850 -0.1108  0.1136
  275MOL    C1738925   7.107   3.361   4.899  0.2759  0.0454 -0.3339
  275MOL    O1838926   7.146   3.467   4.812  0.3446 -0.2980 -0.6930
  275MOL    H1938927   7.172   3.484   5.052  0.1789  0.3271 -2.6420
  275MOL    H2038928   7.084   3.353   5.117  1.6333  1.3296  1.3959
  275MOL    H2138929   7.018   3.310   4.863 -0.5198 -0.2513  2.0178
  275MOL    H2238930   7.208   3.527   4.850 -1.0958  0.6022  0.2929
  275MOL    C2338931   7.225   3.269   4.873  0.3719 -0.6697 -0.8199
  275MOL    C2438932   7.208   3.124   4.931 -0.5227  0.6741 -0.0675
  275MOL    O2538933   7.316   3.036   4.889  0.7718 -0.6073 -0.0107
  275MOL    H2638934   7.243   3.264   4.765 -0.0631 -2.0235 -0.8321
  275MOL    H2738935   7.318   3.312   4.910  0.4541 -2.9363  1.7300
  275MOL    H2838936   7.121   3.081   4.882  0.1266  1.1724 -1.7152
  275MOL    H2938937   7.290   3.021   4.799 -0.0360 -0.5819  0.2206
  275MOL    C3038938   7.178   3.105   5.077  0.0819 -0.5274 -0.1517
  275MOL    C3138939   7.176   2.965   5.140 -0.3186  0.4373 -0.3819
  275MOL    O3238940   7.175   2.987   5.282  0.0804 -0.0670 -0.1599
  275MOL    H3338941   7.259   3.157   5.128  1.0462  0.2525 -2.3786
  275MOL    H3438942   7.084   3.150   5.107  0.3285  0.8076 -1.3129
  275MOL    H3538943   7.267   2.908   5.119  1.5445  2.7572  1.1457
  275MOL    H3638944   7.264   2.999   5.310  0.5225 -2.7504 -0.2325
  275MOL    C3738945   7.057   2.867   5.094  0.5021  0.4701  0.1710
  275MOL    C3838946   7.071   2.720   5.138 -0.3735  0.1750 -0.0798
  275MOL    O3938947   6.952   2.668   5.093  0.2796 -0.2236  0.1004
  275MOL    H4038948   6.965   2.911   5.133  0.3700  1.4693 -1.2337
  275MOL    H4138949   7.051   2.885   4.987  2.3992 -2.3392 -0.4525
  275MOL    H4238950   7.077   2.700   5.245 -2.3579 -3.6674 -0.6041
  275MOL    H4338951   6.883   2.681   5.156 -0.1835  0.7008 -0.5951
  275MOL    C4438952   7.190   2.646   5.063  0.1724  0.2987  0.3070
  275MOL    C4538953   7.192   2.496   5.091  0.4728 -0.5793  0.6916
  275MOL    O4638954   7.251   2.424   4.983  0.2764  0.5564 -0.4145
  275MOL    H4738955   7.173   2.663   4.956 -1.0107  0.6878  0.5550
  275MOL    H4838956   7.281   2.702   5.084 -0.6790  1.7622  0.1070
  275MOL    H4938957   7.089   2.463   5.097 -0.4603  1.4707 -2.4961
  275MOL    H5038958   7.179   2.373   4.951  1.1026 -2.7609  2.7151
  275MOL    C5138959   7.269   2.470   5.219  0.1718 -0.2937 -0.0330
  275MOL    C5238960   7.237   2.331   5.290  0.1156 -1.1098  0.2574
  275MOL    O5338961   7.336   2.310   5.393  0.5595  0.0500 -0.5097
  275MOL    H5438962   7.371   2.485   5.183 -0.4639 -1.3015 -2.3748
  275MOL    H5538963   7.257   2.551   5.290 -0.5175 -0.5381  0.1356
  275MOL    H5638964   7.243   2.258   5.210 -2.2206 -0.1959 -0.8071
  275MOL    H5738965   7.410   2.284   5.341  0.2581 -1.7004 -0.0745
  275MOL    C5838966   7.095   2.332   5.349  0.3629 -0.0876  0.1134
  275MOL    C5938967   7.049   2.185   5.367  0.6549 -0.2105 -0.0610
  275MOL    O6038968   6.928   2.194   5.434 -0.3197  0.3012 -0.1206
  275MOL    H6138969   7.095   2.404   5.431  0.5492 -1.2067  1.1124
  275MOL    H6238970   7.027   2.385   5.282 -0.9853 -2.1374 -0.1696
  275MOL    H6338971   7.112   2.131   5.437  2.4296  3.4627  1.3293
  275MOL    H6438972   6.884   2.110   5.435 -0.1820  0.2306  0.0868
  275MOL    C6538973   7.026   2.096   5.242 -0.0124 -0.4930  0.0826
  275MOL    C6638974   7.108   1.964   5.252  0.0477 -0.1235 -0.1616
  275MOL    O6738975   7.033   1.886   5.339 -0.2119  0.2811  0.9319
  275MOL    H6838976   6.921   2.080   5.217 -0.7038  1.8797  1.3698
  275MOL    H6938977   7.056   2.146   5.150  0.9376  0.1076  0.7116
  275MOL    H7038978   7.199   1.981   5.310 -0.6648  1.0433  0.6436
  275MOL    H7138979   6.960   1.843   5.296 -0.1883  1.8719 -0.7760
  275MOL    C7238980   7.130   1.881   5.121 -0.6686  0.3078  0.6647
  275MOL    C7338981   7.243   1.954   5.042 -0.2636 -0.2258  0.2260
  275MOL    O7438982   7.354   1.946   5.120 -0.1137  0.1054 -0.1872
  275MOL    H7538983   7.163   1.777   5.129  1.6748  0.7323 -2.5452
  275MOL    H7638984   7.044   1.881   5.055 -1.3734  0.2535  1.5698
  275MOL    H7738985   7.220   2.054   5.004  1.1563  0.8034  2.0006
  275MOL    H7838986   7.387   1.857   5.116 -0.7595 -0.1846  0.7226
  275MOL    C7938987   7.287   1.871   4.912  0.0853  0.7597  0.1809
  275MOL    C8038988   7.401   1.940   4.832 -0.3288 -0.7193 -0.3095
  275MOL    O8138989   7.420   1.842   4.738  0.3908  0.0281  0.2956
  275MOL    H8238990   7.323   1.778   4.957  0.5255  0.2887 -1.1130
  275MOL    H8338991   7.205   1.853   4.842  0.8236 -0.3158 -0.4197
  275MOL    H8438992   7.486   1.947   4.901 -0.4147 -0.2848 -0.2448
  275MOL    H8538993   7.471   1.771   4.772  1.0983  1.0637  1.4482
  275MOL    C8638994   7.360   2.074   4.763 -0.0344  0.8578 -0.1080
  275MOL    C8738995   7.472   2.119   4.665 -0.3376  0.7145 -0.6459
  275MOL    O8838996   7.489   2.035   4.545  0.9192 -0.1972 -0.3582
  275MOL    H8938997   7.265   2.060   4.711  0.0031 -0.9658  0.3047
  275MOL    H9038998   7.338   2.147   4.842  2.1271  1.2385  0.1794
  275MOL    H9138999   0.044   2.115   4.725 -1.0128 -0.1105  0.3560
  275MOL    H9239000   7.473   1.947   4.575  0.9240 -0.2626 -0.5527
  275MOL    C9339001   7.445   2.260   4.617  0.0061 -0.2233  0.0348
  275MOL    C9439002   7.471   2.374   4.721  0.3914 -0.4145 -0.3343
  275MOL    O9539003   0.083   2.374   4.773  0.1496 -0.6636  0.8464
  275MOL    H9639004   7.501   2.276   4.525  0.7137 -0.9879  0.3172
  275MOL    H9739005   7.344   2.260   4.577 -0.5896 -0.4353  1.5172
  275MOL    H9839006   7.399   2.354   4.800 -1.4011  1.3367 -1.4825
  275MOL    H9939007   0.091   2.464   4.803 -0.7620 -0.7258  1.2899
  275MOL   C10039008   7.448   2.521   4.668  0.0618 -1.2183  0.0344
  275MOL   C10139009   7.433   2.634   4.767  0.6719 -0.5882 -0.7604
  275MOL   O10239010   0.039   2.651   4.831  0.1560 -0.1335  0.9249
  275MOL   H10339011   0.009   2.539   4.597  0.0395 -0.9274  0.0791
  275MOL   H10439012   7.358   2.525   4.607  0.3322  1.7506 -0.2670
  275MOL   H10539013   7.378   2.618   4.860  0.2611  1.3040 -0.6487
  275MOL   H10639014   0.038   2.718   4.899  2.2786  0.8582  0.0217
  275MOL   C10739015   7.400   2.770   4.694  0.4521  0.6528  1.0197
  275MOL   C10839016   7.249   2.803   4.676 -0.5888 -0.3875  0.1203
  275MOL   O10939017   7.220   2.937   4.642  0.4313 -0.3425  0.1646
  275MOL   H11039018   7.446   2.856   4.743  1.6308  1.0103 -0.6539
  275MOL   H11139019   7.437   2.780   4.592  1.0157  1.0063  1.2593
  275MOL   H11239020   7.194   2.804   4.770  0.1811  0.3916  0.5746
  275MOL   H11339021   7.247   2.947   4.552 -0.1734 -0.4330 -0.0278
  275MOL   C11439022   7.175   2.707   4.579  0.4310  0.4639  0.0837
  275MOL   C11539023   7.023   2.730   4.555  0.3401  0.4129 -0.0825
  275MOL   O11639024   6.998   2.706   4.419  0.0008 -0.5605 -0.0119
  275MOL   H11739025   7.238   2.708   4.490  0.5448  0.7798  0.1683
  275MOL   H11839026   7.187   2.603   4.612  0.2670  0.5094  0.2911
  275MOL   H11939027   6.996   2.826   4.598 -1.5805  0.3245 -1.0303
  275MOL   H12039028   6.905   2.711   4.402  0.3127  1.7591 -1.2408
  275MOL   C12139029   6.945   2.607   4.620 -0.3227 -0.5016 -0.2363
  275MOL   C12239030   6.933   2.585   4.771  0.1977  0.4399 -0.4150
  275MOL   O12339031   6.867   2.697   4.825  0.0441  0.3484 -0.1095
  275MOL   H12439032   6.843   2.607   4.581 -0.6207 -1.9626  0.4956
  275MOL   H12539033   6.978   2.513   4.576 -2.1913 -0.8773 -0.8636
  275MOL   H12639034   7.034   2.594   4.811  0.4631  1.9587 -1.3769
  275MOL   H12739035   6.885   2.689   4.918 -0.5366 -1.2117 -0.1215
  275MOL   C12839036   6.870   2.456   4.808  0.3113 -0.0879 -0.1627
  275MOL   C12939037   6.965   2.339   4.797 -0.1690 -0.3145 -1.2685
  275MOL   O13039038   7.007   2.303   4.926  0.0867  0.3635  0.1014
  275MOL   H13139039   6.829   2.467   4.908  0.0855 -1.3594 -0.1048
  275MOL   H13239040   6.781   2.439   4.748  0.2666  2.2241 -0.8065
  275MOL   H13339041   7.045   2.369   4.728 -1.1970  0.6549 -2.0557
  275MOL   H13439042   6.923   2.287   4.968  1.4970  0.8163  3.2293
  275MOL   C13539043   6.895   2.212   4.744 -0.3219  0.0643 -0.4576
  275MOL   C13639044   6.985   2.090   4.720 -0.2209  0.3046  0.3238
  275MOL   O13739045   6.903   1.974   4.690 -0.0719 -0.2523  0.3355
  275MOL   H13839046   6.809   2.190   4.808  0.0640  0.8164  0.3231
  275MOL   H13939047   6.851   2.248   4.651 -1.5434  0.2122  0.1629
  275MOL   H14039048   7.030   2.065   4.816  0.3121 -0.9090 -0.2384
  275MOL   H14139049   6.858   1.945   4.767 -0.4699 -1.2859 -0.2837
  275MOL   H14239050   7.059   2.103   4.641  0.1120  2.1605  0.9148
  276MOL     C139051   0.656   5.967   6.788  0.5647 -0.2571  1.0332
  276MOL     C239052   0.512   5.922   6.820  0.5089 -0.5199  0.0024
  276MOL     O339053   0.453   5.856   6.709 -0.4609 -0.0523  0.5466
  276MOL     H439054   0.701   6.023   6.870 -1.4208  1.6479  0.8621
  276MOL     H539055   0.646   6.044   6.711 -0.9863 -0.6639  0.8176
  276MOL     H639056   0.455   6.014   6.825  0.6361 -0.3596 -1.4945
  276MOL     H739057   0.510   5.787   6.677  1.8583  1.8770  0.4152
  276MOL     H839058   0.715   5.881   6.756  0.0652 -0.0762 -0.3828
  276MOL     C939059   0.488   5.846   6.951  0.6012 -0.2757  0.6752
  276MOL    C1039060   0.543   5.923   7.065  0.4508 -0.8145 -0.2601
  276MOL    O1139061   0.485   6.051   7.061 -0.3459  0.2977  0.0238
  276MOL    H1239062   0.381   5.830   6.966  0.2034 -0.7134 -2.2933
  276MOL    H1339063   0.538   5.749   6.959 -0.1775 -0.7719 -0.2934
  276MOL    H1439064   0.650   5.924   7.050  0.2911 -1.1673 -1.4350
  276MOL    H1539065   0.394   6.051   7.086  0.2466  0.7488  2.3493
  276MOL    C1639066   0.508   5.839   7.191  0.9546 -0.3145  0.3563
  276MOL    C1739067   0.581   5.879   7.317  0.1224 -0.2759 -0.3434
  276MOL    O1839068   0.520   6.000   7.364  0.4099 -0.4143 -0.0778
  276MOL    H1939069   0.401   5.844   7.213  1.5513  0.5003  3.2859
  276MOL    H2039070   0.523   5.733   7.174 -0.4369 -0.2089 -1.6311
  276MOL    H2139071   0.684   5.907   7.295  0.1259  0.1945  0.2344
  276MOL    H2239072   0.587   6.022   7.428  0.8276 -1.1720 -0.2552
  276MOL    C2339073   0.588   5.784   7.436 -0.1698 -0.1145  0.1557
  276MOL    C2439074   0.692   5.670   7.410  0.3325 -0.2647 -0.4105
  276MOL    O2539075   0.805   5.689   7.496  0.0196  0.1885  0.6227
  276MOL    H2639076   0.615   5.840   0.006 -3.7597  1.4001  0.3793
  276MOL    H2739077   0.484   5.754   7.448 -0.3632  0.1696 -0.8369
  276MOL    H2839078   0.730   5.675   7.308 -0.9746 -0.6059 -0.9169
  276MOL    H2939079   0.874   5.648   7.447  0.0304  2.0465 -0.9508
  276MOL    C3039080   0.635   5.521   7.423 -0.1591 -0.3908 -0.1030
  276MOL    C3139081   0.520   5.477   7.335  0.2971  0.1538 -0.3063
  276MOL    O3239082   0.403   5.551   7.364  0.6879 -0.7493  0.0338
  276MOL    H3339083   0.718   5.453   7.400  1.7211  2.2072 -1.2846
  276MOL    H3439084   0.605   5.497   0.005 -1.7437 -0.1542 -0.5082
  276MOL    H3539085   0.503   5.375   7.371  1.7240  1.0004  2.8561
  276MOL    H3639086   0.381   5.524   7.451  1.0052  0.7638  0.6012
  276MOL    C3739087   0.566   5.474   7.190  0.9888 -0.0219  0.4619
  276MOL    C3839088   0.452   5.466   7.085 -0.1699  0.3192 -0.5325
  276MOL    O3939089   0.518   5.447   6.964 -0.8610  0.2996 -0.4197
  276MOL    H4039090   0.634   5.553   7.157  0.7363  0.7680  1.7772
  276MOL    H4139091   0.631   5.387   7.182  1.6674  0.6334 -1.4768
  276MOL    H4239092   0.405   5.564   7.075 -0.4499  0.3394  0.9422
  276MOL    H4339093   0.532   5.354   6.955 -1.4666  0.4910 -4.2947
  276MOL    C4439094   0.351   5.351   7.105 -0.4093  0.5312  0.3040
  276MOL    C4539095   0.221   5.359   7.010 -0.9742  0.2255 -0.5298
  276MOL    O4639096   0.131   5.251   7.045  0.3427 -0.2042  0.2855
  276MOL    H4739097   0.392   5.252   7.085  0.0153  0.4839  1.4138
  276MOL    H4839098   0.318   5.358   7.208  0.0989  0.1222  0.4946
  276MOL    H4939099   0.263   5.332   6.913  1.9008  0.0888  0.7230
  276MOL    H5039100   0.176   5.169   7.036  0.0806 -0.0404 -3.4965
  276MOL    C5139101   0.142   5.498   7.003  0.0280  0.0727 -0.2416
  276MOL    C5239102   0.063   5.532   6.871  0.3441 -0.3436  0.2007
  276MOL    O5339103   7.489   5.639   6.898  0.1360 -0.7215 -0.3066
  276MOL    H5439104   0.067   5.490   7.082  0.0652 -3.1614 -0.4612
  276MOL    H5539105   0.202   5.583   7.037  2.1243 -0.4384 -2.5225
  276MOL    H5639106   0.007   5.445   6.838  0.6066 -0.0705 -0.9810
  276MOL    H5739107   7.427   5.590   6.951  1.2011 -2.1122 -0.2992
  276MOL    C5839108   0.173   5.593   6.782  0.7562 -0.4827  0.2344
  276MOL    C5939109   0.123   5.641   6.647  0.5795 -0.8906  0.3019
  276MOL    O6039110   0.233   5.693   6.572 -0.0179  0.1458 -0.0605
  276MOL    H6139111   0.209   5.680   6.837 -1.1139  0.5311 -0.1069
  276MOL    H6239112   0.257   5.525   6.766 -0.3139 -1.2895 -2.2355
  276MOL    H6339113   0.049   5.721   6.655  0.4579 -1.0313  0.5788
  276MOL    H6439114   0.270   5.763   6.623 -0.0924  0.3829 -0.3262
  276MOL    C6539115   0.062   5.527   6.568 -0.2280 -0.6815 -0.7365
  276MOL    C6639116   0.009   5.563   6.425  0.3753  0.5453 -0.4009
  276MOL    O6739117   7.469   5.446   6.374  0.1215  0.0838  0.4660
  276MOL    H6839118   0.127   5.440   6.574  0.1921 -0.3489 -0.4346
  276MOL    H6939119   7.495   5.498   6.628  0.5832  1.8125  1.7555
  276MOL    H7039120   0.096   5.583   6.361 -1.0479 -1.0910 -2.9479
  276MOL    H7139121   7.456   5.464   6.282  0.5863  1.5415  0.6737
  276MOL    C7239122   7.430   5.682   6.426 -0.5299 -0.0715 -0.1561
  276MOL    C7339123   7.356   5.718   6.295  0.4268 -0.0088  0.7522
  276MOL    O7439124   7.274   5.821   6.321 -0.1666 -0.0505 -0.3435
  276MOL    H7539125   7.356   5.661   6.503  0.3116  0.3861  0.7881
  276MOL    H7639126   7.485   5.767   6.467  0.1922 -0.0747 -1.0898
  276MOL    H7739127   7.282   5.643   6.266  0.4616  0.7407 -1.3358
  276MOL    H7839128   7.209   5.783   6.379 -0.6572  0.7268 -0.3789
  276MOL    C7939129   7.446   5.754   6.180 -0.2012  0.6021  0.1884
  276MOL    C8039130   7.378   5.780   6.043 -0.1172 -0.7925  0.5587
  276MOL    O8139131   7.471   5.843   5.955  0.4488  0.3743 -0.5879
  276MOL    H8239132   7.509   5.836   6.214 -0.4640  0.3890  1.1906
  276MOL    H8339133   0.005   5.680   6.165  0.3678  1.3641 -0.6336
  276MOL    H8439134   7.300   5.856   6.048  0.8525  0.4381 -2.0158
  276MOL    H8539135   7.437   5.854   5.867  1.3091  0.8721 -0.8577
  276MOL    C8639136   7.320   5.659   5.978 -0.2152  0.2117  0.5680
  276MOL    C8739137   7.412   5.538   5.950  0.0183 -0.5883  0.3879
  276MOL    O8839138   7.428   5.459   6.065 -1.0816  0.1469  0.1777
  276MOL    H8939139   7.239   5.625   6.042 -1.6938  0.9352 -0.8610
  276MOL    H9039140   7.271   5.689   5.885  1.0151  0.0406 -0.1375
  276MOL    H9139141   7.506   5.576   5.911  0.2978  0.2871  1.9054
  276MOL    H9239142   7.465   5.381   6.028 -0.0212  0.9308 -0.4293
  276MOL    C9339143   7.355   5.439   5.841  0.0853  0.6175  0.3083
  276MOL    C9439144   7.335   5.493   5.699  0.2191 -0.2560  0.1527
  276MOL    O9539145   7.402   5.403   5.612 -0.0314  0.4864  0.1360
  276MOL    H9639146   7.435   5.365   5.839 -0.7666 -0.3474  1.3974
  276MOL    H9739147   7.265   5.387   5.875  1.4953 -1.8741  0.3407
  276MOL    H9839148   7.387   5.589   5.694 -1.0785  0.4998  0.7219
  276MOL    H9939149   7.342   5.330   5.607  2.0409 -1.3051  0.8874
  276MOL   C10039150   7.187   5.486   5.654 -0.2735 -0.4165  0.2145
  276MOL   C10139151   7.162   5.542   5.512  0.3618  0.1106 -0.3178
  276MOL   O10239152   7.026   5.515   5.482  0.0050  0.5178 -0.5955
  276MOL   H10339153   7.155   5.382   5.655  4.4128 -1.9796 -0.9629
  276MOL   H10439154   7.123   5.545   5.720  2.2805  1.5048  1.0707
  276MOL   H10539155   7.228   5.493   5.441  0.3376 -2.5207  1.3969
  276MOL   H10639156   6.988   5.595   5.449 -0.1811  0.8753  0.4798
  276MOL   C10739157   7.196   5.688   5.508 -0.2054  0.0125 -0.2408
  276MOL   C10839158   7.145   5.757   5.374  0.3088 -0.6902 -0.1754
  276MOL   O10939159   7.005   5.772   5.383 -0.7660  0.1806  0.2955
  276MOL   H11039160   7.163   5.736   5.600 -1.1621 -2.8042  0.9255
  276MOL   H11139161   7.305   5.692   5.504 -0.2281 -0.4963 -1.6901
  276MOL   H11239162   7.169   5.703   5.283  0.5653 -3.1491  1.3015
  276MOL   H11339163   6.988   5.862   5.405 -1.5470  0.0360  0.3062
  276MOL   C11439164   7.220   5.890   5.361  0.2309  0.0632  0.7806
  276MOL   C11539165   7.227   5.953   5.221 -0.1459  0.5202 -0.8205
  276MOL   O11639166   7.168   6.083   5.229 -0.2476  0.6780 -0.2869
  276MOL   H11739167   7.176   5.952   5.440  2.5239  0.1545  2.0282
  276MOL   H11839168   7.326   5.876   5.382  0.0931 -0.1765  1.3345
  276MOL   H11939169   7.153   5.898   5.163 -1.7752  1.3999  0.3852
  276MOL   H12039170   7.176   6.110   5.139  0.1396  1.9994  0.1330
  276MOL   C12139171   7.374   5.967   5.151 -0.8682  0.4195 -0.0237
  276MOL   C12239172   7.450   5.832   5.124 -0.2217 -0.3263  0.1355
  276MOL   O12339173   7.359   5.720   5.100  0.0427  0.5378  0.0831
  276MOL   H12439174   7.364   6.008   5.050 -0.9580  1.9372  0.5790
  276MOL   H12539175   7.446   6.029   5.205 -4.5221  4.2361  0.7174
  276MOL   H12639176   7.499   5.803   5.217  3.3694  2.0738 -0.9368
  276MOL   H12739177   7.404   5.639   5.117 -0.7372  0.3048  1.0908
  276MOL   C12839178   0.038   5.830   5.009 -0.6830 -0.0450  0.7643
  276MOL   C12939179   0.158   5.921   5.024  0.2612 -0.0097 -0.2269
  276MOL   O13039180   0.215   5.900   5.150  0.3269 -0.4046  0.3884
  276MOL   H13139181   0.078   5.732   4.984  0.8338  0.9202 -0.6247
  276MOL   H13239182   7.506   5.869   4.922  2.0638  2.1435  0.0460
  276MOL   H13339183   0.130   6.024   5.004 -2.1724 -0.8045 -1.0395
  276MOL   H13439184   0.295   5.950   5.156 -0.1805  0.2681  1.7892
  276MOL   C13539185   0.269   5.895   4.923 -0.6217  0.2476 -0.2470
  276MOL   C13639186   0.253   5.952   4.782  0.2434 -1.2850 -0.0967
  276MOL   O13739187   0.349   5.904   4.699 -0.4100  1.1350  0.4261
  276MOL   H13839188   0.369   5.918   4.960 -0.3530 -0.9322 -0.2297
  276MOL   H13939189   0.269   5.788   4.904  0.7554  0.5128 -1.8201
  276MOL   H14039190   0.260   6.061   4.783  0.3611 -1.2586 -2.4947
  276MOL   H14139191   0.326   5.817   4.673  4.1424 -0.1106  0.0973
  276MOL   H14239192   0.157   5.934   4.734  0.1005  1.3559 -0.8683
  277MOL     C139193   7.282   4.506   6.449 -0.1188 -0.2783 -0.6962
  277MOL     C239194   7.228   4.569   6.574  0.0054 -0.3123 -0.6764
  277MOL     O339195   7.176   4.461   6.648 -0.0316 -0.6416  0.4213
  277MOL     H439196   7.206   4.439   6.409 -0.7971  0.9628 -1.5022
  277MOL     H539197   7.367   4.439   6.468  0.0574  0.1546  0.0956
  277MOL     H639198   7.150   4.636   6.537  0.2224  1.3474  1.7553
  277MOL     H739199   7.099   4.426   6.607 -1.5149  2.0006  0.8391
  277MOL     H839200   7.314   4.572   6.369 -0.4542  0.9314  0.1479
  277MOL     C939201   7.336   4.637   6.663 -0.0475 -0.0377 -0.7979
  277MOL    C1039202   7.410   4.759   6.596 -0.4130  0.6941  0.3151
  277MOL    O1139203   7.317   4.866   6.585  0.2486 -0.3380 -0.8745
  277MOL    H1239204   7.288   4.663   6.758  0.8863 -0.9930 -0.0405
  277MOL    H1339205   7.405   4.554   6.683  0.4336 -0.1553 -2.8757
  277MOL    H1439206   7.445   4.727   6.498  2.0465  0.1025  1.3262
  277MOL    H1539207   7.339   4.917   6.509  2.0803 -0.5886 -0.5397
  277MOL    C1639208   0.027   4.794   6.667 -0.7588 -0.0461 -0.6633
  277MOL    C1739209   0.135   4.681   6.652 -0.0234 -0.0631  0.5513
  277MOL    O1839210   0.191   4.680   6.523  0.2858  0.0834  0.0727
  277MOL    H1939211   0.070   4.884   6.623  2.1489  0.2135  2.5376
  277MOL    H2039212   0.011   4.825   6.770  0.9846 -2.6825  0.4571
  277MOL    H2139213   0.081   4.591   6.681  0.3203 -0.5855 -0.4373
  277MOL    H2239214   0.171   4.596   6.485  0.0240  0.0027  0.3937
  277MOL    C2339215   0.246   4.707   6.754  0.2673 -0.3403  0.0163
  277MOL    C2439216   0.334   4.577   6.784  0.0434  0.5125 -0.1634
  277MOL    O2539217   0.435   4.628   6.868  0.1662  0.2007  0.1651
  277MOL    H2639218   0.302   4.796   6.722 -1.6733  0.5701 -0.9307
  277MOL    H2739219   0.200   4.734   6.849 -1.9026 -0.0704 -1.0710
  277MOL    H2839220   0.382   4.542   6.693 -1.1140  0.2674 -0.6902
  277MOL    H2939221   0.467   4.710   6.834 -0.7612  0.7053  0.4828
  277MOL    C3039222   0.255   4.470   6.869 -0.3941 -0.8072 -0.2980
  277MOL    C3139223   0.204   4.344   6.800 -0.1052 -0.1551  0.3219
  277MOL    O3239224   0.317   4.264   6.770  0.7513  0.4356  0.0248
  277MOL    H3339225   0.313   4.435   6.954 -0.1667  0.3133  0.0213
  277MOL    H3439226   0.177   4.523   6.923 -0.1039 -0.8075  0.1241
  277MOL    H3539227   0.161   4.376   6.705 -0.7764  0.9426  0.9914
  277MOL    H3639228   0.340   4.277   6.679 -2.0139 -0.8290 -0.9026
  277MOL    C3739229   0.105   4.250   6.877  0.4718 -0.2635  0.1678
  277MOL    C3839230   7.477   4.310   6.870  0.6072 -0.0048 -0.1309
  277MOL    O3939231   7.417   4.310   6.740  0.2356 -0.1335 -0.2102
  277MOL    H4039232   0.117   4.160   6.817  2.9043 -0.8001  1.3673
  277MOL    H4139233   0.144   4.253   6.979  1.1628  0.2044 -0.1112
  277MOL    H4239234   7.479   4.410   6.912  0.6712 -1.0750  2.4680
  277MOL    H4339235   7.343   4.368   6.739 -0.0637 -0.4877  0.9684
  277MOL    C4439236   7.385   4.248   6.982  0.0749  0.0095 -1.0549
  277MOL    C4539237   7.278   4.344   7.050 -0.4573  0.1465 -0.4439
  277MOL    O4639238   7.164   4.344   6.966 -0.0367 -0.4456 -0.2590
  277MOL    H4739239   7.339   4.155   6.947 -0.2270  0.7879 -2.7668
  277MOL    H4839240   7.456   4.215   7.058 -1.3289  0.7291  0.6088
  277MOL    H4939241   7.319   4.444   7.062  1.3598 -0.7215  0.7958
  277MOL    H5039242   7.189   4.392   6.888  1.4590  0.8335  0.9636
  277MOL    C5139243   7.230   4.289   7.187 -0.1028  0.2242 -0.4729
  277MOL    C5239244   7.145   4.383   7.267 -0.0263  0.3049  0.3503
  277MOL    O5339245   7.013   4.397   7.215 -0.0711  0.3232  0.1405
  277MOL    H5439246   7.187   4.189   7.178  3.2227 -1.0448 -3.7062
  277MOL    H5539247   7.324   4.271   7.239 -1.1929 -0.7583  1.2013
  277MOL    H5639248   7.198   4.478   7.268 -0.5580  0.6006  1.2725
  277MOL    H5739249   7.023   4.391   7.121  0.4218  1.1867  0.1297
  277MOL    C5839250   7.114   4.350   7.413  0.6177  0.3716 -0.0642
  277MOL    C5939251   7.243   4.359   7.503 -0.0633  0.3246 -0.0534
  277MOL    O6039252   7.300   4.490   7.510  0.1697 -0.6884 -0.8364
  277MOL    H6139253   7.049   4.425   7.459 -0.8219 -0.3781 -0.8288
  277MOL    H6239254   7.065   4.253   7.419 -0.7081  0.8937 -1.9776
  277MOL    H6339255   7.328   4.301   7.467 -0.3521  0.4841 -1.0221
  277MOL    H6439256   7.242   4.551   0.033  0.0419 -0.2187 -1.6773
  277MOL    C6539257   7.202   4.320   0.130  0.0396 -0.5967 -0.1903
  277MOL    C6639258   7.315   4.330   0.241  0.3710  0.2214  0.4631
  277MOL    O6739259   7.285   4.303   0.381  0.5651 -0.4356  0.2643
  277MOL    H6839260   7.127   4.396   0.152  0.5903 -0.2072  0.3956
  277MOL    H6939261   7.152   4.224   0.130  1.8229 -1.5919  1.9916
  277MOL    H7039262   7.348   4.434   0.233  1.0219 -0.0981 -1.2633
  277MOL    H7139263   7.209   4.357   0.399 -1.7704 -2.4633 -2.9724
  277MOL    C7239264   7.424   4.235   0.212 -0.2936 -0.3002 -0.1265
  277MOL    C7339265   0.042   4.288   0.265 -0.3453 -0.5598  0.4804
  277MOL    O7439266   0.037   4.299   0.406  0.1176  0.2571  0.3184
  277MOL    H7539267   7.393   4.140   0.256  0.5713  0.2172  1.6407
  277MOL    H7639268   7.434   4.215   0.105 -0.6817 -2.2543  0.1745
  277MOL    H7739269   0.048   4.386   0.218 -1.2664  0.0180  1.5724
  277MOL    H7839270   7.464   4.297   0.426  0.4314 -1.0228  1.6683
  277MOL    C7939271   0.156   4.199   0.214  0.0430 -0.0345  0.2911
  277MOL    C8039272   0.293   4.237   0.278  0.1461  0.3523  0.4114
  277MOL    O8139273   0.291   4.215   0.420 -0.4770 -0.3557 -0.6920
  277MOL    H8239274   0.138   4.094   0.237 -0.5147  0.0018  0.0517
  277MOL    H8339275   0.149   4.225   0.108  1.2578  0.5483  0.3485
  277MOL    H8439276   0.317   4.341   0.260 -0.3919  0.9328  2.9675
  277MOL    H8539277   0.199   4.221   0.444 -0.8201 -0.4786 -1.9279
  277MOL    C8639278   0.404   4.155   0.216 -0.4151  0.3448 -0.8503
  277MOL    C8739279   0.437   4.189   0.068  0.1736 -0.3275 -0.2947
  277MOL    O8839280   0.524   4.293   0.059 -0.3546 -0.1878  0.0419
  277MOL    H8939281   0.496   4.163   0.273  0.0570 -2.0110 -1.2310
  277MOL    H9039282   0.371   4.051   0.221  0.6467  0.0699  0.7914
  277MOL    H9139283   0.349   4.197   0.004 -0.9476 -0.6441  1.1902
  277MOL    H9239284   0.578   4.297   0.137 -1.1502 -0.0558  0.5873
  277MOL    C9339285   0.528   4.066   0.017  0.1263  0.2383 -0.3425
  277MOL    C9439286   0.544   4.058   7.385  0.8308  0.2869  0.1991
  277MOL    O9539287   0.621   3.945   7.348 -0.4143 -0.0928 -0.4047
  277MOL    H9639288   0.633   4.080   0.041 -0.0893  0.1082  0.6854
  277MOL    H9739289   0.507   3.965   0.054 -0.4210 -0.4030 -2.3123
  277MOL    H9839290   0.586   4.150   7.346  2.5395 -0.7552 -0.5132
  277MOL    H9939291   0.713   3.961   7.361 -0.2330 -0.2677 -1.4622
  277MOL   C10039292   0.407   4.038   7.307 -0.3866  0.3630  0.4248
  277MOL   C10139293   0.374   4.148   7.206  0.1942  0.2633 -0.0274
  277MOL   O10239294   0.393   4.275   7.272  0.3443 -0.8586  0.0341
  277MOL   H10339295   0.410   3.941   7.257 -0.7517  0.2742  0.5706
  277MOL   H10439296   0.328   4.031   7.382  0.2376 -1.6316  0.9179
  277MOL   H10539297   0.269   4.136   7.179  0.1630 -1.6125  0.8740
  277MOL   H10639298   0.391   4.339   7.204 -1.6703 -0.8985  0.0252
  277MOL   C10739299   0.462   4.149   7.080  0.0244 -0.2453 -0.4065
  277MOL   C10839300   0.468   4.021   6.999  0.1102  0.2924 -0.3601
  277MOL   O10939301   0.339   4.011   6.933 -0.5386 -0.2641 -0.0335
  277MOL   H11039302   0.438   4.229   7.010 -0.4844  0.7309  0.8533
  277MOL   H11139303   0.565   4.158   7.115  0.3560  0.2110 -1.4777
  277MOL   H11239304   0.482   3.936   7.065  1.5090 -0.8750 -2.1076
  277MOL   H11339305   0.339   4.075   6.863 -0.0094 -0.3306 -0.0948
  277MOL   C11439306   0.571   4.021   6.889 -0.1473  0.0366  0.2271
  277MOL   C11539307   0.584   3.882   6.816 -0.0027 -0.9191 -0.4765
  277MOL   O11639308   0.650   3.889   6.692 -0.6977 -0.1226 -0.5771
  277MOL   H11739309   0.552   4.104   6.821 -0.1206  1.2647  1.6920
  277MOL   H11839310   0.671   4.049   6.923  0.0519 -0.9846  0.5090
  277MOL   H11939311   0.485   3.846   6.788 -0.4435 -0.6534  0.7414
  277MOL   H12039312   0.601   3.953   6.642  0.0839 -0.7542 -2.1842
  277MOL   C12139313   0.650   3.765   6.891  0.4262 -0.4648 -0.4442
  277MOL   C12239314   0.668   3.631   6.817 -0.7835 -0.3056  0.8002
  277MOL   O12339315   0.753   3.633   6.707 -0.6954  0.2617 -0.2768
  277MOL   H12439316   0.743   3.810   6.927  1.0001 -1.2494 -0.9403
  277MOL   H12539317   0.597   3.759   6.986  2.0299  2.0932  0.6969
  277MOL   H12639318   0.569   3.593   6.790  0.5424 -3.4274  0.1042
  277MOL   H12739319   0.729   3.715   6.668 -0.4545  0.0482 -0.8858
  277MOL   C12839320   0.721   3.526   6.919  0.1338  0.1535  0.1065
  277MOL   C12939321   0.611   3.478   7.018  0.2935  0.2144  0.1071
  277MOL   O13039322   0.502   3.420   6.938 -0.2115  0.7061  0.0577
  277MOL   H13139323   0.755   3.443   6.858  1.1514  0.1292  0.7057
  277MOL   H13239324   0.803   3.564   6.979  0.4908 -0.4665  0.0150
  277MOL   H13339325   0.575   3.560   7.081  2.2367 -0.3545  1.9943
  277MOL   H13439326   0.541   3.354   6.882 -2.1961 -1.3107  0.9728
  277MOL   C13539327   0.673   3.367   7.106  1.0682 -0.6478  0.5921
  277MOL   C13639328   0.770   3.414   7.208 -0.2653 -0.3995 -0.5110
  277MOL   O13739329   0.812   3.304   7.294 -0.1103 -0.2436  0.4197
  277MOL   H13839330   0.589   3.316   7.153  1.1392  0.2958  1.7880
  277MOL   H13939331   0.718   3.294   7.039 -3.2351 -0.7456 -2.3833
  277MOL   H14039332   0.708   3.484   7.264 -0.9287 -1.1993 -0.2400
  277MOL   H14139333   0.775   3.323   7.378  0.8360  0.6390  0.6494
  277MOL   H14239334   0.862   3.446   7.158 -0.9955 -1.4259 -2.5614
  278MOL     C139335   5.509   4.207   2.821  0.1446  0.3061  0.4784
  278MOL     C239336   5.620   4.204   2.925  0.0460 -0.5087 -0.1378
  278MOL     O339337   5.741   4.222   2.851 -0.1662 -0.0090 -0.5744
  278MOL     H439338   5.420   4.170   2.871  2.7739 -1.7480  3.9382
  278MOL     H539339   5.524   4.135   2.740 -1.5539  1.7218 -1.1423
  278MOL     H639340   5.620   4.105   2.971 -0.3525 -0.2892  0.3364
  278MOL     H739341   5.760   4.147   2.797  0.7039  0.3787 -0.8159
  278MOL     H839342   5.504   4.304   2.773  2.2984 -0.5299 -1.5791
  278MOL     C939343   5.618   4.317   3.038  0.1629 -0.7829 -0.1284
  278MOL    C1039344   5.501   4.314   3.139  0.0626  0.2318 -0.0684
  278MOL    O1139345   5.548   4.370   3.265 -0.1070  0.3134 -0.2169
  278MOL    H1239346   5.698   4.305   3.111  0.1906  1.6358  0.2846
  278MOL    H1339347   5.640   4.413   2.991 -1.6323 -0.9103 -1.3101
  278MOL    H1439348   5.485   4.207   3.153  0.2221 -0.1784 -2.8341
  278MOL    H1539349   5.596   4.304   3.313 -0.9340  0.8971  1.4121
  278MOL    C1639350   5.372   4.388   3.086 -0.4832  0.8155 -0.6191
  278MOL    C1739351   5.240   4.378   3.177  0.3021 -0.0838 -0.2402
  278MOL    O1839352   5.132   4.455   3.129 -0.3755 -0.2324  0.0520
  278MOL    H1939353   5.399   4.492   3.070 -0.0206  0.7338 -0.3531
  278MOL    H2039354   5.339   4.347   2.990 -2.0606  2.2128 -0.7146
  278MOL    H2139355   5.260   4.423   3.274  2.1807  2.6239 -1.7943
  278MOL    H2239356   5.148   4.547   3.136 -2.3674  0.2129 -0.9057
  278MOL    C2339357   5.183   4.235   3.186 -0.4320 -0.1839 -0.0347
  278MOL    C2439358   5.073   4.207   3.286 -0.1643  0.7236  0.4374
  278MOL    O2539359   4.951   4.270   3.267 -0.0097 -0.2350  0.6112
  278MOL    H2639360   5.158   4.220   3.081  0.4501  3.0940 -0.7760
  278MOL    H2739361   5.271   4.177   3.212 -0.1157  0.4508  0.3310
  278MOL    H2839362   5.100   4.238   3.387 -0.1004  1.9729  0.0558
  278MOL    H2939363   4.961   4.334   3.198  1.2205 -2.1762 -1.0546
  278MOL    C3039364   5.033   4.062   3.278 -0.0389 -0.6505 -0.5841
  278MOL    C3139365   4.981   3.999   3.407  0.0898 -0.0148  0.0688
  278MOL    O3239366   4.875   3.913   3.381 -0.1106  0.4788  0.2228
  278MOL    H3339367   4.957   4.061   3.200  0.6476  4.0887 -1.4413
  278MOL    H3439368   5.121   4.003   3.250 -0.8777 -3.0905  1.7390
  278MOL    H3539369   4.946   4.075   3.476  0.8054 -1.0925  1.6358
  278MOL    H3639370   4.905   3.824   3.371  2.0905  1.0457  1.3803
  278MOL    C3739371   5.103   3.936   3.488 -0.0925 -0.0221  0.5546
  278MOL    C3839372   5.222   4.030   3.529 -0.3295 -0.0143  0.1269
  278MOL    O3939373   5.173   4.117   3.633 -0.0824  0.4040 -0.5625
  278MOL    H4039374   5.067   3.886   3.578 -2.0026  1.2436  0.5221
  278MOL    H4139375   5.141   3.849   3.434  1.0579  1.0186 -0.3277
  278MOL    H4239376   5.262   4.082   3.442  0.4364  3.5487  2.5173
  278MOL    H4339377   5.222   4.198   3.633 -0.2477  0.5051  0.3324
  278MOL    C4439378   5.345   3.959   3.598  1.0495 -0.7069 -0.1665
  278MOL    C4539379   5.413   3.850   3.513  0.2056 -1.2174 -0.5844
  278MOL    O4639380   5.444   3.898   3.383  0.2759 -0.2185  0.0344
  278MOL    H4739381   5.415   4.043   3.601  0.2435  0.0318 -1.3453
  278MOL    H4839382   5.314   3.938   3.700  0.1553  0.6361 -0.1538
  278MOL    H4939383   5.341   3.768   3.516  2.0347 -2.7986  2.4797
  278MOL    H5039384   5.513   3.845   3.345  0.3448 -1.3857  1.6944
  278MOL    C5139385   5.538   3.781   3.573 -0.4571  0.0180 -0.5575
  278MOL    C5239386   5.510   3.710   3.702 -0.5837  0.2233  1.0134
  278MOL    O5339387   5.422   3.607   3.683  0.2565  0.2646  0.4312
  278MOL    H5439388   5.581   3.719   3.495  0.2527  0.5702 -0.6026
  278MOL    H5539389   5.609   3.856   3.606 -0.3818 -1.5559  3.1191
  278MOL    H5639390   5.470   3.774   3.782 -4.3436 -0.8665  0.0974
  278MOL    H5739391   5.398   3.574   3.769  2.5971  1.6485  1.6492
  278MOL    C5839392   5.638   3.654   3.760  0.2105 -0.3855 -0.6251
  278MOL    C5939393   5.735   3.761   3.825  0.7249  0.1993  1.1635
  278MOL    O6039394   5.662   3.855   3.901 -0.2049 -0.4393 -0.0767
  278MOL    H6139395   5.611   3.592   3.846 -1.1515  0.5508 -0.3693
  278MOL    H6239396   5.692   3.592   3.688 -1.2659  0.7688 -2.7935
  278MOL    H6339397   5.779   3.813   3.740  0.1118  1.4499  1.5999
  278MOL    H6439398   5.716   3.933   3.898 -0.1880 -0.4127  0.6893
  278MOL    C6539399   5.860   3.708   3.902  0.3212 -0.3093  0.4393
  278MOL    C6639400   5.949   3.598   3.828 -0.0794 -0.8036 -0.2499
  278MOL    O6739401   5.988   3.655   3.698  0.4995  0.6046  0.0774
  278MOL    H6839402   5.925   3.786   3.941  0.5268 -0.1427 -0.2255
  278MOL    H6939403   5.814   3.666   3.991  1.6237 -0.7894  0.8961
  278MOL    H7039404   5.892   3.507   3.809 -1.7881 -0.2411  1.8502
  278MOL    H7139405   6.081   3.643   3.685  0.3880 -1.1516  0.8412
  278MOL    C7239406   6.062   3.544   3.908  0.3859  0.6971  0.8049
  278MOL    C7339407   6.015   3.460   4.028 -0.1113  0.3399  0.4029
  278MOL    O7439408   6.013   3.320   4.004 -0.3419 -0.2426  0.2799
  278MOL    H7539409   6.117   3.478   3.840 -2.0194 -0.4585 -0.0624
  278MOL    H7639410   6.133   3.624   3.930  1.0870  0.6200 -1.0806
  278MOL    H7739411   5.910   3.481   4.046  0.2305  2.2262  0.3243
  278MOL    H7839412   6.092   3.284   4.042  1.6542  0.6326 -2.8909
  278MOL    C7939413   6.084   3.483   4.165 -0.0275 -0.4935 -0.1499
  278MOL    C8039414   6.041   3.613   4.238  0.5789  0.5896 -0.7581
  278MOL    O8139415   6.074   3.600   4.376 -0.2512 -0.3450  0.4604
  278MOL    H8239416   6.072   3.394   4.227 -0.0677 -1.8613 -2.0748
  278MOL    H8339417   6.190   3.486   4.143 -0.0778  2.4274 -0.2273
  278MOL    H8439418   5.933   3.615   4.224  0.3597 -0.5530  0.6199
  278MOL    H8539419   6.073   3.508   4.396  3.7570 -0.7692 -0.7577
  278MOL    C8639420   6.109   3.741   4.193 -0.3064  0.0262 -0.6850
  278MOL    C8739421   6.062   3.860   4.277 -0.3365  0.9684  0.8051
  278MOL    O8839422   6.141   3.966   4.241  0.1426 -0.2521 -0.0335
  278MOL    H8939423   6.216   3.724   4.207 -0.0180  3.2027  1.7485
  278MOL    H9039424   6.095   3.765   4.088  0.6062 -3.0951 -1.5584
  278MOL    H9139425   6.083   3.844   4.383 -1.1096  0.7990  0.9348
  278MOL    H9239426   6.080   4.038   4.235 -0.7767 -0.9631  0.6549
  278MOL    C9339427   5.913   3.898   4.268  0.1112  0.5501 -0.2720
  278MOL    C9439428   5.869   4.015   4.361  0.0903 -0.2197 -0.0080
  278MOL    O9539429   5.900   4.137   4.291 -0.4014  0.3228 -0.4278
  278MOL    H9639430   5.888   3.917   4.164 -0.7267  2.8123  0.3017
  278MOL    H9739431   5.852   3.813   4.298  0.3150  0.9942  1.4597
  278MOL    H9839432   5.914   4.012   4.461 -2.0865  1.7013  1.0869
  278MOL    H9939433   5.861   4.202   4.347 -2.6964 -1.6168  0.3165
  278MOL   C10039434   5.718   4.021   4.397 -0.0550  0.3443  0.5082
  278MOL   C10139435   5.679   4.122   4.511 -0.1502  0.6402  0.1338
  278MOL   O10239436   5.720   4.248   4.464 -0.5671  0.2525 -0.2762
  278MOL   H10339437   5.662   4.032   4.304  0.3602  0.0772  0.2241
  278MOL   H10439438   5.689   3.918   4.421  1.9735 -0.8483 -1.8976
  278MOL   H10539439   5.729   4.102   4.606  1.0528 -0.0950 -0.6417
  278MOL   H10639440   5.693   4.318   4.522 -0.5072 -1.0313  1.3575
  278MOL   C10739441   5.520   4.146   4.526 -0.4299 -0.3506  0.4222
  278MOL   C10839442   5.436   4.032   4.584 -0.8959  0.1116 -0.6451
  278MOL   O10939443   5.499   4.000   4.712 -0.1451 -0.5285  0.3274
  278MOL   H11039444   5.511   4.234   4.590 -0.7763  1.0971 -1.5623
  278MOL   H11139445   5.490   4.185   4.429  0.0461  2.0935  1.2120
  278MOL   H11239446   5.446   3.946   4.517  1.1437  0.4712 -0.8150
  278MOL   H11339447   5.570   3.938   4.701 -0.1073 -0.7060  1.4630
  278MOL   C11439448   5.290   4.070   4.605 -1.1449  0.0502 -0.0282
  278MOL   C11539449   5.206   4.057   4.473 -0.1996  0.2109  0.0777
  278MOL   O11639450   5.188   3.919   4.436 -0.0359  0.3363 -0.1078
  278MOL   H11739451   5.236   4.007   4.676 -1.9038  0.2415 -0.4318
  278MOL   H11839452   5.284   4.171   4.645 -2.1282  0.6468 -1.6546
  278MOL   H11939453   5.267   4.101   4.395  2.8449 -2.1808  1.0327
  278MOL   H12039454   5.163   3.910   4.346 -2.5459 -1.5368  0.7065
  278MOL   C12139455   5.071   4.133   4.474 -0.3428  0.7889  0.4518
  278MOL   C12239456   4.982   4.129   4.597  0.0038  0.2716  0.1071
  278MOL   O12339457   4.873   4.214   4.592 -0.0487  1.5217 -0.3026
  278MOL   H12439458   5.086   4.241   4.464  0.3889  0.6414  0.0026
  278MOL   H12539459   5.023   4.101   4.381  0.5310 -1.7250  0.8389
  278MOL   H12639460   5.045   4.158   4.681 -1.5358  0.0191  1.3792
  278MOL   H12739461   4.826   4.195   4.513 -1.3480  0.2631  0.7420
  278MOL   C12839462   4.919   3.990   4.619  0.3724  0.1762  0.7724
  278MOL   C12939463   4.841   3.973   4.748  0.7068  0.1110 -0.0278
  278MOL   O13039464   4.766   3.853   4.749  0.9154  0.1888 -0.1304
  278MOL   H13139465   4.854   3.967   4.534  1.8067  0.8452 -0.5180
  278MOL   H13239466   4.990   3.909   4.605  1.3740  1.1491  0.1780
  278MOL   H13339467   4.769   4.055   4.760 -0.4778 -1.2696  2.9004
  278MOL   H13439468   4.674   3.872   4.738  1.1255  2.8472  2.1682
  278MOL   C13539469   4.922   3.975   4.876 -0.9956 -0.3274 -0.2519
  278MOL   C13639470   4.834   4.001   5.002  0.6596  0.1677  0.7680
  278MOL   O13739471   4.927   3.995   5.117 -0.5660  0.0811 -0.4443
  278MOL   H13839472   4.974   3.880   4.880 -0.8336 -0.3177 -1.6859
  278MOL   H13939473   5.007   4.043   4.870 -0.7182 -0.3021  3.3698
  278MOL   H14039474   4.776   3.916   5.037  1.3231 -0.0634  1.3312
  278MOL   H14139475   4.883   4.005   5.200 -1.5996 -0.6713 -0.8856
  278MOL   H14239476   4.785   4.098   4.998  0.1743 -0.1406 -4.9695
  279MOL     C139477   7.464   1.212   1.606  0.3517  0.2977  0.5356
  279MOL     C239478   7.424   1.359   1.595 -0.1899  0.2324  0.6470
  279MOL     O339479   7.493   1.426   1.698  0.9158  0.3170  0.4156
  279MOL     H439480   7.435   1.163   1.699 -0.8148 -0.8092 -0.3980
  279MOL     H539481   0.048   1.183   1.592  0.4358  0.7167  0.2813
  279MOL     H639482   7.316   1.370   1.609 -0.4593 -1.1539 -0.2279
  279MOL     H739483   0.060   1.448   1.669  0.3484  0.0939 -1.5163
  279MOL     H839484   7.421   1.154   1.525 -1.3240  0.8705  0.9837
  279MOL     C939485   7.456   1.422   1.458  0.0985  0.0562 -0.1902
  279MOL    C1039486   7.419   1.572   1.432 -0.6354  0.9678 -0.0120
  279MOL    O1139487   7.279   1.597   1.418  0.1388 -0.3417 -0.1971
  279MOL    H1239488   0.043   1.426   1.434  0.1083 -0.1452 -0.1797
  279MOL    H1339489   7.422   1.356   1.378 -0.3319  0.5073 -0.3789
  279MOL    H1439490   7.468   1.586   1.335 -0.9773  0.2726 -0.2894
  279MOL    H1539491   7.232   1.603   1.500 -0.5696  0.6981 -0.6612
  279MOL    C1639492   7.483   1.670   1.524  0.4814 -0.4894  0.2670
  279MOL    C1739493   7.504   1.811   1.449  0.0485 -0.3447 -0.1354
  279MOL    O1839494   7.373   1.861   1.406 -0.2566 -0.2506  0.2914
  279MOL    H1939495   7.425   1.681   1.615  1.3042  0.6704  0.6655
  279MOL    H2039496   0.061   1.633   1.556  0.2350 -0.9212  0.5179
  279MOL    H2139497   0.051   1.802   1.363  0.8138  4.0395 -0.1127
  279MOL    H2239498   7.321   1.784   1.390 -1.1625  0.2181  0.8962
  279MOL    C2339499   0.050   1.915   1.538 -0.0750  0.1802 -0.4330
  279MOL    C2439500   0.206   1.908   1.553  0.5381 -0.1238 -0.7519
  279MOL    O2539501   0.278   1.946   1.439 -0.4493 -0.3731 -0.1198
  279MOL    H2639502   0.031   2.021   1.517 -0.7253  0.3862  1.1430
  279MOL    H2739503   7.512   1.906   1.630  0.6077 -0.1011 -0.0299
  279MOL    H2839504   0.240   1.805   1.562 -2.8069 -1.3142 -0.8319
  279MOL    H2939505   0.292   2.039   1.431 -3.0167  0.0546  0.1057
  279MOL    C3039506   0.254   1.998   1.664 -0.1074 -0.2374  0.1526
  279MOL    C3139507   0.228   1.944   1.808  0.6671 -0.4714  0.3660
  279MOL    O3239508   0.335   1.861   1.842 -0.5185  0.5428  0.0379
  279MOL    H3339509   0.363   2.005   1.653 -0.2924  1.6062 -0.6896
  279MOL    H3439510   0.229   2.103   1.651  0.6874 -0.2114 -1.2622
  279MOL    H3539511   0.134   1.889   1.818  0.8915 -0.3920  3.3612
  279MOL    H3639512   0.315   1.823   1.926  0.8482 -0.4305 -0.0615
  279MOL    C3739513   0.230   2.054   1.914 -0.2176 -0.7040  0.6510
  279MOL    C3839514   0.091   2.120   1.930  0.0521 -0.3990  0.4941
  279MOL    O3939515   0.107   2.181   2.053 -0.0116 -0.2597 -0.0101
  279MOL    H4039516   0.254   2.012   2.012  1.6666 -2.4481 -0.5216
  279MOL    H4139517   0.307   2.126   1.885 -2.4728  1.1205 -0.9697
  279MOL    H4239518   0.013   2.046   1.949 -0.4968  0.2262  0.7153
  279MOL    H4339519   0.031   2.232   2.077  1.3064  1.6938  0.0847
  279MOL    C4439520   0.046   2.214   1.818  0.5618 -0.4560 -0.0882
  279MOL    C4539521   7.420   2.275   1.825 -0.6758 -0.2695 -0.0127
  279MOL    O4639522   7.420   2.355   1.945  0.2443 -0.0138  0.2826
  279MOL    H4739523   0.126   2.288   1.813 -0.5150  1.0898  3.6218
  279MOL    H4839524   0.057   2.158   1.725 -2.2510  2.8621 -2.5240
  279MOL    H4939525   7.345   2.196   1.835 -2.8031  1.4303 -1.7591
  279MOL    H5039526   7.390   2.299   2.014  3.6837 -4.0981 -1.2946
  279MOL    C5139527   7.371   2.373   1.714 -0.0523  0.5708 -0.7283
  279MOL    C5239528   7.370   2.312   1.571  0.4177 -0.4257  0.0407
  279MOL    O5339529   7.499   2.286   1.513  0.3868  0.1146  0.4483
  279MOL    H5439530   7.265   2.398   1.719 -0.5826 -1.0360 -3.2532
  279MOL    H5539531   7.427   2.466   1.721 -1.6771  1.7497 -2.8405
  279MOL    H5639532   7.330   2.390   1.506 -0.0832 -0.9646 -0.2983
  279MOL    H5739533   0.009   2.373   1.494 -0.5374  0.8860  2.4034
  279MOL    C5839534   7.283   2.184   1.563 -0.3603 -0.9327  0.7765
  279MOL    C5939535   7.208   2.182   1.437 -0.2115 -0.1672  0.1882
  279MOL    O6039536   7.163   2.048   1.425  0.4823  0.2311 -0.3938
  279MOL    H6139537   7.350   2.100   1.582 -0.0360 -0.6892  0.7122
  279MOL    H6239538   7.222   2.171   1.653 -3.6878  1.2029 -1.0614
  279MOL    H6339539   7.265   2.197   1.346  0.9252 -0.8057  0.7874
  279MOL    H6439540   7.241   1.996   1.418 -0.8455 -1.5170 -3.1905
  279MOL    C6539541   7.075   2.268   1.446 -0.4186  0.0209  0.1473
  279MOL    C6639542   7.002   2.300   1.323  0.7795  0.3842 -0.2628
  279MOL    O6739543   6.872   2.354   1.362 -0.3441  0.3066 -0.3403
  279MOL    H6839544   7.014   2.224   1.525  2.5395 -0.7495  2.0794
  279MOL    H6939545   7.110   2.362   1.491  2.3740  0.3027 -2.4485
  279MOL    H7039546   6.975   2.210   1.269  2.6911 -1.1597  1.2819
  279MOL    H7139547   6.819   2.310   1.298  0.4112  0.1901 -0.8840
  279MOL    C7239548   7.068   2.400   1.226  0.4591  1.1352 -1.1681
  279MOL    C7339549   7.005   2.422   1.086  0.4505 -0.5842  0.3230
  279MOL    O7439550   7.068   2.539   1.034 -0.2739 -0.0545  0.2930
  279MOL    H7539551   7.070   2.495   1.280  0.6724 -0.1596  1.1694
  279MOL    H7639552   7.172   2.370   1.212 -0.3043 -1.3958 -1.6655
  279MOL    H7739553   6.899   2.432   1.106  0.0920 -1.4461 -1.0626
  279MOL    H7839554   7.053   2.603   1.103 -0.7715 -0.7533  0.8438
  279MOL    C7939555   7.016   2.303   0.988  0.5815 -0.2067 -0.0768
  279MOL    C8039556   6.944   2.327   0.854 -0.3468 -0.0990  0.4845
  279MOL    O8139557   6.988   2.447   0.802  0.0396 -0.3016  0.3515
  279MOL    H8239558   7.119   2.272   0.970  1.0523  0.3898  1.5417
  279MOL    H8339559   6.969   2.218   1.038 -0.4369  0.7164  0.5433
  279MOL    H8439560   6.839   2.346   0.873 -0.5645 -0.8532  0.0443
  279MOL    H8539561   7.001   2.500   0.880  0.9200 -0.2812  0.1961
  279MOL    C8639562   6.975   2.218   0.748  0.9297 -0.8761  0.3186
  279MOL    C8739563   6.907   2.236   0.604  0.4644  0.8360 -0.3619
  279MOL    O8839564   6.989   2.330   0.542 -0.2860 -0.3130 -0.0091
  279MOL    H8939565   7.081   2.196   0.736  1.0683 -0.5359  0.9414
  279MOL    H9039566   6.945   2.120   0.786  3.4545 -0.4168  3.7140
  279MOL    H9139567   6.800   2.260   0.606  0.7408  2.1450 -0.3246
  279MOL    H9239568   6.986   2.403   0.602  1.0595 -1.1249  1.0721
  279MOL    C9339569   6.934   2.105   0.528  0.0167  0.0649 -0.1490
  279MOL    C9439570   6.865   2.080   0.393 -0.2448  0.1726  0.0419
  279MOL    O9539571   6.916   1.952   0.342  0.1938 -0.2692 -0.8375
  279MOL    H9639572   7.041   2.094   0.510 -0.2043 -1.2292 -0.7571
  279MOL    H9739573   6.902   2.019   0.588 -2.3273  1.7125  1.0159
  279MOL    H9839574   6.887   2.162   0.324 -0.3365  0.7807  0.7241
  279MOL    H9939575   6.843   1.911   0.297 -2.4164  3.6634 -0.4521
  279MOL   C10039576   6.714   2.070   0.414  0.3379  0.6162 -0.1163
  279MOL   C10139577   6.631   2.067   0.280  0.3428  0.0440  0.3368
  279MOL   O10239578   6.542   1.959   0.297 -0.6286  0.0079 -0.2724
  279MOL   H10339579   6.689   1.991   0.484 -2.6926 -0.5802 -2.4317
  279MOL   H10439580   6.675   2.157   0.467 -2.0885 -0.5244  0.0132
  279MOL   H10539581   6.689   2.035   0.193 -0.7796  2.3987 -1.3334
  279MOL   H10639582   6.591   1.884   0.328 -0.7092 -1.0832 -2.6732
  279MOL   C10739583   6.552   2.200   0.254  0.5478  0.5580 -0.5586
  279MOL   C10839584   6.619   2.320   0.186 -0.5373  0.4436 -0.6872
  279MOL   O10939585   6.679   2.261   0.069  0.5905 -0.5252  0.1108
  279MOL   H11039586   6.466   2.171   0.195  0.5031 -2.3077  0.7968
  279MOL   H11139587   6.504   2.243   0.341 -0.9079 -0.9193 -0.6026
  279MOL   H11239588   6.696   2.356   0.255 -0.5066 -2.2027  0.7195
  279MOL   H11339589   6.611   2.225   0.013  0.8513  0.8137 -1.0828
  279MOL   C11439590   6.520   2.428   0.159 -0.1270  0.7669  0.1591
  279MOL   C11539591   6.561   2.570   0.122 -0.2523  0.0819 -0.7626
  279MOL   O11639592   6.449   2.649   0.098  0.1463  0.3122  0.4854
  279MOL   H11739593   6.436   2.395   0.097  0.7305  0.6804 -0.9804
  279MOL   H11839594   6.465   2.453   0.250 -2.2935 -2.8946 -0.0394
  279MOL   H11939595   6.615   2.568   0.028  0.3802  1.3490 -0.4358
  279MOL   H12039596   6.420   2.630   0.010 -1.6390  0.6590  0.9706
  279MOL   C12139597   6.654   2.641   0.224 -0.1792  0.0421  0.3077
  279MOL   C12239598   6.703   2.788   0.183 -0.8438 -0.4052 -0.6264
  279MOL   O12339599   6.783   2.838   0.286 -0.6356 -0.1217 -0.1302
  279MOL   H12439600   6.596   2.651   0.315 -3.0559 -2.4542 -1.1473
  279MOL   H12539601   6.734   2.570   0.246 -1.6304 -2.6866 -2.6997
  279MOL   H12639602   6.607   2.839   0.182  0.1327  1.4811 -0.5852
  279MOL   H12739603   6.759   2.929   0.297  0.0979  0.0712 -0.1380
  279MOL   C12839604   6.790   2.807   0.052  0.6700  0.1457  0.1731
  279MOL   C12939605   6.778   2.955   0.002 -0.7561  0.6769 -0.0768
  279MOL   O13039606   6.908   2.994   7.499  0.4524  0.5499  0.5766
  279MOL   H13139607   6.894   2.781   0.074  0.4428 -1.4270 -0.5622
  279MOL   H13239608   6.750   2.741   7.495 -1.3609 -1.3794  2.4788
  279MOL   H13339609   6.744   3.032   0.071 -0.1267  0.1112  0.8732
  279MOL   H13439610   6.937   2.980   7.410 -1.5028  0.7762 -0.1078
  279MOL   C13539611   6.689   2.971   7.396  0.3376  0.6363 -0.5610
  279MOL   C13639612   6.536   2.964   7.426  0.2451  0.7069 -0.0495
  279MOL   O13739613   6.453   2.930   7.315  1.0475 -0.6630 -0.2791
  279MOL   H13839614   6.718   3.069   7.360  0.6951  0.9440  0.5541
  279MOL   H13939615   6.703   2.894   7.320  0.7048  1.3732 -1.2385
  279MOL   H14039616   6.508   3.060   7.470  1.8729 -0.2551  3.1752
  279MOL   H14139617   6.365   2.967   7.318  1.3521 -0.0475  1.3349
  279MOL   H14239618   6.521   2.880   7.493 -0.3651 -0.7033 -1.8824
  280MOL     C139619   0.740   5.371   1.632 -0.1663  0.5379 -0.1627
  280MOL     C239620   0.890   5.375   1.650 -0.4943  0.6144 -0.2370
  280MOL     O339621   0.914   5.454   1.764  0.0339  0.0827 -0.3160
  280MOL     H439622   0.698   5.296   1.699  2.6032 -1.5418 -0.6426
  280MOL     H539623   0.713   5.329   1.535 -0.7772  2.0194 -0.6376
  280MOL     H639624   0.936   5.431   1.568 -1.3790  0.2746 -0.9841
  280MOL     H739625   0.852   5.525   1.770 -1.5581 -1.3534  0.6014
  280MOL     H839626   0.694   5.469   1.631  2.6753  1.9188 -0.1991
  280MOL     C939627   0.942   5.226   1.664  0.3299 -0.3626  0.1256
  280MOL    C1039628   1.097   5.227   1.680 -0.9461 -0.1846 -0.3923
  280MOL    O1139629   1.130   5.306   1.791 -0.5724 -0.3829  0.2750
  280MOL    H1239630   0.899   5.179   1.752  0.0484 -0.2364  0.0540
  280MOL    H1339631   0.915   5.166   1.577 -0.7909 -1.1450  1.0174
  280MOL    H1439632   1.149   5.272   1.596 -0.9759 -0.4056 -0.5284
  280MOL    H1539633   1.058   5.366   1.806 -0.0411  0.2409  0.3514
  280MOL    C1639634   1.150   5.077   1.707  0.3870 -0.0632  0.5310
  280MOL    C1739635   1.300   5.056   1.710  0.0584 -0.2691  0.3720
  280MOL    O1839636   1.349   5.128   1.823  0.5095 -0.0794  0.0192
  280MOL    H1939637   1.107   5.026   1.793 -1.8089 -1.2286 -1.1979
  280MOL    H2039638   1.110   5.027   1.618  1.0133  0.2771  0.0493
  280MOL    H2139639   1.352   5.104   1.627 -2.3906  0.0922 -1.0072
  280MOL    H2239640   1.289   5.199   1.836  0.3793 -0.3215  0.7517
  280MOL    C2339641   1.341   4.908   1.724 -0.3595 -0.1053  0.0818
  280MOL    C2439642   1.296   4.815   1.612 -0.0737  0.2574 -0.2370
  280MOL    O2539643   1.346   4.864   1.487  0.4335 -0.0100  0.1575
  280MOL    H2639644   1.448   4.898   1.738 -0.2953  1.5961  0.8689
  280MOL    H2739645   1.291   4.872   1.814 -0.8898 -0.9662 -0.5463
  280MOL    H2839646   1.187   4.819   1.600 -0.2420 -1.1180  0.6369
  280MOL    H2939647   1.276   4.904   1.439  0.2731 -0.7842 -0.2653
  280MOL    C3039648   1.335   4.665   1.642 -0.1194 -0.4580  0.1073
  280MOL    C3139649   1.283   4.566   1.535  0.1631 -0.1764  0.8341
  280MOL    O3239650   1.387   4.552   1.435 -0.6106  0.3240 -0.5415
  280MOL    H3339651   1.433   4.663   1.688  0.4225 -2.0474 -1.0847
  280MOL    H3439652   1.280   4.646   1.734  2.4038 -0.8850  1.5580
  280MOL    H3539653   1.195   4.611   1.489  1.3348  1.1052 -0.2059
  280MOL    H3639654   1.423   4.638   1.446  3.0547 -1.2540  0.5057
  280MOL    C3739655   1.262   4.413   1.576  0.1532 -0.0603  0.0038
  280MOL    C3839656   1.179   4.334   1.472  0.0235  0.1094 -0.7039
  280MOL    O3939657   1.219   4.198   1.497  0.4255  0.2321  0.4481
  280MOL    H4039658   1.351   4.359   1.608  0.2129  0.0051 -0.0494
  280MOL    H4139659   1.202   4.413   1.666  0.6866 -2.0828  0.3797
  280MOL    H4239660   1.208   4.360   1.370 -0.9479  1.6107 -0.6173
  280MOL    H4339661   1.295   4.186   1.441  1.1216  0.6152  1.2973
  280MOL    C4439662   1.025   4.344   1.501 -0.2395  0.9645  0.1867
  280MOL    C4539663   0.942   4.249   1.411  0.1623  0.2500  0.7700
  280MOL    O4639664   0.853   4.166   1.487 -0.2673  0.4891  0.4066
  280MOL    H4739665   1.005   4.317   1.605 -0.2621  0.6623  0.1048
  280MOL    H4839666   1.000   4.450   1.494  1.3871  1.3804  0.6627
  280MOL    H4939667   1.010   4.180   1.360  0.5432  1.4606 -0.3844
  280MOL    H5039668   0.907   4.108   1.539 -0.6414 -0.2182  0.0249
  280MOL    C5139669   0.883   4.330   1.295  0.1312  0.2637 -0.7469
  280MOL    C5239670   0.814   4.250   1.180  0.1320  0.3830  0.0700
  280MOL    O5339671   0.720   4.161   1.238  0.4092 -0.0491  0.0452
  280MOL    H5439672   0.820   4.410   1.335  1.0976 -0.1932  1.7652
  280MOL    H5539673   0.965   4.384   1.248 -0.6891  0.4547 -2.0031
  280MOL    H5639674   0.897   4.187   1.148 -0.0528 -1.4637  2.9891
  280MOL    H5739675   0.762   4.131   1.316  2.0084 -0.5493 -0.9815
  280MOL    C5839676   0.738   4.328   1.066  0.2492  0.9775  0.6424
  280MOL    C5939677   0.812   4.433   0.981  0.1056  1.0358 -0.0028
  280MOL    O6039678   0.813   4.557   1.048 -0.0497  0.2635  0.0991
  280MOL    H6139679   0.695   4.266   0.987  1.9405 -0.0444  0.5054
  280MOL    H6239680   0.655   4.374   1.119  1.7589  2.2425  1.9579
  280MOL    H6339681   0.754   4.446   0.889 -0.1652 -0.5916 -0.0674
  280MOL    H6439682   0.837   4.634   0.999  1.6435 -0.7916 -0.7715
  280MOL    C6539683   0.958   4.398   0.949 -0.5925  0.0652  0.1880
  280MOL    C6639684   0.979   4.262   0.872  0.3531 -0.2666  0.3519
  280MOL    O6739685   0.907   4.283   0.753 -0.1631  0.3228  0.2701
  280MOL    H6839686   1.003   4.476   0.888 -1.5483 -1.0080 -1.9266
  280MOL    H6939687   1.013   4.406   1.043 -0.3327  0.2939  0.0158
  280MOL    H7039688   0.946   4.176   0.930  1.2543 -0.1202  1.0883
  280MOL    H7139689   0.947   4.347   0.696  2.1432  0.2227  1.7167
  280MOL    C7239690   1.124   4.241   0.833  0.5178 -0.6368 -0.0590
  280MOL    C7339691   1.213   4.207   0.954  0.6157  0.0059 -0.7700
  280MOL    O7439692   1.187   4.073   0.981  0.1430 -0.0999 -0.0899
  280MOL    H7539693   1.132   4.153   0.770  0.2518 -0.8778  0.2394
  280MOL    H7639694   1.171   4.311   0.765  2.7150 -0.1899  1.8343
  280MOL    H7739695   1.183   4.255   1.047  0.3012 -1.5651 -0.0486
  280MOL    H7839696   1.175   4.061   1.074 -0.8824  0.7117 -0.0971
  280MOL    C7939697   1.366   4.232   0.931  0.1852  0.0632  0.3623
  280MOL    C8039698   1.407   4.377   0.921 -0.1708 -0.1716  0.3280
  280MOL    O8139699   1.422   4.427   1.051  0.1148  0.0026 -0.7016
  280MOL    H8239700   1.417   4.184   1.014  0.9379 -0.9297 -0.6502
  280MOL    H8339701   1.389   4.164   0.849  0.0704 -1.1924  1.3469
  280MOL    H8439702   1.333   4.444   0.877  0.7832  2.4192  2.5126
  280MOL    H8539703   1.388   4.515   1.058 -0.7536 -0.4216  0.5746
  280MOL    C8639704   1.536   4.399   0.839  0.4098  0.1275  0.4265
  280MOL    C8739705   1.528   4.365   0.687 -0.0176  0.0511 -0.3407
  280MOL    O8839706   1.433   4.445   0.638 -0.0229 -0.2173 -1.2014
  280MOL    H8939707   1.573   4.501   0.844  3.0106 -0.8634  3.7187
  280MOL    H9039708   1.606   4.326   0.880 -1.1300 -0.8479  1.3571
  280MOL    H9139709   1.508   4.261   0.662 -0.1879 -0.0906  0.3816
  280MOL    H9239710   1.467   4.533   0.641 -1.9591  0.5212  1.6805
  280MOL    C9339711   1.662   4.385   0.610 -0.2063  1.1363 -0.1682
  280MOL    C9439712   1.671   4.332   0.465  0.1030 -0.3384  0.4341
  280MOL    O9539713   1.790   4.378   0.405  0.4204  0.0434  0.2226
  280MOL    H9639714   1.698   4.487   0.620 -0.5126  0.9698  3.2345
  280MOL    H9739715   1.738   4.330   0.665 -0.7283  0.5011 -0.0607
  280MOL    H9839716   1.582   4.378   0.422  0.3104 -0.5661 -0.2512
  280MOL    H9939717   1.771   4.466   0.378  1.7573  0.6368  1.1541
  280MOL   C10039718   1.652   4.180   0.444 -0.1266  0.5091 -0.1165
  280MOL   C10139719   1.639   4.144   0.286 -0.1096 -0.4603  0.0671
  280MOL   O10239720   1.642   4.004   0.264  0.2016  0.1667 -0.3786
  280MOL   H10339721   1.732   4.122   0.489 -1.6169 -0.1325  1.7950
  280MOL   H10439722   1.568   4.146   0.505  0.9882  1.0284  1.7232
  280MOL   H10539723   1.722   4.187   0.230  0.2176 -0.1400  0.7855
  280MOL   H10639724   1.588   3.960   0.328 -1.0233 -0.6280 -1.9218
  280MOL   C10739725   1.505   4.200   0.231 -0.0790 -0.5212 -0.5215
  280MOL   C10839726   1.496   4.195   0.073 -0.0661 -0.0326 -0.3572
  280MOL   O10939727   1.358   4.210   0.028  0.0014 -0.2886 -0.4862
  280MOL   H11039728   1.426   4.139   0.275  0.4268  1.0548  2.7620
  280MOL   H11139729   1.490   4.301   0.268 -0.7569 -0.7920 -0.0508
  280MOL   H11239730   1.543   4.102   0.041  1.5708  0.0784  1.5973
  280MOL   H11339731   1.299   4.163   0.083  1.6270 -1.4448  0.3127
  280MOL   C11439732   1.570   4.301   0.005  0.1073 -0.1975 -0.0965
  280MOL   C11539733   1.565   4.281   7.371  0.5083 -0.0373  0.2915
  280MOL   O11639734   1.436   4.313   7.313  0.6089 -0.2145 -0.2403
  280MOL   H11739735   1.529   4.395   0.042 -1.7973  0.2049 -3.0655
  280MOL   H11839736   1.676   4.304   0.029  0.1634 -2.1976  0.0016
  280MOL   H11939737   1.567   4.173   7.359  0.1700 -0.0494  0.3368
  280MOL   H12039738   1.369   4.293   7.376  2.7571 -1.8843  1.5691
  280MOL   C12139739   1.680   4.345   7.280  0.6172 -0.4054 -0.8168
  280MOL   C12239740   1.648   4.330   7.131  0.2587 -0.8589  0.1487
  280MOL   O12339741   1.543   4.413   7.080  0.0656  0.2268 -0.8066
  280MOL   H12439742   1.686   4.452   7.297 -0.6704  0.0036 -2.7587
  280MOL   H12539743   1.781   4.312   7.305  0.7705  1.7602  1.5487
  280MOL   H12639744   1.622   4.225   7.119  1.5261 -1.1530 -0.1598
  280MOL   H12739745   1.479   4.411   7.149  0.1087 -0.7152 -0.7814
  280MOL   C12839746   1.785   4.354   7.052  0.2982 -0.4362 -0.0602
  280MOL   C12939747   1.767   4.334   6.905  0.4756  0.1144  0.6460
  280MOL   O13039748   1.887   4.377   6.846 -0.1345 -0.3500 -0.0834
  280MOL   H13139749   1.822   4.453   7.077  0.8813 -0.5557 -0.4331
  280MOL   H13239750   1.864   4.283   7.077  1.1118 -0.5631 -2.7779
  280MOL   H13339751   1.690   4.398   6.862  1.1231  1.1653  1.0308
  280MOL   H13439752   1.891   4.340   6.760 -1.6774  0.3986 -0.4987
  280MOL   C13539753   1.722   4.191   6.875 -0.8397 -0.2165 -0.4656
  280MOL   C13639754   1.603   4.187   6.781 -0.1146 -0.2674 -0.0852
  280MOL   O13739755   1.596   4.056   6.729  0.2419  0.0689 -0.4097
  280MOL   H13839756   1.797   4.136   6.819  0.7307  1.6539 -0.2495
  280MOL   H13939757   1.710   4.125   6.962 -0.4489  2.2750  1.5497
  280MOL   H14039758   1.600   4.264   6.704  1.1132 -2.1825 -2.0849
  280MOL   H14139759   1.510   4.025   6.753 -0.6293  2.1024 -0.8002
  280MOL   H14239760   1.512   4.218   6.833  0.4631 -1.8145  1.9083
  281MOL     C139761   1.796   2.975   7.401  1.0479  0.4671 -0.8324
  281MOL     C239762   1.734   3.107   7.352 -0.0824 -0.1906  0.2630
  281MOL     O339763   1.657   3.096   7.238  0.0706 -0.4266 -0.1472
  281MOL     H439764   1.714   2.904   7.410  0.9055  0.3768 -2.5383
  281MOL     H539765   1.845   2.988   7.497  1.4705  3.1929 -1.3475
  281MOL     H639766   1.826   3.162   7.329  0.4786 -0.7334  1.1777
  281MOL     H739767   1.592   3.033   7.265  1.2913 -1.5143  0.3187
  281MOL     H839768   1.870   2.942   7.328 -1.7817 -1.4446 -2.9376
  281MOL     C939769   1.664   3.187   7.454 -0.3462 -0.2828  0.0220
  281MOL    C1039770   1.752   3.253   0.035  0.0323  0.1374  0.4293
  281MOL    O1139771   1.842   3.350   7.480  0.0422 -0.0947  0.2459
  281MOL    H1239772   1.607   3.271   7.414  0.0133  0.0565  0.2131
  281MOL    H1339773   1.594   3.121   7.505 -0.1824 -1.6294 -1.4468
  281MOL    H1439774   1.806   3.169   0.080  0.7818  0.8947  0.9744
  281MOL    H1539775   1.838   3.437   7.518  1.8845  0.4074 -0.6982
  281MOL    C1639776   1.685   3.332   0.152 -0.0746  0.2747  0.3588
  281MOL    C1739777   1.577   3.266   0.232  0.4222 -0.3920  0.1817
  281MOL    O1839778   1.639   3.175   0.325 -0.2190 -0.1020  0.3988
  281MOL    H1939779   1.763   3.373   0.216 -1.0167 -0.3063  1.9059
  281MOL    H2039780   1.648   3.420   0.098 -0.2382 -0.0435 -0.0483
  281MOL    H2139781   1.515   3.201   0.170  0.5076  0.9046 -1.2795
  281MOL    H2239782   1.620   3.090   0.289 -2.0942  0.0066  1.1144
  281MOL    C2339783   1.474   3.357   0.305 -0.6203 -0.8460 -0.2970
  281MOL    C2439784   1.367   3.431   0.220  0.1512  0.0013 -0.5956
  281MOL    O2539785   1.276   3.328   0.179 -0.0572 -0.3552  0.5760
  281MOL    H2639786   1.409   3.306   0.375 -2.7819  0.1401 -1.5433
  281MOL    H2739787   1.521   3.432   0.369 -3.8681  1.6359 -0.6848
  281MOL    H2839788   1.411   3.473   0.129  1.9011 -0.4304  0.0388
  281MOL    H2939789   1.199   3.372   0.146  0.7709 -0.2712 -1.2975
  281MOL    C3039790   1.288   3.529   0.309 -0.3935 -0.7901  0.5978
  281MOL    C3139791   1.366   3.651   0.355  0.2046  0.4055  0.0563
  281MOL    O3239792   1.405   3.735   0.240  0.6568  0.2611 -0.5000
  281MOL    H3339793   1.196   3.569   0.266 -0.3332 -0.7184  0.5365
  281MOL    H3439794   1.258   3.472   0.397 -1.2526 -1.9190 -0.4053
  281MOL    H3539795   1.457   3.621   0.407  1.3046 -0.3824 -2.2541
  281MOL    H3639796   1.407   3.678   0.165 -0.2841  1.0185 -1.1180
  281MOL    C3739797   1.277   3.720   0.459 -0.1673  0.7351 -0.4209
  281MOL    C3839798   1.343   3.837   0.535  0.4483 -0.1217  0.5312
  281MOL    O3939799   1.344   3.940   0.436  0.0366  0.0964  0.5507
  281MOL    H4039800   1.179   3.744   0.418 -0.8951 -2.0076 -0.3463
  281MOL    H4139801   1.242   3.651   0.536 -0.7404  1.2735 -0.1946
  281MOL    H4239802   1.448   3.829   0.560  0.9701  2.0130 -0.7504
  281MOL    H4339803   1.378   3.896   0.359  2.1896  0.1787  1.4091
  281MOL    C4439804   1.278   3.887   0.661  0.1568  0.3834 -0.3202
  281MOL    C4539805   1.294   3.781   0.771  0.4896 -0.5119  0.2932
  281MOL    O4639806   1.359   3.838   0.882  0.0248 -0.4846 -0.1053
  281MOL    H4739807   1.333   3.975   0.694 -2.5364  2.6718 -1.7676
  281MOL    H4839808   1.177   3.917   0.634  0.3208 -0.1730 -1.5558
  281MOL    H4939809   1.343   3.688   0.741 -1.1333 -2.4712  3.3773
  281MOL    H5039810   1.314   3.915   0.914  1.0807  0.3463 -0.5910
  281MOL    C5139811   1.160   3.744   0.837  0.1669 -0.1036  0.0080
  281MOL    C5239812   1.068   3.657   0.748 -0.3872 -0.2213 -0.0888
  281MOL    O5339813   1.127   3.533   0.731  0.1060  0.2946  0.0052
  281MOL    H5439814   1.167   3.701   0.937 -0.7700 -0.3530 -0.0298
  281MOL    H5539815   1.116   3.841   0.863  0.2581  0.0702 -0.4856
  281MOL    H5639816   1.060   3.689   0.644 -0.5535  3.5320  1.0054
  281MOL    H5739817   1.158   3.492   0.810 -1.0119 -2.9546 -1.1867
  281MOL    C5839818   0.928   3.638   0.802  0.1236  0.2204  0.3879
  281MOL    C5939819   0.837   3.761   0.816  0.6160  0.1932 -0.3107
  281MOL    O6039820   0.866   3.816   0.946  0.0304  0.3309  0.7558
  281MOL    H6139821   0.885   3.563   0.736 -0.0649  0.6021  0.0776
  281MOL    H6239822   0.938   3.593   0.901  0.2898 -0.3846  0.0952
  281MOL    H6339823   0.734   3.724   0.817  0.6418  0.1230  1.3903
  281MOL    H6439824   0.801   3.880   0.969  0.2109  0.2713  1.4288
  281MOL    C6539825   0.857   3.862   0.696 -0.2069  0.2072 -0.0820
  281MOL    C6639826   0.746   3.964   0.682  0.3476 -0.4361  0.7502
  281MOL    O6739827   0.794   4.070   0.602  0.0184 -0.0209  0.2365
  281MOL    H6839828   0.956   3.907   0.706  0.8415 -2.0006 -0.3826
  281MOL    H6939829   0.862   3.805   0.604  1.7292  0.2588 -0.0325
  281MOL    H7039830   0.743   4.009   0.781  1.5165 -0.6746  0.9050
  281MOL    H7139831   0.819   4.144   0.656  2.8330 -1.8469  1.5992
  281MOL    C7239832   0.609   3.911   0.634  0.3556 -0.5713  0.9326
  281MOL    C7339833   0.496   4.018   0.608 -0.4575  0.7430  0.2838
  281MOL    O7439834   0.413   3.975   0.506 -0.5373  0.2518  0.2375
  281MOL    H7539835   0.621   3.855   0.541 -1.9146  0.4406 -0.0021
  281MOL    H7639836   0.570   3.851   0.716 -2.5370  0.1151  0.1153
  281MOL    H7739837   0.539   4.109   0.565  0.6818 -0.9961 -2.3918
  281MOL    H7839838   0.375   4.053   0.468 -0.8292 -0.3882 -0.8235
  281MOL    C7939839   0.412   4.039   0.732  0.8345 -0.5026  0.8261
  281MOL    C8039840   0.475   4.110   0.847 -0.2175 -0.0776 -0.9411
  281MOL    O8139841   0.430   4.247   0.858  0.7154  0.3971  0.2536
  281MOL    H8239842   0.327   4.100   0.698  1.6966  0.5429  0.5201
  281MOL    H8339843   0.372   3.944   0.768  0.4864 -1.1634 -1.2126
  281MOL    H8439844   0.583   4.109   0.835  0.1728  0.3535  2.2123
  281MOL    H8539845   0.463   4.290   0.780 -0.3206 -1.9258 -1.5261
  281MOL    C8639846   0.442   4.050   0.984 -0.4976 -0.0110  0.1512
  281MOL    C8739847   0.533   3.924   1.023  0.1086  0.1572  1.0612
  281MOL    O8839848   0.662   3.966   1.030 -0.1688  0.0368  0.3143
  281MOL    H8939849   0.435   4.115   1.071 -0.2330 -1.0830  0.9916
  281MOL    H9039850   0.337   4.021   0.973 -0.0627 -1.3948 -0.4041
  281MOL    H9139851   0.532   3.853   0.941 -0.7908 -2.2267  3.0720
  281MOL    H9239852   0.664   4.038   1.091  1.2965  2.9553 -2.9830
  281MOL    C9339853   0.506   3.849   1.153  0.0072 -0.2454  0.0156
  281MOL    C9439854   0.391   3.753   1.161  0.4929  0.2218  0.3786
  281MOL    O9539855   0.381   3.646   1.062  0.5446  0.6549  0.3339
  281MOL    H9639856   0.600   3.801   1.181  0.4018  0.8038  0.5048
  281MOL    H9739857   0.488   3.930   1.223 -1.1654  0.6939 -1.3607
  281MOL    H9839858   0.300   3.810   1.140  1.0286  0.5147 -1.1353
  281MOL    H9939859   0.348   3.683   0.982 -2.4738  0.1442  1.3005
  281MOL   C10039860   0.404   3.689   1.299  0.0186  0.3698  0.4148
  281MOL   C10139861   0.300   3.579   1.339  0.0030  0.3904 -0.0381
  281MOL   O10239862   0.372   3.492   1.411 -0.2855  0.5424  0.2773
  281MOL   H10339863   0.496   3.631   1.301 -1.2916 -1.7789 -0.0697
  281MOL   H10439864   0.417   3.766   1.376  0.8779  2.6529 -1.9511
  281MOL   H10539865   0.251   3.531   1.254 -1.5046  1.5207  0.1618
  281MOL   H10639866   0.406   3.422   1.357  0.1168  0.7282  0.2896
  281MOL   C10739867   0.186   3.627   1.432 -0.4388  0.2930  0.9353
  281MOL   C10839868   0.087   3.729   1.366  0.6013  0.7835 -0.5222
  281MOL   O10939869   7.487   3.690   1.429  0.2587  0.1687 -0.0518
  281MOL   H11039870   0.131   3.539   1.463 -0.2356 -0.8449 -1.8616
  281MOL   H11139871   0.216   3.672   1.527  4.3346  0.1387 -0.3743
  281MOL   H11239872   0.068   3.708   1.261 -2.1087  0.5764 -0.0234
  281MOL   H11339873   7.455   3.764   1.477  0.4870 -0.7960  1.6155
  281MOL   C11439874   0.131   3.867   1.398 -0.1174 -0.3099  0.4407
  281MOL   C11539875   0.027   3.977   1.341 -1.0180 -0.6461 -0.0290
  281MOL   O11639876   0.035   4.078   1.435 -0.1892 -0.7195  0.4689
  281MOL   H11739877   0.135   3.865   1.507  0.1921 -0.4750  0.4268
  281MOL   H11839878   0.227   3.901   1.358 -0.7170  0.4162 -0.4061
  281MOL   H11939879   7.443   3.941   1.346 -0.8865 -0.8212  1.8322
  281MOL   H12039880   7.478   4.072   1.490 -0.6232  0.0626 -0.0390
  281MOL   C12139881   0.064   4.033   1.206  0.3496 -0.2749  0.3041
  281MOL   C12239882   7.504   4.159   1.168 -0.1605  0.0000 -0.4369
  281MOL   O12339883   0.009   4.196   1.041  0.4126 -0.6898 -0.7413
  281MOL   H12439884   0.172   4.049   1.207  0.1950  0.8460 -0.4868
  281MOL   H12539885   0.046   3.974   1.117 -3.8161  1.7242 -0.2777
  281MOL   H12639886   0.031   4.240   1.224  0.3173  0.1915 -1.1062
  281MOL   H12739887   0.083   4.254   1.036  0.2886 -0.4296  0.4614
  281MOL   C12839888   7.355   4.158   1.200  0.2521 -0.1425  0.8793
  281MOL   C12939889   7.284   4.296   1.186 -0.3698  0.6512 -0.2391
  281MOL   O13039890   7.146   4.276   1.201  0.3295 -0.0377 -0.7473
  281MOL   H13139891   7.305   4.093   1.128  0.1334  1.6137 -0.6772
  281MOL   H13239892   7.337   4.132   1.305 -0.3996 -0.8725  0.5967
  281MOL   H13339893   7.285   4.335   1.084  0.4506 -0.3880 -0.6458
  281MOL   H13439894   7.105   4.362   1.201  1.8198  0.7008  0.6721
  281MOL   C13539895   7.340   4.400   1.290 -0.1320  0.7973 -0.2097
  281MOL   C13639896   7.352   4.543   1.236  0.2110  0.2291  0.4247
  281MOL   O13739897   7.386   4.632   1.338 -0.4228  0.8261  0.2256
  281MOL   H13839898   7.274   4.392   1.377 -1.2067  1.1944 -0.9658
  281MOL   H13939899   7.439   4.368   1.322  0.6537  0.3932 -2.9138
  281MOL   H14039900   7.257   4.576   1.192  0.1530 -0.8585 -0.2771
  281MOL   H14139901   7.424   4.707   1.294  1.0753 -0.1270 -0.1513
  281MOL   H14239902   7.430   4.536   1.161 -0.2661 -0.3295 -0.0231
  282MOL     C139903   6.432   6.389   0.702 -0.0154  0.7260  0.3918
  282MOL     C239904   6.472   6.319   0.830  0.1561  0.3764  0.1197
  282MOL     O339905   6.438   6.392   0.945  0.1006 -0.2409  0.6819
  282MOL     H439906   6.457   6.346   0.605 -1.2658 -0.4577  0.5733
  282MOL     H539907   6.463   6.494   0.702 -2.3520  1.4639 -0.4000
  282MOL     H639908   6.579   6.296   0.832 -0.3954 -2.7738 -2.1206
  282MOL     H739909   6.504   6.371   1.009  1.1006 -0.3441 -0.3658
  282MOL     H839910   6.325   6.410   0.696  0.0765  1.0192 -0.2838
  282MOL     C939911   6.415   6.178   0.866  0.5403 -0.2130  0.0999
  282MOL    C1039912   6.490   6.057   0.803  0.1568 -0.2918  0.4970
  282MOL    O1139913   6.409   5.942   0.830 -0.5538  0.1758 -0.2945
  282MOL    H1239914   6.423   6.158   0.972 -0.7646 -0.2022  0.2118
  282MOL    H1339915   6.309   6.178   0.837  0.8040 -1.4449 -0.8816
  282MOL    H1439916   6.587   6.055   0.854  0.9378  1.2066 -0.9026
  282MOL    H1539917   6.469   5.869   0.827 -1.7557 -0.8602  0.2052
  282MOL    C1639918   6.506   6.070   0.653  0.7473  0.3740 -1.2527
  282MOL    C1739919   6.646   6.045   0.599  0.8235  0.1636  0.3337
  282MOL    O1839920   6.691   5.911   0.613  0.5744  0.0073  0.6290
  282MOL    H1939921   6.450   5.985   0.615  1.1274  0.3086 -1.6713
  282MOL    H2039922   6.453   6.153   0.606 -0.0027 -0.4555 -1.8875
  282MOL    H2139923   6.708   6.104   0.667  0.1578  0.7018  0.4816
  282MOL    H2239924   6.621   5.848   0.609 -0.2588  0.9241  0.2361
  282MOL    C2339925   6.665   6.093   0.453  0.3778  0.3738 -0.1692
  282MOL    C2439926   6.800   6.100   0.388  0.4206 -0.4936 -0.1919
  282MOL    O2539927   6.780   6.164   0.268  0.3428 -0.3711 -0.5547
  282MOL    H2639928   6.597   6.035   0.390 -0.2048  1.0881 -0.2063
  282MOL    H2739929   6.615   6.189   0.439 -0.8929  0.0813  2.1091
  282MOL    H2839930   6.836   5.998   0.377  1.2738 -0.1914 -0.2918
  282MOL    H2939931   6.862   6.205   0.249  0.2083 -0.0943 -0.5312
  282MOL    C3039932   6.911   6.166   0.467 -0.5996 -0.0861  0.3954
  282MOL    C3139933   7.062   6.164   0.410 -0.1139  0.2240  0.4492
  282MOL    O3239934   7.067   6.242   0.296  0.1523 -0.2395 -0.6254
  282MOL    H3339935   6.883   6.270   0.484  1.6115  0.8341 -1.3653
  282MOL    H3439936   6.913   6.114   0.563  0.2940 -1.9173 -0.5865
  282MOL    H3539937   7.090   6.059   0.398  0.6757  0.4859  0.0057
  282MOL    H3639938   7.141   6.215   0.245 -0.4126 -0.0714 -1.5437
  282MOL    C3739939   7.161   6.231   0.512  0.0433  0.7719 -0.4006
  282MOL    C3839940   7.178   6.159   0.649 -1.0434  0.0490  0.2143
  282MOL    O3939941   7.311   6.109   0.658 -0.3841 -0.1133 -0.5235
  282MOL    H4039942   7.252   6.235   0.452  1.4692 -2.5445  1.4383
  282MOL    H4139943   7.140   6.336   0.529 -0.3777  0.9969 -2.2228
  282MOL    H4239944   7.114   6.072   0.656  1.3521 -1.6448  2.1628
  282MOL    H4339945   7.342   6.078   0.574  1.9373  1.9821 -0.4763
  282MOL    C4439946   7.160   6.243   0.774 -0.2037 -0.4181 -0.6253
  282MOL    C4539947   7.014   6.281   0.801 -0.0936  0.2334  0.1855
  282MOL    O4639948   6.979   6.251   0.934 -0.8468 -0.1569 -0.4633
  282MOL    H4739949   7.197   6.176   0.852 -1.5249 -0.2340  0.1588
  282MOL    H4839950   7.228   6.326   0.756  2.0918 -1.8302  1.2064
  282MOL    H4939951   6.936   6.238   0.738  0.0850  0.2434 -0.0472
  282MOL    H5039952   6.972   6.157   0.939  0.5843 -0.3038 -0.9526
  282MOL    C5139953   7.008   6.436   0.771  0.0150 -0.9372 -0.0928
  282MOL    C5239954   6.874   6.509   0.768 -0.4018 -0.0917 -0.1279
  282MOL    O5339955   6.792   6.455   0.661 -0.6235 -0.2888  0.1639
  282MOL    H5439956   7.077   6.483   0.841 -0.0585  0.8861 -1.2200
  282MOL    H5539957   7.038   6.451   0.667  0.6556 -1.5168  0.0063
  282MOL    H5639958   6.890   6.612   0.736  1.1729 -1.1529 -2.9360
  282MOL    H5739959   6.739   6.529   0.636  0.6847  1.1214  1.4497
  282MOL    C5839960   6.800   6.508   0.906 -0.5573  0.0481 -0.5069
  282MOL    C5939961   6.885   6.582   1.019  0.7703  0.2540  0.2761
  282MOL    O6039962   6.969   6.489   1.085 -0.1190 -0.3318  0.2165
  282MOL    H6139963   6.706   6.561   0.892 -0.4949  1.3902  3.4608
  282MOL    H6239964   6.777   6.407   0.940 -2.4247  0.3210 -0.8716
  282MOL    H6339965   6.814   6.612   1.096 -1.6500  1.2108 -2.2523
  282MOL    H6439966   6.962   6.413   1.030 -3.7427 -0.2288  0.4208
  282MOL    C6539967   6.983   6.701   0.998  0.0305 -0.4712  0.8204
  282MOL    C6639968   6.914   6.836   1.035 -0.5151  0.5267  0.2131
  282MOL    O6739969   7.008   6.935   1.036 -0.2250 -0.3941  0.3643
  282MOL    H6839970   7.073   6.688   1.057  0.7286 -0.0627 -0.1333
  282MOL    H6939971   7.018   6.702   0.894 -1.3304  1.8323  0.3554
  282MOL    H7039972   6.868   6.835   1.134 -0.3325  0.3841  0.2965
  282MOL    H7139973   7.014   6.960   1.127  0.6244  0.2268  0.1402
  282MOL    C7239974   6.804   6.882   0.937 -0.0720  0.3283 -0.4110
  282MOL    C7339975   6.697   6.981   0.999  0.1228  0.3281  0.5683
  282MOL    O7439976   6.619   7.043   0.891  0.0246  0.4843 -0.0711
  282MOL    H7539977   6.848   6.920   0.845 -0.5124 -1.0641 -1.2070
  282MOL    H7639978   6.745   6.796   0.906 -2.0377  1.0666  1.1523
  282MOL    H7739979   6.747   7.073   1.030 -0.4346  0.6356  0.5777
  282MOL    H7839980   6.670   7.115   0.857 -0.0970  1.6649  2.1532
  282MOL    C7939981   6.608   6.926   1.108 -0.8255  0.3236  0.1311
  282MOL    C8039982   6.480   6.995   1.142 -0.6540  0.1835 -0.6302
  282MOL    O8139983   6.387   6.997   1.034 -0.6564 -0.0121  0.9560
  282MOL    H8239984   6.591   6.825   1.072 -2.2318  0.9058 -0.8624
  282MOL    H8339985   6.666   6.917   1.200 -0.9204  1.1302  0.2707
  282MOL    H8439986   6.512   7.095   1.171 -0.7406 -0.3417  1.3763
  282MOL    H8539987   6.427   7.056   0.972  0.8809  0.4726  2.3530
  282MOL    C8639988   6.408   6.932   1.259  0.6729  0.0127 -0.0713
  282MOL    C8739989   6.487   6.904   1.386 -0.1731  0.0301  0.1478
  282MOL    O8839990   6.575   7.010   1.424 -0.3200 -0.3058  0.4250
  282MOL    H8939991   6.314   6.987   1.267  0.7075 -0.1289  1.3775
  282MOL    H9039992   6.381   6.835   1.218 -1.2165  0.2772  0.5189
  282MOL    H9139993   6.548   6.816   1.367  1.2353  1.4944 -2.3625
  282MOL    H9239994   6.643   6.976   1.479 -0.0775  1.3721  1.1821
  282MOL    C9339995   6.400   6.860   1.505 -0.2680  0.0308  0.7626
  282MOL    C9439996   6.298   6.960   1.560 -0.4604 -0.1289  0.2459
  282MOL    O9539997   6.173   6.953   1.506  0.3023 -0.8077 -1.1217
  282MOL    H9639998   6.344   6.772   1.475 -0.6605  0.9778 -1.3213
  282MOL    H9739999   6.475   6.828   1.578  1.2717 -0.2182 -0.8976
  282MOL    H9840000   6.343   7.057   1.542 -2.7409  0.6693 -1.4267
  282MOL    H9940001   6.145   6.864   1.521  0.1135 -0.5494  0.1101
  282MOL   C10040002   6.281   6.956   1.707 -0.3270 -0.7775 -0.0005
  282MOL   C10140003   6.398   7.003   1.799  0.0662  0.1449  0.5373
  282MOL   O10240004   6.444   7.134   1.770  0.0198  0.0561  0.1422
  282MOL   H10340005   6.196   7.020   1.730  0.3331  0.2728 -0.4254
  282MOL   H10440006   6.259   6.857   1.745  0.6471  0.1200  3.0808
  282MOL   H10540007   6.481   6.935   1.781 -1.5946 -1.9899  0.8611
  282MOL   H10640008   6.370   7.193   1.772  1.0061  1.3683 -0.7825
  282MOL   C10740009   6.348   6.989   1.944  0.0723  0.5854  0.2568
  282MOL   C10840010   6.461   6.947   2.041 -0.0090 -0.5717  0.3132
  282MOL   O10940011   6.539   7.058   2.070 -0.1945  0.0831 -0.0902
  282MOL   H11040012   6.292   7.077   1.975 -1.1353 -0.9122  2.4606
  282MOL   H11140013   6.291   6.896   1.949  0.8900  0.1364  1.4163
  282MOL   H11240014   6.531   6.883   1.988 -1.4952  0.0115 -2.4610
  282MOL   H11340015   6.592   7.072   1.993  1.6823 -0.0303  1.1755
  282MOL   C11440016   6.400   6.883   2.161  0.3655 -0.7318 -0.2152
  282MOL   C11540017   6.488   6.826   2.270  0.4008  0.3175 -0.5545
  282MOL   O11640018   6.579   6.925   2.315  0.3290  0.1103 -0.8545
  282MOL   H11740019   6.331   6.955   2.204 -0.4865 -0.1595 -2.4826
  282MOL   H11840020   6.344   6.800   2.118 -1.6781  0.7853 -0.5266
  282MOL   H11940021   6.549   6.746   2.230  1.6851  0.8234  0.3686
  282MOL   H12040022   6.582   6.986   2.243 -0.4891  1.9384  0.6404
  282MOL   C12140023   6.414   6.760   2.386  0.3065 -0.1043  0.0533
  282MOL   C12240024   6.494   6.675   2.485  0.1608 -0.4309  0.6113
  282MOL   O12340025   6.404   6.639   2.590 -0.6554  0.8840  0.0074
  282MOL   H12440026   6.367   6.843   2.438  1.1184 -0.4452  1.3330
  282MOL   H12540027   6.328   6.702   2.353 -0.4926  1.3454 -0.4441
  282MOL   H12640028   6.580   6.732   2.520 -0.3918  1.4288 -1.0063
  282MOL   H12740029   6.322   6.610   2.552 -0.6616  1.0181 -0.0804
  282MOL   C12840030   6.541   6.540   2.423  0.0234  0.5705  0.0743
  282MOL   C12940031   6.607   6.440   2.521 -0.7815  0.0157  0.1684
  282MOL   O13040032   6.627   6.316   2.463  0.1953 -0.0898 -0.5465
  282MOL   H13140033   6.451   6.502   2.375 -0.4565  1.7915 -0.0190
  282MOL   H13240034   6.619   6.546   2.347 -0.1032 -0.3970 -0.1300
  282MOL   H13340035   6.541   6.416   2.604 -2.8954  2.7436 -0.6256
  282MOL   H13440036   6.715   6.300   2.431  0.5620 -0.6833  0.7258
  282MOL   C13540037   6.740   6.493   2.590 -0.1029  0.0068  0.7271
  282MOL   C13640038   6.786   6.430   2.724 -0.2195  0.2950  0.2151
  282MOL   O13740039   6.910   6.481   2.768  0.8528  0.0336 -0.3354
  282MOL   H13840040   6.825   6.492   2.521 -0.5324 -2.3122  0.2015
  282MOL   H13940041   6.727   6.598   2.617 -1.0148  0.2022 -0.4482
  282MOL   H14040042   6.795   6.322   2.706 -4.5730 -0.2177  0.5176
  282MOL   H14140043   6.966   6.413   2.801 -2.0559 -1.2067  2.3272
  282MOL   H14240044   6.701   6.446   2.790 -1.0141  0.4550 -0.8236
  283MOL     C140045   0.909   0.793   0.012  0.1728  0.5373  0.0981
  283MOL     C240046   0.786   0.879   0.019  0.0681  0.0769  0.7517
  283MOL     O340047   0.794   0.951   0.141  0.2808  0.0798  0.3628
  283MOL     H440048   0.904   0.715   7.455 -4.0052  0.3074  0.4541
  283MOL     H540049   0.910   0.739   0.107  0.1145  0.2826 -0.0433
  283MOL     H640050   0.694   0.820   0.021  0.6442 -0.8248  0.4399
  283MOL     H740051   0.777   0.890   0.211  0.4628  1.5485  1.7391
  283MOL     H840052   1.002   0.846   7.516  0.2053  0.7114  0.8942
  283MOL     C940053   0.770   0.982   7.425  0.5328  0.2870  0.9454
  283MOL    C1040054   0.765   0.918   7.285  0.4767  0.2713  0.7976
  283MOL    O1140055   0.640   0.852   7.265  0.2412 -0.1136  0.6418
  283MOL    H1240056   0.695   1.059   7.438  0.8157  0.6519  0.4236
  283MOL    H1340057   0.861   1.043   7.426 -0.1984  1.3828  1.4507
  283MOL    H1440058   0.839   0.840   7.270 -0.8589 -0.8935  0.1589
  283MOL    H1540059   0.654   0.766   7.228 -1.6817  0.9746 -2.8555
  283MOL    C1640060   0.766   1.027   7.170  0.6321 -0.2792 -0.2845
  283MOL    C1740061   0.787   0.982   7.025  0.0510  0.3578 -0.3846
  283MOL    O1840062   0.778   1.093   6.939  0.0887 -0.4111  0.0064
  283MOL    H1940063   0.675   1.087   7.173 -0.5597 -2.1331  1.2829
  283MOL    H2040064   0.842   1.100   7.199 -1.7830  1.7882  1.0521
  283MOL    H2140065   0.700   0.920   7.002 -0.7210  1.7967 -1.4295
  283MOL    H2240066   0.695   1.133   6.959 -0.8671 -0.3578 -3.6274
  283MOL    C2340067   0.928   0.921   7.006 -0.5214  0.1154  0.0571
  283MOL    C2440068   0.973   0.871   6.872 -0.4833 -0.2570 -0.2358
  283MOL    O2540069   1.105   0.836   6.890  0.3515 -0.6733 -0.1037
  283MOL    H2640070   0.998   0.998   7.038  0.8272 -1.5882  1.3382
  283MOL    H2740071   0.957   0.844   7.079  0.1347 -0.3081 -0.6386
  283MOL    H2840072   0.959   0.948   6.795 -0.8579  0.5695  0.6525
  283MOL    H2940073   1.161   0.900   6.850  1.0481 -1.2026  0.0075
  283MOL    C3040074   0.900   0.738   6.843 -0.3112  0.2680 -0.2770
  283MOL    C3140075   0.954   0.654   6.720 -0.1650 -0.1199  0.0599
  283MOL    O3240076   1.080   0.604   6.752  0.8249  0.3853  0.2596
  283MOL    H3340077   0.879   0.692   6.939  1.5792 -0.1132 -0.0146
  283MOL    H3440078   0.799   0.761   6.809 -1.1091  0.2170  1.9882
  283MOL    H3540079   0.963   0.719   6.633 -0.8345  0.3361  0.3275
  283MOL    H3640080   1.115   0.661   6.819 -1.7809  0.6548  1.4610
  283MOL    C3740081   0.863   0.532   6.674  0.3548 -0.0550  0.3700
  283MOL    C3840082   0.728   0.579   6.605 -0.3339 -0.0425 -0.2828
  283MOL    O3940083   0.700   0.493   6.496  0.4543 -0.0532  0.8472
  283MOL    H4040084   0.926   0.472   6.608 -1.5620 -0.0690 -1.4826
  283MOL    H4140085   0.840   0.465   6.757  2.0629 -1.0363  0.0777
  283MOL    H4240086   0.734   0.680   6.564 -1.0229 -0.4830 -1.4791
  283MOL    H4340087   0.774   0.503   6.438  1.7161  0.9224  2.5435
  283MOL    C4440088   0.604   0.578   6.699 -0.1974  0.3549 -0.4240
  283MOL    C4540089   0.463   0.606   6.639  0.4616 -0.6917 -0.3921
  283MOL    O4640090   0.363   0.623   6.748 -0.3754  0.3390 -0.3430
  283MOL    H4740091   0.596   0.477   6.739  1.4958 -0.5347 -2.2367
  283MOL    H4840092   0.624   0.634   6.790 -0.9330 -3.8506  2.4655
  283MOL    H4940093   0.436   0.512   6.591 -1.5090  0.6671 -2.0215
  283MOL    H5040094   0.298   0.555   6.742  2.4618 -2.5120 -0.5553
  283MOL    C5140095   0.455   0.738   6.556  1.2040 -0.1098 -0.2462
  283MOL    C5240096   0.339   0.738   6.453  0.6839 -0.3744  0.2772
  283MOL    O5340097   0.328   0.868   6.396  0.0397  0.2996 -0.8795
  283MOL    H5440098   0.445   0.815   6.632 -0.6989  1.3522 -1.9025
  283MOL    H5540099   0.541   0.759   6.491  1.0754 -1.1360 -0.7527
  283MOL    H5640100   0.250   0.732   6.516  2.0347 -1.0401  2.1593
  283MOL    H5740101   0.245   0.868   6.350  0.9647 -0.8658 -2.6093
  283MOL    C5840102   0.333   0.612   6.355  0.7072  0.1971 -0.2976
  283MOL    C5940103   0.459   0.585   6.267  0.1352 -0.7876  0.4816
  283MOL    O6040104   0.461   0.445   6.228  0.4217 -0.7723 -0.3951
  283MOL    H6140105   0.305   0.522   6.410  0.0357  0.3181 -0.4470
  283MOL    H6240106   0.251   0.637   6.288 -1.6050 -1.4453  1.8763
  283MOL    H6340107   0.551   0.596   6.325  1.4159 -1.5446 -1.3562
  283MOL    H6440108   0.508   0.438   6.146  1.5032  1.4103 -0.0081
  283MOL    C6540109   0.458   0.673   6.141 -0.1603  0.6991 -0.5816
  283MOL    C6640110   0.577   0.666   6.041  0.2897  0.1139 -0.7679
  283MOL    O6740111   0.566   0.539   5.979 -0.2651 -0.2682 -0.1596
  283MOL    H6840112   0.370   0.669   6.077 -1.2671  1.8531  0.8304
  283MOL    H6940113   0.456   0.776   6.177  0.8013 -0.1867  2.1349
  283MOL    H7040114   0.678   0.680   6.081 -0.7310 -0.6803  2.2153
  283MOL    H7140115   0.532   0.551   5.892 -0.9287 -0.2299  0.1038
  283MOL    C7240116   0.557   0.768   5.924  0.0460 -0.1112  0.0355
  283MOL    C7340117   0.577   0.919   5.955  0.2965 -0.1420 -0.5081
  283MOL    O7440118   0.655   0.989   5.866  1.3110  0.2575 -0.1797
  283MOL    H7540119   0.633   0.749   5.848 -2.0956 -0.3315 -2.1246
  283MOL    H7640120   0.466   0.752   5.866 -1.1837 -1.2600  2.2168
  283MOL    H7740121   0.627   0.931   6.051  0.2905  0.5965 -0.6000
  283MOL    H7840122   0.606   1.014   5.789  1.8870  0.3631 -0.5104
  283MOL    C7940123   0.440   0.998   5.962  0.3046  0.0659  0.5914
  283MOL    C8040124   0.449   1.147   5.986  0.4158  0.2371  0.2816
  283MOL    O8140125   0.319   1.188   6.006  0.2366  0.0286  0.2410
  283MOL    H8240126   0.381   0.982   5.872 -0.2529 -1.0398  1.1452
  283MOL    H8340127   0.390   0.957   6.049 -2.4352 -0.8012 -1.3263
  283MOL    H8440128   0.472   1.179   5.885  0.4845 -1.3061 -0.2073
  283MOL    H8540129   0.263   1.130   5.957  0.7404  0.1571 -0.4875
  283MOL    C8640130   0.544   1.183   6.105  0.7437 -0.5266 -0.5252
  283MOL    C8740131   0.556   1.328   6.137  0.5950  0.2180  0.2564
  283MOL    O8840132   0.665   1.348   6.232 -0.3402 -0.6178  0.6339
  283MOL    H8940133   0.504   1.134   6.194  3.8580 -0.4456  0.9754
  283MOL    H9040134   0.639   1.134   6.087  1.2916  0.8279 -1.4075
  283MOL    H9140135   0.463   1.345   6.192  0.5730 -0.2905  0.3744
  283MOL    H9240136   0.647   1.421   6.289 -1.0003  0.0311 -0.3767
  283MOL    C9340137   0.585   1.415   6.010  0.3136 -0.2462  0.1929
  283MOL    C9440138   0.660   1.553   6.037  0.0276  0.5741 -0.4660
  283MOL    O9540139   0.698   1.615   5.914 -0.5690 -0.0006 -0.3365
  283MOL    H9640140   0.642   1.357   5.937 -0.5091 -2.2435  1.1024
  283MOL    H9740141   0.490   1.438   5.963 -1.7392  0.6457  4.5345
  283MOL    H9840142   0.750   1.525   6.092  0.5167  0.3241 -1.3781
  283MOL    H9940143   0.767   1.558   5.884 -1.2064  0.9166 -3.8599
  283MOL   C10040144   0.565   1.635   6.127 -0.2754 -0.3196 -0.3435
  283MOL   C10140145   0.612   1.673   6.266  0.5939 -0.7360  0.1679
  283MOL   O10240146   0.575   1.570   6.368 -0.1895  0.0089  0.4719
  283MOL   H10340147   0.548   1.729   6.075 -1.9019  0.9237  2.3006
  283MOL   H10440148   0.469   1.585   6.142 -0.7579  0.6274 -0.2562
  283MOL   H10540149   0.564   1.765   6.300  0.0404 -0.5653 -1.0647
  283MOL   H10640150   0.578   1.606   6.455 -0.5160  1.2944 -0.0351
  283MOL   C10740151   0.760   1.702   6.301  0.1223 -0.5905 -0.2527
  283MOL   C10840152   0.825   1.818   6.214  0.2948 -0.0924 -0.5713
  283MOL   O10940153   0.751   1.934   6.236 -0.7293  0.2506  0.0713
  283MOL   H11040154   0.768   1.736   6.405 -1.9890 -1.0359  0.0779
  283MOL   H11140155   0.820   1.612   6.291  0.1566 -0.5112 -0.7713
  283MOL   H11240156   0.818   1.784   6.111 -0.7664  0.6351 -0.7428
  283MOL   H11340157   0.742   1.933   6.330 -1.9896 -3.3590 -0.0395
  283MOL   C11440158   0.973   1.834   6.256  0.0416  0.0013 -0.1466
  283MOL   C11540159   1.053   1.945   6.183 -0.4072 -0.2865 -0.5654
  283MOL   O11640160   1.168   1.966   6.263  0.1595  0.3361 -0.4933
  283MOL   H11740161   0.970   1.855   6.363 -0.5524  1.3238 -0.4079
  283MOL   H11840162   1.020   1.737   6.245  0.4623  0.2408 -0.4920
  283MOL   H11940163   0.995   2.038   6.186  0.7916  0.4281  2.7159
  283MOL   H12040164   1.196   2.048   6.225  0.5332 -0.8840 -2.8823
  283MOL   C12140165   1.100   1.901   6.041 -0.9296  0.0490  0.1870
  283MOL   C12240166   0.999   1.937   5.927  0.2329  0.0042 -0.4098
  283MOL   O12340167   0.991   2.081   5.934 -0.3100 -0.0040 -0.4546
  283MOL   H12440168   1.196   1.941   6.009  0.4982 -1.0083  2.9616
  283MOL   H12540169   1.116   1.794   6.036 -3.3899 -0.3373 -0.1636
  283MOL   H12640170   0.901   1.894   5.943  0.2915 -0.3862 -1.0938
  283MOL   H12740171   0.915   2.111   5.981  0.3664  0.0767  0.5997
  283MOL   C12840172   1.055   1.901   5.791 -0.2769  0.1889 -0.7111
  283MOL   C12940173   0.962   1.929   5.672  0.1247  0.1102  0.4520
  283MOL   O13040174   1.029   1.888   5.556 -0.8895  0.5786 -0.1622
  283MOL   H13140175   1.152   1.945   5.768 -0.7715  1.2704 -0.7558
  283MOL   H13240176   1.092   1.799   5.787  2.0090  0.9543 -0.0912
  283MOL   H13340177   0.944   2.036   5.667 -0.0537 -0.0397 -3.8611
  283MOL   H13440178   0.984   1.934   5.487 -0.5434  2.1653  0.6441
  283MOL   C13540179   0.827   1.855   5.677  0.2043  0.4147  0.5910
  283MOL   C13640180   0.707   1.930   5.730  0.3539 -0.4718  0.0699
  283MOL   O13740181   0.595   1.847   5.745  0.2108  0.5278  0.1826
  283MOL   H13840182   0.797   1.817   5.579 -0.7550  0.3483  0.9034
  283MOL   H13940183   0.838   1.760   5.729 -0.0401 -0.1389 -0.3466
  283MOL   H14040184   0.681   2.018   5.671 -1.1677  0.0485  1.4483
  283MOL   H14140185   0.619   1.770   5.794  2.6952 -0.1802 -2.0391
  283MOL   H14240186   0.722   1.978   5.827  2.9852 -0.2236 -0.4344
  284MOL     C140187   0.213   6.940   2.912  0.2980 -0.1444  0.2350
  284MOL     C240188   0.219   6.892   3.058 -0.7228 -0.0027  0.3026
  284MOL     O340189   0.097   6.926   3.120  0.0303 -0.2714  0.2148
  284MOL     H440190   0.314   6.941   2.871  0.4170  0.5718  0.5540
  284MOL     H540191   0.173   7.040   2.902  0.5165 -0.2086 -1.5594
  284MOL     H640192   0.298   6.950   3.104 -1.9009  0.3616  1.9022
  284MOL     H740193   0.093   7.020   3.124 -0.2812 -0.2091 -1.3857
  284MOL     H840194   0.151   6.878   2.846  0.0508  1.1068 -0.7221
  284MOL     C940195   0.240   6.737   3.073 -0.3392  0.0737  0.2734
  284MOL    C1040196   0.381   6.690   3.039  0.1042 -0.3109 -0.0080
  284MOL    O1140197   0.470   6.744   3.137  0.2186 -0.4974 -0.0672
  284MOL    H1240198   0.204   6.715   3.174 -3.1585  1.1410 -0.4660
  284MOL    H1340199   0.165   6.683   3.016  1.3290 -0.8012 -1.1270
  284MOL    H1440200   0.420   6.724   2.942  1.0592 -2.0196 -0.2368
  284MOL    H1540201   0.434   6.740   3.224 -1.1389  0.5507 -0.5550
  284MOL    C1640202   0.390   6.537   3.036 -0.4725  0.1551  0.2661
  284MOL    C1740203   0.525   6.466   3.008  0.3266 -0.4300  0.5169
  284MOL    O1840204   0.501   6.337   3.052 -0.1466 -0.0718 -0.0275
  284MOL    H1940205   0.350   6.506   3.132 -1.5796 -1.7059 -0.7764
  284MOL    H2040206   0.319   6.506   2.959 -0.2788  0.6914 -0.1317
  284MOL    H2140207   0.617   6.497   3.057  1.3853  2.9139 -3.3449
  284MOL    H2240208   0.580   6.285   3.055 -1.4155 -2.0128  2.3736
  284MOL    C2340209   0.572   6.471   2.854 -0.5175  0.0881  0.1604
  284MOL    C2440210   0.516   6.359   2.760  0.3366  0.7923 -0.0365
  284MOL    O2540211   0.376   6.360   2.764 -0.9325  0.1739 -0.1571
  284MOL    H2640212   0.550   6.565   2.805  5.5936  1.9734  0.7009
  284MOL    H2740213   0.680   6.459   2.844 -0.4168  1.3801 -0.2725
  284MOL    H2840214   0.550   6.263   2.799  0.5378  1.0586  0.4436
  284MOL    H2940215   0.351   6.296   2.829  0.3742  1.1842  1.4045
  284MOL    C3040216   0.563   6.360   2.608  0.0607 -0.3495 -0.2924
  284MOL    C3140217   0.714   6.355   2.582  0.0124 -0.0304 -0.3598
  284MOL    O3240218   0.742   6.233   2.648  0.3977 -0.5451 -0.0233
  284MOL    H3340219   0.521   6.270   2.564 -1.9593  0.8950 -0.9667
  284MOL    H3440220   0.513   6.437   2.550  1.2847 -0.3736 -1.4092
  284MOL    H3540221   0.762   6.438   2.634  1.0114 -0.8598  0.0534
  284MOL    H3640222   0.669   6.176   2.628 -0.2069  0.0274  0.5231
  284MOL    C3740223   0.747   6.351   2.436  0.1332  0.3685 -0.3060
  284MOL    C3840224   0.702   6.474   2.350 -0.2941  0.1145 -0.0073
  284MOL    O3940225   0.756   6.593   2.386  0.1383  0.2155 -0.2310
  284MOL    H4040226   0.854   6.343   2.413 -0.3326  0.2497 -2.5295
  284MOL    H4140227   0.699   6.267   2.386  0.6319  0.5824 -1.1596
  284MOL    H4240228   0.596   6.494   2.356 -0.0414  1.5180 -0.2128
  284MOL    H4340229   0.848   6.599   2.364  0.4433 -1.4070  0.5135
  284MOL    C4440230   0.729   6.454   2.192  0.2117  0.5038  0.2206
  284MOL    C4540231   0.665   6.337   2.121 -0.4204 -0.2875  0.7310
  284MOL    O4640232   0.740   6.215   2.139  0.2515  0.3252  0.0730
  284MOL    H4740233   0.687   6.536   2.134 -1.1721 -0.8784 -0.7514
  284MOL    H4840234   0.837   6.463   2.177  0.1849  0.3402 -0.0754
  284MOL    H4940235   0.678   6.354   2.014  1.0093 -1.2329  0.7444
  284MOL    H5040236   0.818   6.234   2.089 -0.4733  1.7885 -0.5403
  284MOL    C5140237   0.519   6.301   2.146  0.2451 -0.1301 -0.3039
  284MOL    C5240238   0.462   6.197   2.050  0.2039  0.1335 -0.4084
  284MOL    O5340239   0.523   6.070   2.088 -0.4060 -0.4068 -0.0807
  284MOL    H5440240   0.509   6.268   2.249  2.9359  1.4266  0.5059
  284MOL    H5540241   0.465   6.395   2.136  0.5942  0.2450  1.1658
  284MOL    H5640242   0.480   6.233   1.948 -1.1005 -1.8964 -1.3861
  284MOL    H5740243   0.604   6.097   2.128 -2.1726  2.5646  1.6521
  284MOL    C5840244   0.310   6.180   2.075 -0.2745 -0.3833 -0.2304
  284MOL    C5940245   0.253   6.068   1.984  0.4101 -0.5601  0.2218
  284MOL    O6040246   0.271   5.949   2.060 -0.4239  0.1230  0.1666
  284MOL    H6140247   0.282   6.172   2.179 -1.8623 -0.0841 -0.6255
  284MOL    H6240248   0.268   6.275   2.041 -0.3865 -0.4430 -0.2607
  284MOL    H6340249   0.308   6.052   1.891  0.1444 -1.5930  0.2299
  284MOL    H6440250   0.363   5.947   2.084 -0.4441  1.6553  0.3711
  284MOL    C6540251   0.103   6.083   1.944  0.2780 -0.0185  0.3897
  284MOL    C6640252   0.062   6.002   1.815 -0.4021 -0.3473  0.4411
  284MOL    O6740253   0.059   5.863   1.855  0.0478 -0.1395  0.0213
  284MOL    H6840254   0.039   6.053   2.027 -0.5742 -0.1055 -0.2873
  284MOL    H6940255   0.088   6.189   1.921 -2.4890 -0.8381 -1.8553
  284MOL    H7040256   0.138   6.002   1.736 -0.9627 -1.1168 -0.1104
  284MOL    H7140257   0.114   5.867   1.932  0.5048  2.0331 -0.3934
  284MOL    C7240258   7.436   6.037   1.762 -0.3225 -0.1765  0.2625
  284MOL    C7340259   7.424   6.185   1.702  0.0025  0.2484 -0.2628
  284MOL    O7440260   7.483   6.174   1.576  0.6489 -0.0444  0.2767
  284MOL    H7540261   7.411   5.961   1.688  2.7430  0.0175 -1.0370
  284MOL    H7640262   7.375   6.025   1.852  1.4614 -1.9444  1.2556
  284MOL    H7740263   7.494   6.247   1.759 -2.0925  1.8648  0.6214
  284MOL    H7840264   7.489   6.258   1.533 -0.4905 -0.1645 -0.1488
  284MOL    C7940265   7.280   6.243   1.696  0.3656 -0.4554  0.1933
  284MOL    C8040266   7.238   6.297   1.830 -0.6184 -0.9071  0.0196
  284MOL    O8140267   7.308   6.415   1.860  0.1985  0.2780 -0.1162
  284MOL    H8240268   7.266   6.319   1.620  0.5968  0.0709  0.6788
  284MOL    H8340269   7.210   6.168   1.660  0.6097  0.0650 -1.4036
  284MOL    H8440270   7.266   6.229   1.911 -1.4180  0.0335  1.1015
  284MOL    H8540271   7.373   6.405   1.928 -1.6173  0.7543  1.7199
  284MOL    C8640272   7.091   6.311   1.848  0.6822 -0.1184 -0.5729
  284MOL    C8740273   7.011   6.444   1.819 -0.5428  0.4420 -0.1288
  284MOL    O8840274   6.865   6.402   1.814 -0.1308  0.3559  0.1831
  284MOL    H8940275   7.047   6.224   1.799  0.9312 -0.1237 -0.7830
  284MOL    H9040276   7.076   6.294   1.955 -2.6643  0.5929 -0.8672
  284MOL    H9140277   7.038   6.491   1.725 -0.7680 -0.0398 -0.4374
  284MOL    H9240278   6.835   6.381   1.901 -0.2345 -0.7384 -0.1077
  284MOL    C9340279   7.012   6.546   1.936 -0.2595  0.2467  0.1180
  284MOL    C9440280   6.925   6.675   1.916  0.0200  0.2568 -0.2904
  284MOL    O9540281   6.785   6.661   1.951  0.3896  0.4167  0.1162
  284MOL    H9640282   6.977   6.505   2.031 -0.6557  0.0101 -0.1269
  284MOL    H9740283   7.115   6.578   1.954  0.8669 -0.7206 -4.1552
  284MOL    H9840284   6.926   6.713   1.814  1.6117  3.7551  0.9787
  284MOL    H9940285   6.786   6.596   2.019 -2.4741  2.7757  2.5318
  284MOL   C10040286   6.983   6.787   1.999 -0.2948  0.4167 -0.6817
  284MOL   C10140287   6.924   6.932   1.997  0.1319 -0.5202 -0.1164
  284MOL   O10240288   6.988   6.987   2.104 -0.0971 -0.0578 -0.4374
  284MOL   H10340289   6.981   6.749   2.101 -1.9552  1.6906 -0.2138
  284MOL   H10440290   7.091   6.798   1.985  0.3430 -0.9227  2.5818
  284MOL   H10540291   6.818   6.932   2.025 -0.3212  1.2676 -1.7529
  284MOL   H10640292   6.975   7.081   2.104  0.3876  0.0124 -0.2929
  284MOL   C10740293   6.943   7.012   1.860 -0.3018 -0.2886 -0.2026
  284MOL   C10840294   6.815   7.013   1.772 -0.0521 -0.6190  0.3365
  284MOL   O10940295   6.711   7.074   1.843  0.2446  0.4426  0.1932
  284MOL   H11040296   6.983   7.111   1.883  1.5437 -0.9541 -0.4414
  284MOL   H11140297   7.024   6.960   1.808  0.3546 -0.9858  1.4740
  284MOL   H11240298   6.781   6.913   1.747  1.7862 -1.1008 -0.3188
  284MOL   H11340299   6.638   7.096   1.787 -0.5612 -0.6623  0.7879
  284MOL   C11440300   6.847   7.078   1.630  0.0930 -0.2085 -0.4717
  284MOL   C11540301   6.908   6.988   1.532  0.4146  0.5115 -0.1335
  284MOL   O11640302   6.825   6.873   1.522  0.3575 -0.0360  0.8541
  284MOL   H11740303   6.756   7.120   1.588  0.2510 -0.1537 -0.7598
  284MOL   H11840304   6.908   7.168   1.641 -1.2099  0.5576  0.5374
  284MOL   H11940305   7.004   6.963   1.578 -0.2977 -0.5389  0.8038
  284MOL   H12040306   6.879   6.797   1.540 -0.4430 -0.5626  1.0770
  284MOL   C12140307   6.927   7.035   1.382 -0.8536  0.4949 -0.3958
  284MOL   C12240308   7.017   7.155   1.359 -0.7358 -0.4496  0.4008
  284MOL   O12340309   7.069   7.154   1.228 -0.4026  0.9591 -0.2187
  284MOL   H12440310   6.988   6.958   1.336  0.7218  1.0677  0.6922
  284MOL   H12540311   6.826   7.035   1.340 -1.8110  0.3644  1.8181
  284MOL   H12640312   7.098   7.158   1.433  1.0731  0.6810 -1.5760
  284MOL   H12740313   7.147   7.102   1.241 -1.2194 -0.3611 -0.3886
  284MOL   C12840314   6.946   7.289   1.362  0.0102 -0.0065 -0.0598
  284MOL   C12940315   7.032   7.415   1.342  0.4067  0.4835 -0.3319
  284MOL   O13040316   6.949   0.012   1.375  0.1709  0.2707 -1.0938
  284MOL   H13140317   6.862   7.299   1.294  0.0685  2.4451  0.1521
  284MOL   H13240318   6.896   7.306   1.458  1.3029 -0.4574  0.7108
  284MOL   H13340319   7.058   7.428   1.237 -1.0763  1.1308 -0.6344
  284MOL   H13440320   6.864   0.004   1.333  0.2032 -1.6112 -0.8394
  284MOL   C13540321   7.171   7.429   1.396  0.0805  0.1864  0.4840
  284MOL   C13640322   7.288   7.382   1.311 -1.3160  0.2602  0.8104
  284MOL   O13740323   7.401   7.365   1.395 -0.0244  0.2645  0.0327
  284MOL   H13840324   7.184   0.016   1.415 -0.8638  0.4021 -0.0381
  284MOL   H13940325   7.176   7.372   1.489  0.9878 -0.4623  0.0449
  284MOL   H14040326   7.316   7.445   1.227  0.0278  0.5327  1.4505
  284MOL   H14140327   7.378   7.316   1.472 -2.3856  0.9759 -0.1953
  284MOL   H14240328   7.259   7.284   1.275  1.3411 -1.3108  2.7544
  285MOL     C140329   0.883   4.432   5.566 -0.0607 -0.4748  0.3114
  285MOL     C240330   0.864   4.529   5.443 -0.1901 -0.0189 -0.8366
  285MOL     O340331   0.773   4.632   5.469  0.5524  0.1659  0.1342
  285MOL     H440332   0.936   4.339   5.546  1.9793  0.8385 -0.4943
  285MOL     H540333   0.793   4.394   5.616  0.5090  0.2851  1.9670
  285MOL     H640334   0.808   4.464   5.376 -1.2498 -0.7778  0.7544
  285MOL     H740335   0.706   4.627   5.403 -0.9643 -2.3012  1.7871
  285MOL     H840336   0.943   4.484   5.641 -0.8069 -0.3304  0.8107
  285MOL     C940337   0.980   4.588   5.359 -0.5037 -0.2516  0.1365
  285MOL    C1040338   1.096   4.493   5.329  0.3488  0.1353 -0.1617
  285MOL    O1140339   1.036   4.410   5.231 -0.1303 -0.2446 -0.2386
  285MOL    H1240340   0.933   4.621   5.266 -0.7007  1.4297  0.8086
  285MOL    H1340341   1.021   4.677   5.408  2.9870 -0.5988 -1.9638
  285MOL    H1440342   1.125   4.448   5.424  1.2692  0.9017 -0.0721
  285MOL    H1540343   1.050   4.438   5.142  1.3659  0.0164  0.0729
  285MOL    C1640344   1.212   4.555   5.244 -0.0978 -0.6319  0.4455
  285MOL    C1740345   1.340   4.474   5.225 -0.9319 -0.2219 -0.0032
  285MOL    O1840346   1.399   4.525   5.111 -0.5779  0.0186 -0.3600
  285MOL    H1940347   1.170   4.593   5.151 -1.1835  0.9367  1.5548
  285MOL    H2040348   1.240   4.650   5.292  0.5431  0.3847 -1.8707
  285MOL    H2140349   1.315   4.369   5.208  2.1906 -1.1285  0.6976
  285MOL    H2240350   1.445   4.601   5.144  0.6162 -1.9936  2.8873
  285MOL    C2340351   1.430   4.485   5.345  0.6095 -0.5365  0.3381
  285MOL    C2440352   1.549   4.398   5.344  1.0703  0.6162  0.1919
  285MOL    O2540353   1.662   4.490   5.320  0.3451  0.4667 -0.2539
  285MOL    H2640354   1.462   4.588   5.361  0.1923 -0.1776 -1.0732
  285MOL    H2740355   1.368   4.471   5.434  4.0398 -2.8445  2.5261
  285MOL    H2840356   1.551   4.323   5.265 -2.0782  1.1770 -0.4730
  285MOL    H2940357   1.628   4.554   5.259 -0.1947 -0.2614 -0.7176
  285MOL    C3040358   1.573   4.326   5.486  0.4511  0.5312  0.2552
  285MOL    C3140359   1.687   4.219   5.480  0.2346 -0.3730  0.0177
  285MOL    O3240360   1.715   4.168   5.610  0.6895  0.8488 -0.3974
  285MOL    H3340361   1.585   4.395   5.570  0.0631 -0.6736  1.3244
  285MOL    H3440362   1.484   4.273   5.520  0.2202  0.4140 -0.5130
  285MOL    H3540363   1.777   4.275   5.458 -1.2684  2.7515  1.5409
  285MOL    H3640364   1.796   4.121   5.614  0.5053  0.6104  0.6539
  285MOL    C3740365   1.651   4.095   5.402  0.8982 -0.1210  0.0178
  285MOL    C3840366   1.766   4.051   5.302  0.0505 -0.1876  0.1946
  285MOL    O3940367   1.725   3.930   5.244  0.3922 -0.7039  0.0740
  285MOL    H4040368   1.610   4.010   5.456 -1.9971 -1.7403 -4.4860
  285MOL    H4140369   1.564   4.114   5.339  1.0911 -0.4258 -0.3428
  285MOL    H4240370   1.861   4.034   5.352 -0.3323  1.3696  1.4866
  285MOL    H4340371   1.733   3.870   5.317 -0.1537 -0.9279 -0.0508
  285MOL    C4440372   1.796   4.161   5.193  0.5605 -0.3000  0.3881
  285MOL    C4540373   1.895   4.129   5.076 -0.7071 -0.9840  0.1631
  285MOL    O4640374   1.823   4.028   5.011  0.3386  0.4914  0.1928
  285MOL    H4740375   1.699   4.181   5.146  0.2953  0.7715  1.3763
  285MOL    H4840376   1.835   4.256   5.229  0.8974 -1.0834  2.1328
  285MOL    H4940377   1.987   4.087   5.113 -0.4536 -0.1247  0.5278
  285MOL    H5040378   1.770   3.974   5.067 -0.0038 -0.3033 -0.8823
  285MOL    C5140379   1.934   4.249   4.991 -0.5216  0.0517 -0.2570
  285MOL    C5240380   2.041   4.355   5.040  0.2338 -0.3460 -0.7087
  285MOL    O5340381   2.057   4.459   4.941  0.5817  0.3753  0.2283
  285MOL    H5440382   1.972   4.204   4.900  1.6881  0.5986  0.3679
  285MOL    H5540383   1.843   4.301   4.961  0.7114  1.4699 -1.5964
  285MOL    H5640384   2.144   4.320   5.051  0.3505 -0.5328 -2.2383
  285MOL    H5740385   2.146   4.467   4.910  0.0086 -0.5927 -1.7333
  285MOL    C5840386   2.029   4.426   5.178  0.1826  0.0784  0.0206
  285MOL    C5940387   2.084   4.350   5.308  0.3609  0.1558  0.5276
  285MOL    O6040388   2.221   4.343   5.287 -0.4343  0.0029  0.3640
  285MOL    H6140389   2.086   4.519   5.175  0.8154 -0.3260 -0.5573
  285MOL    H6240390   1.923   4.452   5.182  1.0995  4.2162 -0.5034
  285MOL    H6340391   2.053   4.246   5.311 -0.4130  0.3720  0.0794
  285MOL    H6440392   2.241   4.253   5.308  0.5186 -0.1003 -0.9477
  285MOL    C6540393   2.058   4.421   5.443  0.1880  0.2152 -0.6750
  285MOL    C6640394   2.111   4.358   5.566  0.4311 -0.1436 -0.1768
  285MOL    O6740395   2.118   4.463   5.674 -0.5253  0.1392 -0.7906
  285MOL    H6840396   2.109   4.517   5.430  0.1305  0.1185 -1.6902
  285MOL    H6940397   1.954   4.452   5.454 -0.1364 -0.7175 -1.0952
  285MOL    H7040398   2.209   4.317   5.541 -0.1364 -0.5485 -1.7960
  285MOL    H7140399   2.179   4.517   5.626  1.1498 -1.7360 -0.8592
  285MOL    C7240400   2.019   4.245   5.610  0.3149 -0.2793  0.8411
  285MOL    C7340401   2.075   4.135   5.708 -0.4912 -0.5417 -0.1324
  285MOL    O7440402   1.971   4.051   5.758 -0.5687 -0.0908  0.2601
  285MOL    H7540403   1.939   4.302   5.656 -0.5178 -0.9772  0.2832
  285MOL    H7640404   1.975   4.198   5.522  2.7501  0.3242 -0.7506
  285MOL    H7740405   2.128   4.183   5.790  0.2399 -2.3429  0.4825
  285MOL    H7840406   1.936   4.107   5.825 -0.6706 -1.6869  1.5656
  285MOL    C7940407   2.164   4.044   5.618  0.7751 -0.3549  0.9758
  285MOL    C8040408   2.237   3.935   5.688  0.6836 -0.0387 -0.0408
  285MOL    O8140409   2.312   3.868   5.591 -0.1615  0.0353  0.2061
  285MOL    H8240410   2.096   4.008   5.541 -2.2550 -0.4181  3.5658
  285MOL    H8340411   2.234   4.111   5.569  0.5836  0.8127  2.2497
  285MOL    H8440412   2.165   3.866   5.733 -0.7048  1.7455  0.5219
  285MOL    H8540413   2.383   3.833   5.643  0.5931 -1.5991 -1.8310
  285MOL    C8640414   2.318   3.979   5.810  0.1839  0.4914 -0.1835
  285MOL    C8740415   2.441   4.069   5.793 -0.3183  0.1335  0.2752
  285MOL    O8840416   2.406   4.194   5.734  0.0549  0.6025 -0.0123
  285MOL    H8940417   2.252   4.016   5.888 -1.6595  2.2910 -2.5103
  285MOL    H9040418   2.351   3.887   5.858 -0.8180  0.7818  1.0604
  285MOL    H9140419   2.519   4.026   5.731 -0.7594  0.9284 -0.8412
  285MOL    H9240420   2.477   4.233   5.684  1.5093 -0.5228  1.1379
  285MOL    C9340421   2.520   4.089   5.925 -0.6474 -0.1190 -0.1178
  285MOL    C9440422   2.627   4.204   5.929  0.0855 -0.2676  0.1242
  285MOL    O9540423   2.641   4.229   6.065 -0.3405  0.9771 -0.2536
  285MOL    H9640424   2.446   4.101   6.003 -0.6769 -1.0176 -0.0141
  285MOL    H9740425   2.581   4.004   5.954 -0.5452  0.1139  0.3494
  285MOL    H9840426   2.575   4.291   5.889 -0.1370 -0.2815  0.3805
  285MOL    H9940427   2.562   4.266   6.102  2.0865  3.9028  2.3645
  285MOL   C10040428   2.767   4.187   5.860  0.0075  0.4287 -0.1758
  285MOL   C10140429   2.860   4.306   5.879  0.0355 -0.3057  0.2660
  285MOL   O10240430   2.967   4.284   5.796  0.1230 -0.5178  0.3312
  285MOL   H10340431   2.812   4.097   5.901 -3.0873 -0.9747  0.2960
  285MOL   H10440432   2.745   4.168   5.755 -0.3800 -2.0792  0.3274
  285MOL   H10540433   2.890   4.320   5.983  2.0854  0.0263 -0.3665
  285MOL   H10640434   3.038   4.247   5.846 -1.1504 -2.7965  0.5221
  285MOL   C10740435   2.800   4.440   5.833 -0.3315  0.5254 -0.4543
  285MOL   C10840436   2.894   4.564   5.845  0.4864 -0.3094 -0.7991
  285MOL   O10940437   2.831   4.672   5.774 -0.3626 -0.3800 -0.4011
  285MOL   H11040438   2.782   4.424   5.727  0.7931  0.1688 -0.5932
  285MOL   H11140439   2.704   4.463   5.880 -0.3744 -1.1146  0.2900
  285MOL   H11240440   2.990   4.544   5.799  0.1579 -1.3940 -1.0233
  285MOL   H11340441   2.816   4.640   5.687 -1.8198 -0.1830 -0.2410
  285MOL   C11440442   2.893   4.610   5.995  0.0101  0.5411  0.0584
  285MOL   C11540443   2.971   4.730   6.029 -0.0416 -0.2348 -0.0802
  285MOL   O11640444   2.925   4.802   6.141  0.0022 -0.0682  0.2746
  285MOL   H11740445   2.789   4.625   6.026 -1.2108 -1.1169 -3.0043
  285MOL   H11840446   2.946   4.532   6.050  0.6481  1.8951  1.4168
  285MOL   H11940447   2.965   4.799   5.945  1.6850 -0.6058 -0.5310
  285MOL   H12040448   2.832   4.817   6.131  0.0588 -0.0477 -0.2292
  285MOL   C12140449   3.126   4.712   6.053 -0.4065  0.6699 -0.3079
  285MOL   C12240450   3.216   4.838   6.072 -0.1120 -0.0011 -0.9163
  285MOL   O12340451   3.348   4.790   6.080  0.0577  0.1814  0.1758
  285MOL   H12440452   3.150   4.641   6.132  0.9720  1.0957 -0.3176
  285MOL   H12540453   3.151   4.659   5.962 -0.9295  0.8897 -0.5832
  285MOL   H12640454   3.182   4.904   6.152 -3.9037 -0.9641 -1.6408
  285MOL   H12740455   3.364   4.756   6.167  1.5385 -1.5658 -0.7280
  285MOL   C12840456   3.212   4.924   5.946  0.1595 -0.6372 -0.0990
  285MOL   C12940457   3.276   5.064   5.959 -0.5934  0.2035 -0.6501
  285MOL   O13040458   3.314   5.102   5.834 -0.3344 -0.2730  0.1425
  285MOL   H13140459   3.256   4.868   5.864  0.8087  1.7832 -1.4519
  285MOL   H13240460   3.108   4.942   5.918  0.3162  0.6864  0.1367
  285MOL   H13340461   3.367   5.053   6.020 -0.8564 -0.1580 -0.3183
  285MOL   H13440462   3.399   5.060   5.831  0.2724  0.7288  2.2037
  285MOL   C13540463   3.201   5.178   6.036 -0.4841 -0.3096  0.0909
  285MOL   C13640464   3.094   5.242   5.957  0.9219  0.4023  0.0033
  285MOL   O13740465   3.044   5.360   6.031 -0.5898  0.6047  0.0432
  285MOL   H13840466   3.173   5.129   6.130  2.5506 -0.4943  0.9253
  285MOL   H13940467   3.270   5.257   6.065  1.5776 -1.7358 -0.8477
  285MOL   H14040468   3.024   5.162   5.929  0.6743 -0.1516  2.1170
  285MOL   H14140469   2.968   5.401   5.993  0.4744  3.2594  0.6685
  285MOL   H14240470   3.138   5.289   5.870  0.3524  0.3677 -0.3042
  286MOL     C140471   7.280   0.193   6.405 -0.1922  0.8495  0.4377
  286MOL     C240472   7.129   0.200   6.366  0.6359 -0.0068 -0.2495
  286MOL     O340473   7.119   0.189   6.227  0.7978 -0.3131  0.0487
  286MOL     H440474   7.311   0.090   6.388  0.2901  1.0784 -0.0864
  286MOL     H540475   7.289   0.217   6.511  0.4637  1.0068  0.3466
  286MOL     H640476   7.091   0.295   6.403  1.0363  0.3539 -0.7645
  286MOL     H740477   7.033   0.226   6.210 -0.0207 -2.4672 -0.7137
  286MOL     H840478   7.350   0.251   6.345  0.0150 -0.8429 -1.0054
  286MOL     C940479   7.053   0.092   6.436  0.1198 -0.0641 -0.0434
  286MOL    C1040480   7.050   0.104   6.588 -0.7665  0.0806 -0.5541
  286MOL    O1140481   6.925   0.051   6.639  0.1530 -0.0236 -0.4949
  286MOL    H1240482   6.952   0.091   6.393 -0.3257 -0.5039  0.9826
  286MOL    H1340483   7.084   7.508   6.421  0.2396 -0.4324  2.5309
  286MOL    H1440484   7.052   0.212   6.605 -1.5578 -0.3213  2.3172
  286MOL    H1540485   6.887   0.128   6.679 -0.8149 -1.3286  1.1547
  286MOL    C1640486   7.156   0.025   6.672 -0.4192  0.3334 -0.3928
  286MOL    C1740487   7.147   0.052   6.823 -0.3796 -0.3285 -0.4904
  286MOL    O1840488   7.221   7.479   6.905  0.0730 -0.2856  0.3041
  286MOL    H1940489   7.148   7.437   6.659  1.0649 -0.0469  1.5409
  286MOL    H2040490   7.257   0.049   6.638  1.2920 -2.8175  2.1906
  286MOL    H2140491   7.043   0.031   6.851 -1.2757  0.3635 -3.1830
  286MOL    H2240492   7.181   7.394   6.898  1.5276 -0.8249 -2.1692
  286MOL    C2340493   7.180   0.193   6.867  0.8628 -0.4659 -0.1294
  286MOL    C2440494   7.124   0.247   7.002 -0.2385  0.2361 -0.2666
  286MOL    O2540495   7.188   0.363   7.039 -0.3513 -0.1252  0.2357
  286MOL    H2640496   7.289   0.190   6.867  0.9352  1.4192 -0.5908
  286MOL    H2740497   7.145   0.265   6.792  0.8121  1.3287  1.5918
  286MOL    H2840498   7.153   0.170   7.073 -0.0246 -1.3965 -2.0982
  286MOL    H2940499   7.167   0.372   7.131 -2.0307  1.5771 -0.2783
  286MOL    C3040500   6.970   0.277   7.013  0.6249 -0.2485 -0.2885
  286MOL    C3140501   6.915   0.371   7.128  0.2440 -0.7241  0.3212
  286MOL    O3240502   6.777   0.391   7.088 -0.5623 -0.4359 -0.3559
  286MOL    H3340503   6.935   0.308   6.914 -2.1164 -0.1797  0.6773
  286MOL    H3440504   6.917   0.183   7.028 -2.8616  1.8659  1.1729
  286MOL    H3540505   6.964   0.468   7.122 -1.9693  0.4514  0.5086
  286MOL    H3640506   6.736   0.307   7.077 -2.4465  0.5028 -0.7883
  286MOL    C3740507   6.920   0.322   7.278 -0.1659 -0.2365  0.4762
  286MOL    C3840508   7.052   0.279   7.334 -0.4613  0.3041 -0.4347
  286MOL    O3940509   7.146   0.387   7.322 -0.1198 -0.4653  0.5636
  286MOL    H4040510   6.881   0.402   7.340 -1.1928  0.1744 -0.6627
  286MOL    H4140511   6.853   0.237   7.291  0.1544 -0.4564  0.6702
  286MOL    H4240512   7.081   0.189   7.280 -0.6946 -0.1088  0.1251
  286MOL    H4340513   7.123   0.466   7.368  1.5179 -0.6078  1.6884
  286MOL    C4440514   7.026   0.232   7.481 -0.2552  0.1868  0.1974
  286MOL    C4540515   7.159   0.164   0.024 -0.1174 -0.3736 -0.2444
  286MOL    O4640516   7.168   0.183   0.168  0.1176 -0.1640 -0.3347
  286MOL    H4740517   6.996   0.318   0.021 -3.6900  0.9082 -2.4114
  286MOL    H4840518   6.956   0.148   7.484  3.6096 -3.2189 -0.0892
  286MOL    H4940519   7.253   0.209   7.514  0.0453 -1.2176 -1.0408
  286MOL    H5040520   7.200   0.271   0.175 -2.0869  0.5540  1.3409
  286MOL    C5140521   7.158   0.011   7.508  0.9365 -0.2598  0.5011
  286MOL    C5240522   7.296   7.482   7.438 -0.6516 -0.2573  0.1543
  286MOL    O5340523   7.265   7.346   7.435 -0.2047  0.3271 -0.3808
  286MOL    H5440524   7.140   7.476   0.081 -1.3294  1.1179  0.8931
  286MOL    H5540525   7.073   7.518   7.441  0.4066  0.6441  1.0039
  286MOL    H5640526   7.386   7.512   7.492 -1.2980 -0.3793  1.3203
  286MOL    H5740527   7.202   7.322   7.370 -1.7189 -0.4675  1.3319
  286MOL    C5840528   7.318   0.001   7.284  0.4961  0.0415  0.1060
  286MOL    C5940529   7.462   7.504   7.236 -0.0401  0.5865 -0.4576
  286MOL    O6040530   7.450   0.017   7.103 -0.4018  0.0653  0.0918
  286MOL    H6140531   7.250   7.462   7.223 -1.4265  1.9344  0.3963
  286MOL    H6240532   7.295   0.104   7.256 -0.8898 -0.9171 -2.3818
  286MOL    H6340533   7.506   7.406   7.256 -1.2389  0.4934  1.8853
  286MOL    H6440534   7.415   7.461   7.057 -0.0861  0.0566 -0.1350
  286MOL    C6540535   0.032   0.097   7.293  0.2528  0.8559 -0.1407
  286MOL    C6640536   7.511   0.247   7.263  0.0593 -0.4238 -0.0876
  286MOL    O6740537   7.456   0.303   7.384 -0.2717 -0.1825  0.2168
  286MOL    H6840538   0.053   0.083   7.398 -3.3774  2.4681  0.8901
  286MOL    H6940539   0.136   0.082   7.264  0.1133  0.8203 -0.6431
  286MOL    H7040540   7.436   0.267   7.187  2.9221 -0.2026 -2.9136
  286MOL    H7140541   7.384   0.360   7.362  0.0069 -0.4949 -1.6360
  286MOL    C7240542   0.109   0.339   7.224 -0.1675 -0.2957  0.4005
  286MOL    C7340543   0.182   0.317   7.091 -0.7613 -0.0578 -0.7303
  286MOL    O7440544   0.090   0.334   6.984 -0.6513  0.4552 -0.3313
  286MOL    H7540545   0.069   0.440   7.229  3.0832  1.1050 -0.4334
  286MOL    H7640546   0.175   0.343   7.311 -0.7841  1.4500  0.8149
  286MOL    H7740547   0.231   0.220   7.088  1.0967  0.8305  0.1196
  286MOL    H7840548   0.016   0.277   6.997 -0.7676  0.2374 -1.8857
  286MOL    C7940549   0.305   0.404   7.061  0.4282 -0.6834 -0.8049
  286MOL    C8040550   0.426   0.384   7.150  0.2885 -0.5147  0.2084
  286MOL    O8140551   0.489   0.269   7.118  0.0170 -0.4479  0.0073
  286MOL    H8240552   0.317   0.393   6.953  1.2528 -0.2257 -0.7586
  286MOL    H8340553   0.274   0.509   7.065 -0.0060 -0.8545  0.3810
  286MOL    H8440554   0.385   0.381   7.250 -0.1468  2.3028  0.1629
  286MOL    H8540555   0.510   0.262   7.027  0.1011 -1.9838  0.1369
  286MOL    C8640556   0.529   0.503   7.138 -0.3998  0.9853 -0.0382
  286MOL    C8740557   0.652   0.498   7.227  0.5528  0.0685 -0.1442
  286MOL    O8840558   0.741   0.596   7.176 -0.5757  0.6122 -0.5055
  286MOL    H8940559   0.575   0.492   7.040  0.5149  0.0817  0.4775
  286MOL    H9040560   0.487   0.603   7.138 -1.4873  0.5369  0.1217
  286MOL    H9140561   0.701   0.402   7.210  0.5286  0.3700 -1.9946
  286MOL    H9240562   0.832   0.577   7.193 -1.1860 -1.4332  0.7085
  286MOL    C9340563   0.619   0.514   7.370  0.1423 -0.2425 -0.4653
  286MOL    C9440564   0.583   0.377   7.444 -0.2877  0.2950  0.7793
  286MOL    O9540565   0.704   0.331   7.499 -0.6944  0.7647  0.0010
  286MOL    H9640566   0.693   0.574   7.422 -1.3142  0.5189  0.7637
  286MOL    H9740567   0.533   0.580   7.386 -0.3120 -0.5047 -1.7774
  286MOL    H9840568   0.550   0.297   7.377 -2.5630  1.0736  0.9073
  286MOL    H9940569   0.680   0.313   0.069  1.3800 -2.0361  0.0554
  286MOL   C10040570   0.480   0.413   0.030  0.5266  0.4737 -0.2458
  286MOL   C10140571   0.440   0.310   0.132  0.9465  0.1691 -0.2545
  286MOL   O10240572   0.547   0.291   0.223  0.0792 -0.0016  0.4781
  286MOL   H10340573   0.504   0.505   0.083 -1.1293  0.7933 -0.0244
  286MOL   H10440574   0.393   0.432   7.487 -0.7972 -3.7083  0.1570
  286MOL   H10540575   0.439   0.216   0.077  2.0213  0.4765 -0.7892
  286MOL   H10640576   0.523   0.222   0.283  0.4733 -1.5839 -1.1142
  286MOL   C10740577   0.307   0.326   0.212 -0.3421 -0.1631 -0.2774
  286MOL   C10840578   0.180   0.346   0.125 -0.3271  0.3776 -0.0737
  286MOL   O10940579   0.165   0.240   0.034  0.2041 -0.2350  0.0667
  286MOL   H11040580   0.298   0.244   0.284  0.3608  0.6616  0.7500
  286MOL   H11140581   0.316   0.420   0.266 -0.9384  0.3138 -1.0003
  286MOL   H11240582   0.181   0.440   0.070  0.7707  1.1345  1.2282
  286MOL   H11340583   0.088   0.252   7.501  0.6436 -1.2756 -0.8481
  286MOL   C11440584   0.050   0.335   0.204  0.0663 -0.3545  0.5656
  286MOL   C11540585   0.024   0.450   0.297  0.6877 -0.0913 -0.1372
  286MOL   O11640586   7.487   0.558   0.226  0.6599  0.1975 -0.1236
  286MOL   H11740587   7.477   0.325   0.146  0.1705  1.1427  0.1452
  286MOL   H11840588   0.043   0.249   0.271  0.4944 -1.9765 -1.4254
  286MOL   H11940589   0.119   0.483   0.339  1.3555 -0.8414 -1.0400
  286MOL   H12040590   0.039   0.584   0.170  0.3700 -0.4661 -0.7978
  286MOL   C12140591   7.443   0.418   0.403  0.0831  0.0443 -0.1477
  286MOL   C12240592   7.508   0.358   0.527 -0.3673  0.4931  0.5107
  286MOL   O12340593   0.077   0.449   0.595 -0.1697  0.5561 -0.0703
  286MOL   H12440594   7.391   0.505   0.445 -0.2487  0.5622 -1.6107
  286MOL   H12540595   7.365   0.351   0.367  1.2222 -0.5295 -1.5499
  286MOL   H12640596   0.048   0.270   0.502 -1.2631  0.0489 -0.0758
  286MOL   H12740597   0.042   0.533   0.568 -0.7937  0.1898 -0.4284
  286MOL   C12840598   7.399   0.315   0.626  0.6610  0.0034  0.0507
  286MOL   C12940599   7.316   0.188   0.584 -0.1484 -0.2916  0.5657
  286MOL   O13040600   7.386   0.082   0.642 -0.0936  0.2722  0.1593
  286MOL   H13140601   7.451   0.293   0.719  2.3229 -1.3198 -1.1594
  286MOL   H13240602   7.330   0.399   0.628 -0.7732 -1.1596  0.2937
  286MOL   H13340603   7.333   0.172   0.478 -0.9422 -0.7630  0.5104
  286MOL   H13440604   7.450   0.054   0.579 -1.0023  1.9532 -1.5709
  286MOL   C13540605   7.167   0.181   0.617 -0.8553 -0.3788  0.7767
  286MOL   C13640606   7.064   0.270   0.550 -0.6603  0.0354 -0.0082
  286MOL   O13740607   6.928   0.244   0.571 -0.7138 -0.2165  0.3267
  286MOL   H13840608   7.146   0.074   0.615  3.9232 -1.4203  0.0145
  286MOL   H13940609   7.156   0.211   0.721 -1.3798  1.3274  0.2358
  286MOL   H14040610   7.069   0.265   0.442 -0.2668 -2.2469  0.0946
  286MOL   H14140611   6.902   0.178   0.509  2.4768 -0.2771 -1.0375
  286MOL   H14240612   7.083   0.374   0.577  0.7920  0.2159 -1.6100
  287MOL     C140613   2.208   4.339   1.869  0.4606 -0.3398  0.0989
  287MOL     C240614   2.114   4.310   1.991  0.7169  0.4283 -0.4872
  287MOL     O340615   2.054   4.434   2.030  0.3494 -0.2460 -0.3492
  287MOL     H440616   2.274   4.259   1.832 -0.2026  0.4824 -2.9683
  287MOL     H540617   2.265   4.432   1.875  0.4035 -0.2294 -1.1000
  287MOL     H640618   2.179   4.277   2.073  0.7274  1.4041 -0.0985
  287MOL     H740619   2.126   4.495   2.026  0.5110 -0.3100  1.2415
  287MOL     H840620   2.152   4.348   1.777 -0.1165 -0.6472  0.4154
  287MOL     C940621   2.000   4.206   1.977  0.0250 -0.2184  0.2371
  287MOL    C1040622   2.045   4.058   1.997 -0.0959 -0.1665 -0.0571
  287MOL    O1140623   1.935   3.977   1.956  0.3369  0.0442  0.0900
  287MOL    H1240624   1.924   4.228   2.052 -0.0911  0.3108 -0.0359
  287MOL    H1340625   1.947   4.216   1.883 -1.1950  0.0447  0.9393
  287MOL    H1440626   2.065   4.029   2.101  0.2646 -1.0980 -0.3769
  287MOL    H1540627   1.922   3.995   1.864 -0.1418  1.1241  0.3577
  287MOL    C1640628   2.155   4.021   1.900 -0.1433  0.9147 -0.0622
  287MOL    C1740629   2.299   4.022   1.962  0.1412  0.1192  0.0867
  287MOL    O1840630   2.317   3.910   2.043 -0.1503  0.3091 -0.4304
  287MOL    H1940631   2.140   3.920   1.863 -1.3533  1.3665 -0.8266
  287MOL    H2040632   2.153   4.084   1.811 -1.6334 -0.4378 -1.0010
  287MOL    H2140633   2.319   4.108   2.026  2.3152  0.0412 -0.4405
  287MOL    H2240634   2.276   3.837   2.000 -1.1790  0.8702 -0.4207
  287MOL    C2340635   2.406   4.004   1.851  0.2293 -0.6923  0.1008
  287MOL    C2440636   2.551   4.034   1.871  0.8963  0.1478 -0.2627
  287MOL    O2540637   2.549   4.166   1.922 -0.0177 -0.1347 -0.9386
  287MOL    H2640638   2.396   3.906   1.803 -0.3097 -1.2806  1.3967
  287MOL    H2740639   2.384   4.075   1.771 -1.8036  0.0997  1.3187
  287MOL    H2840640   2.591   4.026   1.770 -0.9270 -0.3365 -0.9835
  287MOL    H2940641   2.641   4.190   1.921  0.0331 -0.2513 -0.1211
  287MOL    C3040642   2.635   3.942   1.961  0.2271  0.0089  0.0081
  287MOL    C3140643   2.787   3.973   1.971 -0.1123  0.3057 -0.8827
  287MOL    O3240644   2.837   3.868   2.060 -0.0343  0.3090 -0.2695
  287MOL    H3340645   2.581   3.953   2.055  0.2154 -3.0062  0.4139
  287MOL    H3440646   2.612   3.837   1.940 -1.9734  0.8428 -1.8622
  287MOL    H3540647   2.800   4.064   2.030 -1.9688 -0.4708  0.8017
  287MOL    H3640648   2.781   3.856   2.135 -1.2469 -0.0679 -1.2264
  287MOL    C3740649   2.862   3.995   1.846  0.5937 -0.4116 -0.3415
  287MOL    C3840650   2.855   3.860   1.764  0.0824  1.0385 -0.3173
  287MOL    O3940651   2.792   3.882   1.635  0.0721 -0.2268  0.5575
  287MOL    H4040652   2.827   4.079   1.785 -1.4567 -1.8530 -1.2238
  287MOL    H4140653   2.967   4.017   1.867  0.8066  0.1082 -1.8533
  287MOL    H4240654   2.802   3.781   1.817 -0.5675  2.2285  0.8322
  287MOL    H4340655   2.806   3.804   1.582 -1.0416  0.5714 -0.9294
  287MOL    C4440656   2.999   3.809   1.730 -0.2419 -0.5100 -0.2092
  287MOL    C4540657   3.070   3.722   1.831 -0.1230  0.1061 -0.3668
  287MOL    O4640658   3.008   3.604   1.838  0.2731  0.5911 -0.4216
  287MOL    H4740659   2.997   3.758   1.633 -0.4645 -2.2958  0.7125
  287MOL    H4840660   3.061   3.892   1.698  1.8762 -2.5468 -1.6415
  287MOL    H4940661   3.053   3.765   1.930  0.3582 -3.3832  1.3204
  287MOL    H5040662   2.968   3.580   1.920  0.4251  0.2086 -0.4583
  287MOL    C5140663   3.220   3.713   1.807 -0.0018  0.0271 -0.5207
  287MOL    C5240664   3.303   3.842   1.832 -0.1718  0.0517 -0.1520
  287MOL    O5340665   3.364   3.820   1.956  0.1341  0.3356  0.3057
  287MOL    H5440666   3.266   3.630   1.861 -0.2064  0.1516 -0.1583
  287MOL    H5540667   3.245   3.697   1.702  2.4803 -0.4644  0.0973
  287MOL    H5640668   3.233   3.923   1.852  0.1519 -0.1394  1.8031
  287MOL    H5740669   3.358   3.899   2.008  1.1689  0.9891 -0.5447
  287MOL    C5840670   3.396   3.889   1.719 -0.5093  0.0825 -0.2093
  287MOL    C5940671   3.450   4.031   1.728 -0.2103 -1.2447  0.0713
  287MOL    O6040672   3.576   4.046   1.667 -0.1318  0.0438  0.4415
  287MOL    H6140673   3.481   3.822   1.709 -0.8095 -0.0933 -1.6386
  287MOL    H6240674   3.350   3.869   1.622  2.3294 -0.2152 -1.5632
  287MOL    H6340675   3.468   4.058   1.832 -0.3240 -2.0160  0.2979
  287MOL    H6440676   3.580   4.006   1.582  0.8780 -0.6281  0.7934
  287MOL    C6540677   3.356   4.141   1.666 -0.2757  0.9921 -0.3824
  287MOL    C6640678   3.333   4.135   1.517  1.0849 -0.1077  0.0291
  287MOL    O6740679   3.209   4.203   1.493 -0.0012  0.1075 -0.0157
  287MOL    H6840680   3.259   4.127   1.715  0.7268 -1.7751  0.9046
  287MOL    H6940681   3.401   4.236   1.693  1.1683  0.3498 -0.5053
  287MOL    H7040682   3.319   4.034   1.480 -1.1195  0.0156  0.4404
  287MOL    H7140683   3.138   4.142   1.506  0.1763  0.2716  1.8423
  287MOL    C7240684   3.437   4.219   1.445 -0.1403  0.4152  0.1606
  287MOL    C7340685   3.420   4.212   1.295  0.0429  0.3138 -0.2580
  287MOL    O7440686   3.527   4.279   1.235  0.2356 -0.0585 -0.0229
  287MOL    H7540687   3.411   4.318   1.483 -1.6982  0.8795 -2.0240
  287MOL    H7640688   3.537   4.197   1.483 -0.5724 -1.7331  0.0952
  287MOL    H7740689   3.334   4.273   1.269 -0.1251  0.1184 -0.1612
  287MOL    H7840690   3.541   4.363   1.277 -1.0631 -0.5022  1.3187
  287MOL    C7940691   3.431   4.073   1.240 -0.2861 -0.3052  0.4149
  287MOL    C8040692   3.434   4.049   1.084  0.3712  0.0530 -0.1821
  287MOL    O8140693   3.470   3.914   1.069  0.7546  0.3732 -0.0446
  287MOL    H8240694   3.519   4.025   1.285 -1.2433 -0.0635  2.6012
  287MOL    H8340695   3.344   4.014   1.268 -0.0890 -0.6673  0.2754
  287MOL    H8440696   3.510   4.109   1.034  1.8670 -0.3482  1.5836
  287MOL    H8540697   3.563   3.905   1.086  1.0368 -0.5089 -1.9457
  287MOL    C8640698   3.303   4.082   1.011 -0.1327 -0.6505  0.3587
  287MOL    C8740699   3.320   4.117   0.861 -1.0697  0.1060 -0.0869
  287MOL    O8840700   3.354   3.996   0.805  0.4522  0.1914 -0.1869
  287MOL    H8940701   3.231   4.001   1.023 -1.0592 -0.0090 -0.8178
  287MOL    H9040702   3.262   4.173   1.057  0.1767 -0.8681  1.0750
  287MOL    H9140703   3.404   4.182   0.835 -1.1543  0.5414  0.6933
  287MOL    H9240704   3.416   3.953   0.861  1.7099  0.2504 -1.4945
  287MOL    C9340705   3.199   4.176   0.795 -0.4711  0.0781  0.2937
  287MOL    C9440706   3.221   4.205   0.644  0.3820 -0.5984 -0.0824
  287MOL    O9540707   3.128   4.305   0.601 -0.0545  0.1291 -0.4674
  287MOL    H9640708   3.128   4.093   0.800  1.1873 -1.4030 -0.2262
  287MOL    H9740709   3.154   4.261   0.846 -0.8405  0.0211  0.0613
  287MOL    H9840710   3.188   4.125   0.577  0.8510 -0.9514  0.1044
  287MOL    H9940711   3.052   4.282   0.652  0.1319 -1.4127 -0.8465
  287MOL   C10040712   3.360   4.245   0.605 -0.0414 -0.3156  0.3064
  287MOL   C10140713   3.377   4.281   0.458 -0.3175  0.1169  0.0397
  287MOL   O10240714   3.499   4.353   0.433 -0.4636 -0.3825 -0.0603
  287MOL   H10340715   3.384   4.331   0.669 -1.2948  0.0715  0.2762
  287MOL   H10440716   3.431   4.163   0.610  0.7765  0.2715 -1.3372
  287MOL   H10540717   3.309   4.361   0.427 -1.0275 -1.7863 -3.6065
  287MOL   H10640718   3.564   4.288   0.456 -1.7259 -0.9668  2.0349
  287MOL   C10740719   3.362   4.155   0.370 -0.0799 -0.0915 -0.5901
  287MOL   C10840720   3.268   4.178   0.247 -0.0406  0.2175 -0.3149
  287MOL   O10940721   3.304   4.088   0.147  0.3018 -0.0108 -0.2681
  287MOL   H11040722   3.460   4.117   0.343  0.9016  2.2736 -0.4556
  287MOL   H11140723   3.324   4.069   0.426  0.8341 -0.7964 -1.0386
  287MOL   H11240724   3.289   4.279   0.210  0.8675 -0.1445 -0.8181
  287MOL   H11340725   3.268   4.004   0.170  0.9687  0.1068  1.2190
  287MOL   C11440726   3.122   4.173   0.286 -0.8862  0.2231  0.9991
  287MOL   C11540727   3.042   4.257   0.184 -0.1812 -0.4741 -0.5143
  287MOL   O11640728   2.909   4.213   0.162 -0.3823 -0.1985 -0.1459
  287MOL   H11740729   3.099   4.067   0.291 -0.0173 -0.1634 -2.4376
  287MOL   H11840730   3.098   4.213   0.385  0.8253  0.2497  1.4180
  287MOL   H11940731   3.093   4.246   0.088 -2.4641 -1.6569 -1.6319
  287MOL   H12040732   2.860   4.218   0.243  0.6263 -2.0114  0.6039
  287MOL   C12140733   3.049   4.410   0.205  0.0480  0.0360 -0.5997
  287MOL   C12240734   3.048   4.497   0.080 -0.4650  0.7306 -0.2379
  287MOL   O12340735   2.910   4.507   0.030 -0.0504 -0.4138  0.2306
  287MOL   H12440736   2.977   4.441   0.281  0.1604 -1.6717  0.2215
  287MOL   H12540737   3.147   4.421   0.250 -0.1750 -0.9659  0.1379
  287MOL   H12640738   3.103   4.455   7.515  0.9944 -0.5057  1.2962
  287MOL   H12740739   2.896   4.424   7.507  0.6716 -1.0003  1.1389
  287MOL   C12840740   3.094   4.636   0.114  0.6879 -0.2942  0.1583
  287MOL   C12940741   3.113   4.734   7.519 -0.5957 -0.1629  0.1744
  287MOL   O13040742   2.980   4.766   7.485 -0.1088 -0.0336 -0.0501
  287MOL   H13140743   3.024   4.672   0.189 -1.1909  0.8120 -2.0816
  287MOL   H13240744   3.183   4.609   0.172  0.1234 -0.6013  0.8962
  287MOL   H13340745   3.159   4.676   7.439 -2.0006 -3.5549  1.7569
  287MOL   H13440746   2.944   4.680   7.476  1.7069 -0.8535  0.3257
  287MOL   C13540747   3.187   4.867   0.026  0.7013 -0.4275  0.4111
  287MOL   C13640748   3.333   4.841   0.079 -0.0976 -0.4458  0.0458
  287MOL   O13740749   3.385   4.955   0.140  0.0639 -0.6752  0.0362
  287MOL   H13840750   3.184   4.929   7.456 -1.3125 -0.2182  0.6169
  287MOL   H13940751   3.132   4.930   0.096 -2.2974 -1.6694 -0.7840
  287MOL   H14040752   3.396   4.813   7.514  0.9428  0.4018  0.5350
  287MOL   H14140753   3.479   4.947   0.140  0.2182  1.1070 -0.2894
  287MOL   H14240754   3.333   4.766   0.159  1.4495  0.8159  1.2607
  288MOL     C140755   4.997   2.882   3.330 -0.5370  0.4680  0.2390
  288MOL     C240756   4.977   2.732   3.367  0.0359  0.1492  0.0441
  288MOL     O340757   5.041   2.701   3.485  0.4162 -0.5952 -0.4407
  288MOL     H440758   5.103   2.905   3.321 -0.5810 -0.0006 -1.7312
  288MOL     H540759   4.935   2.943   3.395  0.4452  0.6613  1.0089
  288MOL     H640760   5.030   2.679   3.288 -3.4609 -4.5659  0.6426
  288MOL     H740761   5.009   2.749   3.560  1.3346  2.6164 -2.0042
  288MOL     H840762   4.945   2.890   3.234 -1.2765  0.4022  0.6313
  288MOL     C940763   4.829   2.702   3.366  0.2187 -0.7730 -0.0145
  288MOL    C1040764   4.799   2.559   3.400  0.3388 -0.4416  0.2088
  288MOL    O1140765   4.657   2.546   3.395 -0.0343 -0.0651  0.4555
  288MOL    H1240766   4.777   2.768   3.435  1.4940 -0.5075  0.7212
  288MOL    H1340767   4.795   2.736   3.268  3.5643 -0.2915 -1.0688
  288MOL    H1440768   4.834   2.539   3.501  3.6674 -3.6034 -1.4590
  288MOL    H1540769   4.626   2.564   3.482  0.5095  3.4051 -0.0234
  288MOL    C1640770   4.855   2.445   3.306 -0.4687 -0.2770  0.6724
  288MOL    C1740771   4.851   2.307   3.383  0.1475 -0.1174  0.7414
  288MOL    O1840772   4.814   2.198   3.299 -0.7359  0.4288  0.4631
  288MOL    H1940773   4.807   2.434   3.209 -2.6253  1.2873  1.4939
  288MOL    H2040774   4.962   2.461   3.298 -0.6848  0.4803 -0.8679
  288MOL    H2140775   4.775   2.318   3.460 -0.6772  0.6246 -0.1646
  288MOL    H2240776   4.791   2.128   3.358  0.1376 -0.2696 -0.0154
  288MOL    C2340777   4.989   2.252   3.440 -0.1779 -0.7683  0.8593
  288MOL    C2440778   5.041   2.324   3.559  0.2770 -0.4267 -0.2082
  288MOL    O2540779   4.944   2.325   3.662 -0.4400  0.4771  0.1904
  288MOL    H2640780   4.986   2.146   3.466  0.8091 -1.1036 -0.3136
  288MOL    H2740781   5.057   2.262   3.356  0.1767  1.2924  1.3752
  288MOL    H2840782   5.052   2.425   3.520  1.6526 -0.4376  0.1480
  288MOL    H2940783   4.942   2.244   3.710  2.9484  0.6295  0.6814
  288MOL    C3040784   5.177   2.254   3.604 -0.0629  0.0720 -0.1512
  288MOL    C3140785   5.263   2.347   3.701  0.8472 -0.4324 -0.0455
  288MOL    O3240786   5.370   2.270   3.750 -0.5921 -0.0829  0.3838
  288MOL    H3340787   5.155   2.157   3.648  2.8329 -0.9702 -0.9056
  288MOL    H3440788   5.241   2.227   3.520 -0.5160 -0.0645 -0.4547
  288MOL    H3540789   5.196   2.378   3.781  0.1286 -0.3812 -0.6664
  288MOL    H3640790   5.438   2.329   3.780  0.6201 -0.0154 -2.3209
  288MOL    C3740791   5.305   2.485   3.638 -0.5635 -0.3380 -0.0907
  288MOL    C3840792   5.349   2.493   3.489 -1.0224 -0.1806 -0.9183
  288MOL    O3940793   5.319   2.625   3.451  0.1624  0.0693  0.1718
  288MOL    H4040794   5.222   2.554   3.654  0.1111  0.9848 -2.1599
  288MOL    H4140795   5.387   2.529   3.695 -1.1168 -1.6239  1.7403
  288MOL    H4240796   5.290   2.433   3.420 -2.3657 -2.2967  1.9770
  288MOL    H4340797   5.226   2.633   3.460 -0.0985 -2.4020 -0.0361
  288MOL    C4440798   5.503   2.456   3.465 -0.9175 -0.3742  0.0292
  288MOL    C4540799   5.533   2.426   3.321 -0.0272  0.2937 -0.4653
  288MOL    O4640800   5.669   2.456   3.305 -0.8077 -0.1322  0.3079
  288MOL    H4740801   5.550   2.551   3.491 -2.5094 -0.1348  2.1204
  288MOL    H4840802   5.545   2.381   3.531 -0.6211  0.0920  0.3802
  288MOL    H4940803   5.469   2.481   3.253  0.6554  0.0458 -1.3220
  288MOL    H5040804   5.673   2.541   3.263 -1.8695  0.5305  1.5080
  288MOL    C5140805   5.516   2.276   3.289  0.9092 -0.1372 -0.3818
  288MOL    C5240806   5.487   2.231   3.143 -0.1638  0.0332  0.2985
  288MOL    O5340807   5.575   2.305   3.055  0.6894 -0.1804  0.1436
  288MOL    H5440808   5.598   2.214   3.327  0.1779 -0.8828 -0.0216
  288MOL    H5540809   5.433   2.238   3.349  2.7666 -0.3618  2.1529
  288MOL    H5640810   5.382   2.247   3.116  0.1043  1.0109 -0.1886
  288MOL    H5740811   5.597   2.391   3.089  0.3455  1.0393 -2.6020
  288MOL    C5840812   5.504   2.074   3.107  0.2448  0.2388  0.1318
  288MOL    C5940813   5.384   1.990   3.157 -0.2754  0.7754  0.8004
  288MOL    O6040814   5.395   1.867   3.083 -0.1584 -0.1824  0.0345
  288MOL    H6140815   5.499   2.065   2.998 -0.2098  0.4685  0.1329
  288MOL    H6240816   5.592   2.029   3.154  0.3474 -0.3853 -0.6547
  288MOL    H6340817   5.297   2.045   3.121 -0.4605 -0.1704 -0.2103
  288MOL    H6440818   5.319   1.816   3.107 -0.4384  0.2013 -0.0391
  288MOL    C6540819   5.361   1.973   3.307 -0.3212 -0.2960  0.9765
  288MOL    C6640820   5.258   1.872   3.362  0.7858 -0.5697 -0.1874
  288MOL    O6740821   5.243   1.900   3.499 -0.4346 -0.8679 -0.5439
  288MOL    H6840822   5.451   1.943   3.360  1.6444  3.0239 -0.2934
  288MOL    H6940823   5.329   2.069   3.346  0.3237  0.1014  0.5488
  288MOL    H7040824   5.290   1.770   3.341 -0.9588 -1.0696 -0.4619
  288MOL    H7140825   5.319   1.872   3.549 -0.2606  0.8414  0.1887
  288MOL    C7240826   5.118   1.899   3.305 -0.5960  0.0311  0.2415
  288MOL    C7340827   5.020   1.791   3.331  0.1543  0.4805 -0.5827
  288MOL    O7440828   4.984   1.815   3.472  0.5652 -0.0565  0.3788
  288MOL    H7540829   5.081   2.001   3.318  1.5044  0.4527  3.4008
  288MOL    H7640830   5.128   1.898   3.196  0.0183 -0.3066  0.3039
  288MOL    H7740831   5.067   1.693   3.318  1.4291  1.1799 -1.3930
  288MOL    H7840832   5.073   1.842   3.489  0.9429 -0.0307 -1.4859
  288MOL    C7940833   4.904   1.805   3.239 -0.4873 -0.3202 -0.1100
  288MOL    C8040834   4.809   1.680   3.232  0.4708 -0.3674 -0.2918
  288MOL    O8140835   4.729   1.667   3.350 -0.3907 -0.1923  0.6828
  288MOL    H8240836   4.849   1.897   3.260 -0.2031 -0.5170  1.5594
  288MOL    H8340837   4.937   1.812   3.136 -1.5104  0.6918 -0.3878
  288MOL    H8440838   4.868   1.589   3.234 -0.5854 -1.0865 -1.0771
  288MOL    H8540839   4.786   1.625   3.413  2.0284  0.7001 -0.8222
  288MOL    C8640840   4.713   1.682   3.113  0.1937  0.4050  0.1521
  288MOL    C8740841   4.654   1.542   3.088 -0.1509 -0.6812  0.1518
  288MOL    O8840842   4.571   1.514   3.196 -0.4053  0.0395  0.0762
  288MOL    H8940843   4.638   1.760   3.118  0.7871  1.1975 -2.5171
  288MOL    H9040844   4.762   1.724   3.025 -1.7105  2.7788  0.1770
  288MOL    H9140845   4.726   1.463   3.071 -0.7620 -0.8437 -1.8213
  288MOL    H9240846   4.588   1.571   3.270  0.6526  0.9607 -0.8546
  288MOL    C9340847   4.550   1.539   2.979  0.6370  0.2704  0.0877
  288MOL    C9440848   4.616   1.546   2.846  0.6355  0.4844  0.6568
  288MOL    O9540849   4.705   1.434   2.824 -0.0728  0.9360 -0.9151
  288MOL    H9640850   4.487   1.450   2.975 -0.0397  0.7176  0.6347
  288MOL    H9740851   4.473   1.616   2.986  1.3417  1.0631 -0.8812
  288MOL    H9840852   4.680   1.634   2.839  0.2000  0.8457  1.1935
  288MOL    H9940853   4.724   1.428   2.732  1.4454  1.2179 -0.6337
  288MOL   C10040854   4.520   1.553   2.728 -0.6972  0.6576 -0.0060
  288MOL   C10140855   4.594   1.564   2.587  0.5236 -0.0395  0.1744
  288MOL   O10240856   4.646   1.436   2.553  0.1100  0.3711 -0.2366
  288MOL   H10340857   4.449   1.470   2.730 -1.4891  1.0560 -5.0575
  288MOL   H10440858   4.461   1.643   2.747  0.7335  1.4313  0.9171
  288MOL   H10540859   4.672   1.639   2.590 -0.2750  0.9399 -2.6316
  288MOL   H10640860   4.572   1.384   2.525 -0.8522  1.2154  0.6622
  288MOL   C10740861   4.497   1.607   2.475 -0.5073  0.2643 -0.4524
  288MOL   C10840862   4.568   1.633   2.337  0.2888 -0.3607 -0.9344
  288MOL   O10940863   4.466   1.657   2.251 -0.3761 -0.4031  0.4672
  288MOL   H11040864   4.413   1.538   2.462  0.4241 -0.5068 -2.6448
  288MOL   H11140865   4.448   1.700   2.503 -2.9510 -1.6078  1.6642
  288MOL   H11240866   4.627   1.546   2.309  0.5192 -0.5789  0.2170
  288MOL   H11340867   4.414   1.729   2.281 -1.7296 -1.0168 -0.3439
  288MOL   C11440868   4.667   1.757   2.345 -0.7967  0.6953  0.0312
  288MOL   C11540869   4.755   1.788   2.222 -0.1536  0.6024  0.1129
  288MOL   O11640870   4.677   1.856   2.125 -0.1722 -0.5450 -0.5282
  288MOL   H11740871   4.618   1.848   2.381 -1.4894 -0.0335  0.9665
  288MOL   H11840872   4.739   1.735   2.424  0.3323 -0.1806 -1.2196
  288MOL   H11940873   4.789   1.695   2.177  0.2299  0.5154  0.5722
  288MOL   H12040874   4.710   1.823   2.043  0.1822 -3.4576  0.7202
  288MOL   C12140875   4.879   1.875   2.245 -0.1136  0.0644  0.7192
  288MOL   C12240876   5.003   1.807   2.308 -0.7177  0.4810 -0.7437
  288MOL   O12340877   5.038   1.696   2.224 -0.6595 -0.0732 -0.2686
  288MOL   H12440878   4.921   1.905   2.149  1.1204  1.6022  1.7128
  288MOL   H12540879   4.850   1.968   2.294  1.0335  0.6847  0.2320
  288MOL   H12640880   4.972   1.780   2.409  1.5904 -1.6143 -0.5419
  288MOL   H12740881   5.084   1.632   2.276 -0.2919  0.5017  0.1148
  288MOL   C12840882   5.132   1.897   2.327 -0.4404 -0.0365  0.3929
  288MOL   C12940883   5.135   1.976   2.454  0.0804  0.1518  0.1494
  288MOL   O13040884   5.248   1.931   2.520  0.3441 -0.4308 -0.0458
  288MOL   H13140885   5.226   1.846   2.307 -0.0642  0.7617  0.0947
  288MOL   H13240886   5.141   1.965   2.242  0.6108  0.5548  0.9630
  288MOL   H13340887   5.051   1.954   2.518  0.1097  2.9183  1.2019
  288MOL   H13440888   5.242   1.839   2.540  1.4919 -0.7797 -1.2594
  288MOL   C13540889   5.144   2.134   2.438 -0.5473  0.0744 -0.0936
  288MOL   C13640890   5.122   2.221   2.565 -0.7632 -0.1463  0.3651
  288MOL   O13740891   4.991   2.251   2.602 -0.0026  0.3994 -0.2529
  288MOL   H13840892   5.245   2.152   2.400 -0.5973  1.9424  0.6057
  288MOL   H13940893   5.078   2.171   2.361  0.7187 -1.6288 -2.0615
  288MOL   H14040894   5.180   2.313   2.555 -0.2722 -0.5024 -0.0596
  288MOL   H14140895   4.992   2.292   2.687  1.2998 -1.1617  0.5159
  288MOL   H14240896   5.175   2.162   2.641 -1.0897  0.6503  1.2264
  289MOL     C140897   4.768   0.407   1.710 -0.4409  0.6550 -0.3574
  289MOL     C240898   4.705   0.514   1.789  0.0140 -0.7855  0.8208
  289MOL     O340899   4.640   0.449   1.901  0.2883  0.5051  0.0634
  289MOL     H440900   4.825   0.331   1.764  0.7546 -0.9799 -3.7860
  289MOL     H540901   4.836   0.428   1.627  0.4943  1.5164  0.6043
  289MOL     H640902   4.624   0.561   1.732  0.1377  0.2731  1.5010
  289MOL     H740903   4.705   0.397   1.946 -0.6859 -0.3512  0.5216
  289MOL     H840904   4.688   0.342   1.674 -0.4921 -0.1290  1.1249
  289MOL     C940905   4.805   0.606   1.852 -0.0394 -0.0709 -0.1385
  289MOL    C1040906   4.906   0.679   1.759  0.4664 -0.6190 -0.5182
  289MOL    O1140907   4.837   0.785   1.693 -0.0677 -0.5032  0.2091
  289MOL    H1240908   4.766   0.690   1.910 -1.4516 -1.9705  1.7325
  289MOL    H1340909   4.873   0.548   1.915  0.0749 -0.2403 -0.4173
  289MOL    H1440910   4.928   0.616   1.673 -0.7714 -1.8994  0.0852
  289MOL    H1540911   4.784   0.758   1.620 -1.4454 -0.7717  1.2730
  289MOL    C1640912   5.031   0.736   1.839  0.0667  0.1240  0.4405
  289MOL    C1740913   5.135   0.799   1.746  0.4710  0.1375 -1.1800
  289MOL    O1840914   5.232   0.843   1.841 -0.6716 -0.0703 -0.1696
  289MOL    H1940915   4.986   0.814   1.900 -0.3844  0.9880 -0.9686
  289MOL    H2040916   5.074   0.656   1.899 -0.6619  0.3805  1.3150
  289MOL    H2140917   5.093   0.879   1.685 -2.9509 -1.5812 -1.2100
  289MOL    H2240918   5.311   0.861   1.792  0.6663 -0.0864  1.9437
  289MOL    C2340919   5.185   0.695   1.641 -0.2269  0.1696  0.0762
  289MOL    C2440920   5.202   0.544   1.673 -0.9646 -0.3103 -0.2204
  289MOL    O2540921   5.236   0.479   1.555 -0.7584  0.1067 -0.3526
  289MOL    H2640922   5.122   0.691   1.552 -0.8874 -3.0767  0.6221
  289MOL    H2740923   5.284   0.732   1.614  0.5276  0.2155  2.7153
  289MOL    H2840924   5.103   0.509   1.704 -0.4743 -0.4668  1.2136
  289MOL    H2940925   5.156   0.449   1.515  0.4661 -0.7477 -2.2550
  289MOL    C3040926   5.293   0.496   1.783  0.6460  0.4835  0.1332
  289MOL    C3140927   5.271   0.346   1.814  0.4776  0.8667 -0.2230
  289MOL    O3240928   5.377   0.299   1.902  0.2479 -1.0118 -0.3562
  289MOL    H3340929   5.393   0.511   1.745  0.0686 -1.0997 -2.1188
  289MOL    H3440930   5.273   0.554   1.874 -1.6774  2.4482 -1.5560
  289MOL    H3540931   5.288   0.300   1.717  0.0157 -1.9973  1.0074
  289MOL    H3640932   5.463   0.316   1.866  0.4201  0.8851  0.8673
  289MOL    C3740933   5.125   0.313   1.873  0.0413 -0.0344  0.6178
  289MOL    C3840934   5.068   0.175   1.846 -0.7103 -0.1362 -0.4908
  289MOL    O3940935   4.949   0.142   1.915  0.0141 -0.1119  0.1046
  289MOL    H4040936   5.129   0.334   1.980  0.7945  0.9218  0.4111
  289MOL    H4140937   5.052   0.392   1.854  2.7955  1.5989 -3.8681
  289MOL    H4240938   5.143   0.102   1.876 -0.4832  0.1643 -0.3255
  289MOL    H4340939   4.897   0.072   1.878  0.7094 -0.9636  0.7208
  289MOL    C4440940   5.047   0.153   1.697  0.0140  0.1366  0.1107
  289MOL    C4540941   5.112   0.014   1.645  0.3040  0.2310 -0.4424
  289MOL    O4640942   5.047   7.512   1.521 -0.2347  0.4963  0.3515
  289MOL    H4740943   4.941   0.158   1.676 -0.2069 -2.0465  0.6406
  289MOL    H4840944   5.085   0.239   1.641  2.3593 -0.4960  0.6624
  289MOL    H4940945   5.068   7.454   1.703 -1.5579 -0.0499 -2.1729
  289MOL    H5040946   5.013   7.424   1.517 -2.3277  1.3161 -0.7434
  289MOL    C5140947   5.268   0.024   1.644  0.0305 -0.0130 -0.0637
  289MOL    C5240948   5.343   7.427   1.599  0.4855 -0.4788 -0.0713
  289MOL    O5340949   5.310   7.308   1.675  0.0463  0.5956 -0.1416
  289MOL    H5440950   5.289   0.112   1.584 -2.7615  0.9700  0.2873
  289MOL    H5540951   5.311   0.038   1.744  0.1067  0.0322 -0.1036
  289MOL    H5640952   5.446   7.454   1.620  0.0411 -0.5537  2.4397
  289MOL    H5740953   5.371   7.306   1.747 -0.4505 -0.0560  0.2678
  289MOL    C5840954   5.320   7.390   1.451 -0.1961 -0.0798  0.5673
  289MOL    C5940955   5.395   7.260   1.413 -0.0488 -0.2739 -0.2671
  289MOL    O6040956   5.354   7.241   1.279  0.0663 -0.2789  0.5984
  289MOL    H6140957   5.216   7.358   1.435 -0.6129  1.4825  0.0403
  289MOL    H6240958   5.346   7.478   1.391  0.2564 -0.2556  0.5054
  289MOL    H6340959   5.348   7.176   1.465 -0.6847  1.3245  1.8179
  289MOL    H6440960   5.270   7.197   1.286  0.4427 -1.4040 -1.4340
  289MOL    C6540961   5.546   7.269   1.420 -0.8583 -0.2847 -0.1164
  289MOL    C6640962   5.624   7.233   1.550 -0.1051 -0.7437 -0.2349
  289MOL    O6740963   5.593   7.094   1.584 -0.1541 -0.3180  0.0383
  289MOL    H6840964   5.589   7.200   1.347  3.0413  1.4440  0.4284
  289MOL    H6940965   5.585   7.360   1.375 -1.2358 -0.4262 -0.7379
  289MOL    H7040966   5.591   7.294   1.634 -2.2685 -0.2758 -1.4081
  289MOL    H7140967   5.506   7.086   1.618 -0.4981  3.3165  0.2033
  289MOL    C7240968   5.781   7.246   1.541  0.4922 -0.2172 -0.4521
  289MOL    C7340969   5.878   7.200   1.653  0.0701  0.4525  0.1384
  289MOL    O7440970   6.008   7.219   1.607  0.4697 -0.3254  0.4820
  289MOL    H7540971   5.804   7.197   1.446 -1.3040 -1.2111 -0.3967
  289MOL    H7640972   5.800   7.347   1.505 -2.5166 -0.3714 -2.7056
  289MOL    H7740973   5.872   7.092   1.646 -0.0748  0.4530  0.2604
  289MOL    H7840974   6.020   7.172   1.526 -0.7786 -0.7193  0.5210
  289MOL    C7940975   5.859   7.245   1.801  0.9088 -0.6300  0.1873
  289MOL    C8040976   5.867   7.397   1.830 -0.1096  0.2702  1.0762
  289MOL    O8140977   5.769   7.477   1.766  0.2359  0.3569 -0.2658
  289MOL    H8240978   5.764   7.200   1.831  0.3078  0.2962 -0.2755
  289MOL    H8340979   5.929   7.193   1.866 -0.1511 -1.4858  0.6691
  289MOL    H8440980   5.962   7.427   1.785  0.2445 -2.2544  0.0207
  289MOL    H8540981   5.802   7.500   1.681  0.0615 -0.2784 -0.5096
  289MOL    C8640982   5.875   7.424   1.976  0.2995 -0.0362  0.3220
  289MOL    C8740983   5.910   0.050   2.021 -0.0995  0.8069  0.7668
  289MOL    O8840984   5.804   0.139   1.986  0.4204 -0.8936 -0.3806
  289MOL    H8940985   5.785   7.387   2.026 -0.3928  1.7861  0.4759
  289MOL    H9040986   5.945   7.363   2.034 -0.4752  0.3197  1.6734
  289MOL    H9140987   6.001   0.069   1.964 -2.1280 -2.1326 -3.8179
  289MOL    H9240988   5.770   0.098   1.908  0.3424 -3.2320  0.8320
  289MOL    C9340989   5.922   0.066   2.177  0.2475  0.1346 -0.5936
  289MOL    C9440990   5.980   0.198   2.223  0.6262  0.1746  0.2656
  289MOL    O9540991   5.893   0.297   2.186 -0.0153  0.2162 -0.1057
  289MOL    H9640992   5.831   0.050   2.234  0.2394 -0.7651 -0.8541
  289MOL    H9740993   5.984   7.503   2.211  0.2413  0.7253  0.8507
  289MOL    H9840994   6.060   0.221   2.152 -2.0761  0.4178 -2.7949
  289MOL    H9940995   5.849   0.266   2.108  1.6605 -0.8501 -0.6547
  289MOL   C10040996   6.029   0.223   2.367 -0.2305 -0.4828 -0.5052
  289MOL   C10140997   6.156   0.312   2.380  0.4852 -0.1435 -0.4856
  289MOL   O10240998   6.153   0.355   2.518 -0.4276  0.9926 -0.7411
  289MOL   H10340999   5.948   0.262   2.429  0.5425  1.3891 -0.6261
  289MOL   H10441000   6.055   0.128   2.414 -0.7865 -1.6381 -2.4726
  289MOL   H10541001   6.155   0.408   2.327 -1.4940 -0.9917 -2.0349
  289MOL   H10641002   6.099   0.432   2.526 -2.5114 -0.4436 -0.6657
  289MOL   C10741003   6.287   0.230   2.351  0.7167 -0.2459  0.4733
  289MOL   C10841004   6.417   0.330   2.319 -0.4148 -0.2426  0.0370
  289MOL   O10941005   6.537   0.258   2.331  0.3337 -0.1029  0.0694
  289MOL   H11041006   6.317   0.167   2.435  3.1784 -1.0095 -0.9407
  289MOL   H11141007   6.284   0.168   2.261  0.2098 -0.0902  0.3822
  289MOL   H11241008   6.428   0.408   2.394 -0.7205  0.3281 -0.5140
  289MOL   H11341009   6.545   0.192   2.263 -3.2508 -0.7979  0.2277
  289MOL   C11441010   6.421   0.377   2.170 -0.0498  0.0030  0.2554
  289MOL   C11541011   6.530   0.471   2.118  0.4856 -0.2285 -0.0690
  289MOL   O11641012   6.483   0.525   1.993  0.3680 -0.0882  0.4817
  289MOL   H11741013   6.404   0.294   2.102  0.4022 -0.6986  0.9951
  289MOL   H11841014   6.331   0.436   2.156  0.5940  0.8650 -0.2946
  289MOL   H11941015   6.601   0.389   2.106  0.0472 -0.5526 -0.4723
  289MOL   H12041016   6.535   0.495   1.920  0.1245 -0.8905  0.6339
  289MOL   C12141017   6.580   0.584   2.211 -0.3940 -0.6528  0.3913
  289MOL   C12241018   6.714   0.640   2.157 -0.1560 -0.3081 -0.5163
  289MOL   O12341019   6.745   0.763   2.219  0.1265 -0.4931 -0.2348
  289MOL   H12441020   6.504   0.661   2.224 -0.1557 -0.0269 -1.7732
  289MOL   H12541021   6.594   0.548   2.313  0.9695 -3.1971 -0.6332
  289MOL   H12641022   6.698   0.657   2.051 -0.3844  0.5592 -0.3448
  289MOL   H12741023   6.704   0.825   2.161 -0.0648  0.3018  0.7417
  289MOL   C12841024   6.828   0.541   2.175  0.0216 -0.6221 -0.0660
  289MOL   C12941025   6.965   0.563   2.100  0.2772 -0.7121  0.5453
  289MOL   O13041026   7.059   0.468   2.131 -0.2536 -0.0746 -0.5165
  289MOL   H13141027   6.858   0.551   2.279 -0.1125  2.4169 -0.2605
  289MOL   H13241028   6.794   0.438   2.165 -1.2616 -0.2501  0.4072
  289MOL   H13341029   7.004   0.662   2.124 -0.0156 -0.6834  0.9189
  289MOL   H13441030   7.066   0.459   2.225 -0.2668 -1.0821 -0.6030
  289MOL   C13541031   6.950   0.567   1.942  0.3161  0.3667  0.0408
  289MOL   C13641032   6.919   0.700   1.883  0.9459  0.0250 -0.3245
  289MOL   O13741033   6.881   0.677   1.752 -0.3005  0.5236 -0.5749
  289MOL   H13841034   7.047   0.542   1.899  0.1526  0.1285 -0.1915
  289MOL   H13941035   6.889   0.489   1.896 -2.5303  2.6757 -0.2130
  289MOL   H14041036   7.014   0.753   1.874  0.6515  0.7437  0.7875
  289MOL   H14141037   6.787   0.671   1.762 -0.2739  1.7934  0.5875
  289MOL   H14241038   6.838   0.751   1.934  0.3701 -0.3563 -0.8445
  290MOL     C141039   1.804   3.439   4.632  0.8793 -0.1160  0.5000
  290MOL     C241040   1.711   3.538   4.700 -0.4689 -0.5724 -0.1075
  290MOL     O341041   1.763   3.575   4.827 -0.5051  0.1789  0.1826
  290MOL     H441042   1.757   3.403   4.540 -0.6377  0.5370  1.0043
  290MOL     H541043   1.820   3.353   4.698 -0.6482  0.3037  1.4310
  290MOL     H641044   1.617   3.484   4.711 -0.0304 -0.9918  1.8039
  290MOL     H741045   1.701   3.639   4.858 -0.5992  1.4140 -2.4174
  290MOL     H841046   1.902   3.479   4.604  0.7814 -0.6388 -0.6230
  290MOL     C941047   1.697   3.665   4.617 -0.3882  0.0669 -0.0664
  290MOL    C1041048   1.601   3.642   4.496 -0.4369 -0.2585  0.7778
  290MOL    O1141049   1.497   3.738   4.484 -0.0874 -0.0608 -0.0994
  290MOL    H1241050   1.666   3.754   4.672  0.2249  0.6498 -0.6425
  290MOL    H1341051   1.794   3.689   4.574  0.1975 -0.2822  1.0556
  290MOL    H1441052   1.547   3.553   4.527 -0.5439 -0.5551 -0.2380
  290MOL    H1541053   1.530   3.815   4.527 -0.1375  0.0974 -0.3448
  290MOL    C1641054   1.676   3.627   4.359  0.1505 -0.5460 -0.1942
  290MOL    C1741055   1.598   3.564   4.245  0.5998  0.6059  0.3555
  290MOL    O1841056   1.692   3.584   4.133  0.3015  0.6630  0.3282
  290MOL    H1941057   1.702   3.728   4.327  2.9658 -1.1044  0.1225
  290MOL    H2041058   1.768   3.567   4.361  0.4533 -0.0570  1.8275
  290MOL    H2141059   1.504   3.612   4.219  0.2234 -0.1750  0.2846
  290MOL    H2241060   1.658   3.550   4.052 -0.3758 -0.0567  0.9069
  290MOL    C2341061   1.567   3.409   4.264  0.9568 -0.1613  0.0013
  290MOL    C2441062   1.432   3.366   4.333 -0.2028  0.3686 -0.3546
  290MOL    O2541063   1.340   3.365   4.223 -0.9491 -0.2969 -0.1146
  290MOL    H2641064   1.564   3.352   4.171  0.4095  0.7873 -0.5793
  290MOL    H2741065   1.653   3.369   4.317  1.8841  1.3572 -0.3245
  290MOL    H2841066   1.405   3.443   4.405 -0.6862  1.6300 -1.8627
  290MOL    H2941067   1.283   3.435   4.249  2.0241  1.3398  2.3214
  290MOL    C3041068   1.432   3.222   4.387  0.2227 -0.1286  0.3815
  290MOL    C3141069   1.477   3.219   4.536 -0.2380  0.2498  0.7228
  290MOL    O3241070   1.372   3.261   4.630  0.1776  0.3776  0.2684
  290MOL    H3341071   1.339   3.169   4.365 -0.9496  2.4614 -1.0191
  290MOL    H3441072   1.507   3.164   4.332  0.9009 -0.2426  1.4096
  290MOL    H3541073   1.557   3.275   4.584 -0.1924  1.4682 -0.7372
  290MOL    H3641074   1.310   3.191   4.639 -0.1006 -0.0708 -3.9318
  290MOL    C3741075   1.499   3.073   4.571 -0.0643 -0.1279  0.3180
  290MOL    C3841076   1.544   3.034   4.712 -0.0494 -0.2286  1.1399
  290MOL    O3941077   1.547   2.895   4.725 -0.0334  0.7813 -0.4704
  290MOL    H4041078   1.408   3.021   4.539  0.4216 -0.7494 -0.0908
  290MOL    H4141079   1.584   3.050   4.506 -0.5269 -2.9381  0.6403
  290MOL    H4241080   1.470   3.078   4.779 -0.2258  0.8331  0.2622
  290MOL    H4341081   1.533   2.838   4.651  0.6824 -0.4360  0.3034
  290MOL    C4441082   1.681   3.084   4.759 -0.0391  0.3932 -0.9157
  290MOL    C4541083   1.712   3.068   4.906 -0.3241 -0.3519  0.3467
  290MOL    O4641084   1.709   2.929   4.932 -0.2238 -0.2764  0.2205
  290MOL    H4741085   1.752   3.032   4.696  1.0213  2.4400 -1.4751
  290MOL    H4841086   1.684   3.188   4.724 -0.3270 -0.6577 -4.1876
  290MOL    H4941087   1.631   3.113   4.964  0.0641  0.7622  0.0372
  290MOL    H5041088   1.641   2.900   4.872 -0.9384  2.5633 -0.4077
  290MOL    C5141089   1.849   3.120   4.960 -0.7729  0.9055  0.4716
  290MOL    C5241090   1.850   3.256   5.017 -0.0257  0.2914 -0.3847
  290MOL    O5341091   1.786   3.240   5.145 -0.3019  0.3804 -0.1796
  290MOL    H5441092   1.885   3.060   5.043  0.1695  1.5869  0.5628
  290MOL    H5541093   1.913   3.103   4.873 -0.0128  0.3011  1.1430
  290MOL    H5641094   1.790   3.320   4.952  0.0244  0.5911 -0.1351
  290MOL    H5741095   1.692   3.236   5.135 -0.1728  1.4612 -1.9645
  290MOL    C5841096   1.989   3.324   5.042  0.5634  0.3727  0.1303
  290MOL    C5941097   2.070   3.374   4.918  1.0269 -0.7648 -0.1337
  290MOL    O6041098   2.166   3.476   4.944  0.1149  0.0501  0.5129
  290MOL    H6141099   1.983   3.407   5.112  2.2015 -0.5052  1.3516
  290MOL    H6241100   2.060   3.264   5.099 -2.9406 -3.0256  1.1340
  290MOL    H6341101   1.993   3.413   4.852  0.5277  0.3009  1.0400
  290MOL    H6441102   2.143   3.547   5.002 -1.3569  0.6749 -0.8228
  290MOL    C6541103   2.149   3.268   4.841  0.0539  0.3590 -0.4433
  290MOL    C6641104   2.201   3.313   4.698  0.8683  0.3797 -0.2642
  290MOL    O6741105   2.326   3.380   4.714 -0.1867 -0.4534 -0.2276
  290MOL    H6841106   2.234   3.242   4.904 -0.7959  1.3364  1.1575
  290MOL    H6941107   2.111   3.166   4.850  1.4131 -0.1764 -0.6128
  290MOL    H7041108   2.130   3.385   4.657  1.6877 -0.0615 -2.5405
  290MOL    H7141109   2.299   3.460   4.756 -0.4674 -0.0547 -1.1430
  290MOL    C7241110   2.230   3.206   4.596 -0.3589 -0.0656 -0.7099
  290MOL    C7341111   2.116   3.129   4.535  0.8064  0.1891 -0.0722
  290MOL    O7441112   2.014   3.114   4.641  0.0774 -0.8650  0.0264
  290MOL    H7541113   2.280   3.249   4.509  1.1591  0.9096  0.6250
  290MOL    H7641114   2.304   3.140   4.640  0.4247  0.5530 -1.1029
  290MOL    H7741115   2.157   3.034   4.503 -0.0375 -0.2671  0.1638
  290MOL    H7841116   2.031   3.031   4.681 -0.8319 -0.7839  0.5830
  290MOL    C7941117   2.048   3.206   4.414 -0.0918 -0.7424  0.0756
  290MOL    C8041118   1.925   3.148   4.355 -0.4645  0.2668 -0.0341
  290MOL    O8141119   1.834   3.187   4.449  0.2367  0.5127 -0.0420
  290MOL    H8241120   2.032   3.312   4.433  0.5676 -0.7638  0.7912
  290MOL    H8341121   2.125   3.207   4.337  1.6062 -1.0119  1.7306
  290MOL    H8441122   1.917   3.041   4.338 -3.4050  0.6095 -0.9335
  290MOL    H8541123   1.880   3.164   4.528 -0.6361 -0.3118  0.2347
  290MOL    C8641124   1.873   3.235   4.234 -0.3267  0.0229  0.3953
  290MOL    C8741125   1.965   3.209   4.110  0.5748  0.2473  0.0141
  290MOL    O8841126   1.967   3.069   4.094  0.0948  0.2185  0.5310
  290MOL    H8941127   1.769   3.209   4.215  0.5670 -3.9621  0.5142
  290MOL    H9041128   1.866   3.343   4.249 -2.5388 -0.1367  0.5924
  290MOL    H9141129   2.064   3.250   4.128  1.1977 -1.0750 -0.3016
  290MOL    H9241130   1.878   3.048   4.069 -0.0946  0.3120  1.1120
  290MOL    C9341131   1.900   3.292   3.998  0.4841 -0.1459  0.5892
  290MOL    C9441132   1.961   3.269   3.855 -0.5461 -0.0600 -0.1171
  290MOL    O9541133   1.907   3.360   3.761  0.4899 -0.5231  0.2435
  290MOL    H9641134   1.792   3.277   3.987  0.2782  2.2518 -1.1650
  290MOL    H9741135   1.908   3.399   4.020  2.1359  0.3239 -2.0493
  290MOL    H9841136   1.940   3.164   3.836  0.7770 -0.3961  0.2425
  290MOL    H9941137   1.925   3.448   3.792 -2.0318  0.6267 -1.4457
  290MOL   C10041138   2.111   3.283   3.837 -0.1139 -0.6832  0.0218
  290MOL   C10141139   2.159   3.228   3.698  0.1108  0.6078 -0.7768
  290MOL   O10241140   2.231   3.334   3.633 -0.2371  0.1941  0.3732
  290MOL   H10341141   2.132   3.390   3.840  2.2798 -1.1113 -0.3069
  290MOL   H10441142   2.171   3.240   3.917  0.7662  3.8309  1.9618
  290MOL   H10541143   2.072   3.210   3.635 -0.6327  1.3988 -0.0008
  290MOL   H10641144   2.183   3.350   3.553 -0.5035  1.8612  0.8423
  290MOL   C10741145   2.244   3.093   3.718  0.1808  0.2503 -0.1941
  290MOL   C10841146   2.321   3.036   3.600  0.0788 -0.9014 -0.4200
  290MOL   O10941147   2.416   3.133   3.589  0.6980  0.8029  0.1436
  290MOL   H11041148   2.315   3.094   3.801  0.1203 -1.2427 -0.1080
  290MOL   H11141149   2.175   3.017   3.756 -0.0402 -0.3840 -1.7999
  290MOL   H11241150   2.273   3.034   3.502 -0.1882 -1.6919 -0.2805
  290MOL   H11341151   2.372   3.216   3.581  1.1184  1.1942  1.7786
  290MOL   C11441152   2.392   2.899   3.623  0.3776 -0.7213 -0.1811
  290MOL   C11541153   2.310   2.778   3.584 -0.2640 -0.0936 -0.6579
  290MOL   O11641154   2.398   2.667   3.604  0.0048  0.2643 -0.3471
  290MOL   H11741155   2.487   2.913   3.571 -0.3286  2.4813 -0.7287
  290MOL   H11841156   2.423   2.890   3.727 -2.2325 -1.3912  0.5605
  290MOL   H11941157   2.290   2.775   3.477 -0.9187  0.3991 -0.5504
  290MOL   H12041158   2.422   2.635   3.518 -0.0191 -1.4010  0.2355
  290MOL   C12141159   2.171   2.775   3.652 -0.3041  0.0766  0.1482
  290MOL   C12241160   2.097   2.639   3.641  0.1284 -0.4664 -0.3651
  290MOL   O12341161   2.001   2.632   3.748  0.2932  0.4015  0.5555
  290MOL   H12441162   2.191   2.789   3.758  0.6712  0.0456 -0.0192
  290MOL   H12541163   2.107   2.858   3.621 -0.5291  0.0609  0.5736
  290MOL   H12641164   2.176   2.569   3.669  0.4759  0.4752  1.0459
  290MOL   H12741165   2.040   2.601   3.829 -0.5568  0.9798  1.2028
  290MOL   C12841166   2.033   2.617   3.495 -0.6829 -0.4055 -0.4560
  290MOL   C12941167   2.000   2.472   3.478  0.5797 -0.4175  0.2438
  290MOL   O13041168   1.882   2.458   3.403  0.3319  0.1528 -0.6962
  290MOL   H13141169   1.950   2.686   3.483  0.8558  1.8540  1.5457
  290MOL   H13241170   2.115   2.638   3.427  1.2400 -0.2387  1.8349
  290MOL   H13341171   1.964   2.439   3.575  0.3494 -0.2808  0.2042
  290MOL   H13441172   1.812   2.506   3.444  2.2517  2.7547 -0.3474
  290MOL   C13541173   2.114   2.379   3.421 -0.1195 -0.6436  0.5009
  290MOL   C13641174   2.080   2.233   3.406 -0.1822  0.3367  0.3629
  290MOL   O13741175   2.205   2.174   3.347 -0.0391  0.3216 -0.0689
  290MOL   H13841176   2.143   2.422   3.325  1.5525 -0.8119  0.9087
  290MOL   H13941177   2.210   2.389   3.473 -0.3990 -1.5590  1.1961
  290MOL   H14041178   1.997   2.215   3.338 -0.0854 -3.7960  1.2550
  290MOL   H14141179   2.170   2.100   3.299  1.2829 -0.7282  0.5515
  290MOL   H14241180   2.054   2.188   3.502 -1.8693  2.1796  0.8075
  291MOL     C141181   7.416   4.175   4.876  0.6154  0.9823 -0.2454
  291MOL     C241182   7.401   4.324   4.836  0.1204  0.0947  0.6726
  291MOL     O341183   7.271   4.353   4.889  0.0819  0.1547  0.0425
  291MOL     H441184   7.317   4.130   4.889  1.8897 -2.1971 -1.0898
  291MOL     H541185   7.462   4.163   4.975  1.7358 -0.4768 -0.9274
  291MOL     H641186   7.415   4.346   4.730  0.0799 -0.2763  0.5894
  291MOL     H741187   7.202   4.304   4.847  0.5722 -2.0893  1.7524
  291MOL     H841188   7.471   4.116   4.804  1.1547  1.0622  0.0962
  291MOL     C941189   7.497   4.422   4.916 -0.8203 -0.2921  0.1410
  291MOL    C1041190   0.109   4.453   4.845  0.1949 -0.1204  0.5386
  291MOL    O1141191   0.153   4.579   4.889 -0.0002  0.4035  0.0170
  291MOL    H1241192   7.431   4.507   4.929 -2.0419 -1.3731  1.1681
  291MOL    H1341193   0.001   4.378   5.013 -0.6380  1.8035  1.0586
  291MOL    H1441194   0.104   4.472   4.738  2.5629 -0.8145  0.2906
  291MOL    H1541195   0.177   4.625   4.810 -2.0411  0.9670 -0.2911
  291MOL    C1641196   0.229   4.351   4.842  0.0561  0.2764  0.1946
  291MOL    C1741197   0.328   4.366   4.724  1.0354 -0.2204  0.2308
  291MOL    O1841198   0.442   4.292   4.746  0.5329 -0.0531  0.1270
  291MOL    H1941199   0.280   4.355   4.939 -0.6563  1.0710  0.5415
  291MOL    H2041200   0.183   4.252   4.839 -0.3054  0.3451  2.5190
  291MOL    H2141201   0.354   4.472   4.720  0.4819 -0.0492  1.0613
  291MOL    H2241202   0.497   4.305   4.670  0.6869  1.2425  0.4526
  291MOL    C2341203   0.273   4.324   4.584  0.0842 -0.0101 -0.2523
  291MOL    C2441204   0.367   4.356   4.470  0.3367  0.6440 -0.1117
  291MOL    O2541205   0.328   4.288   4.350  0.1228 -0.2288 -0.5243
  291MOL    H2641206   0.284   4.215   4.585  0.6340  0.0381 -0.6698
  291MOL    H2741207   0.175   4.353   4.548 -0.1582  0.1122  0.4926
  291MOL    H2841208   0.469   4.322   4.487 -0.0874 -0.3131  0.5917
  291MOL    H2941209   0.374   4.314   4.272 -2.8105  1.3607 -1.7899
  291MOL    C3041210   0.369   4.508   4.441  0.6466 -0.8104  0.7007
  291MOL    C3141211   0.243   4.585   4.398  0.3161 -0.9347  0.3626
  291MOL    O3241212   0.284   4.719   4.411  0.4837 -0.4911 -0.2541
  291MOL    H3341213   0.414   4.546   4.532  0.7644 -0.1389  0.3668
  291MOL    H3441214   0.442   4.514   4.360 -3.3862  1.4565 -2.9711
  291MOL    H3541215   0.160   4.556   4.463 -1.8591  1.9504 -0.9952
  291MOL    H3641216   0.276   4.742   4.502  4.6112 -0.5088  0.2151
  291MOL    C3741217   0.213   4.585   4.247  0.0118  0.3560 -0.4346
  291MOL    C3841218   0.087   4.671   4.210 -0.4793  0.0592 -0.1959
  291MOL    O3941219   0.071   4.655   4.069  0.6223 -0.3361  0.4954
  291MOL    H4041220   0.290   4.616   4.177 -1.1326  1.6871 -1.1315
  291MOL    H4141221   0.195   4.482   4.214  1.3409  0.0775 -0.3246
  291MOL    H4241222   0.094   4.778   4.228 -2.1104 -0.1471  1.7636
  291MOL    H4341223   0.080   4.741   4.030  1.9437 -0.6453  0.1100
  291MOL    C4441224   7.475   4.623   4.290 -0.2447 -0.6114  0.0006
  291MOL    C4541225   7.426   4.486   4.250 -0.1711  0.8316 -0.0420
  291MOL    O4641226   7.386   4.429   4.374 -0.4687  0.1585 -0.3328
  291MOL    H4741227   7.496   4.635   4.397  0.0749  0.7067 -0.1985
  291MOL    H4841228   7.403   4.701   4.267 -0.9654 -1.5451 -0.9091
  291MOL    H4941229   7.493   4.413   4.206  0.5596  1.3520  0.2067
  291MOL    H5041230   7.386   4.335   4.374  0.2087  0.1398  1.4295
  291MOL    C5141231   7.297   4.493   4.161 -0.3572  0.1866 -0.1210
  291MOL    C5241232   7.280   4.381   4.064  0.1101 -0.5410 -0.0769
  291MOL    O5341233   7.146   4.380   4.025  0.1987  0.2724 -0.4984
  291MOL    H5441234   7.212   4.492   4.230 -1.5475 -0.0170 -1.5734
  291MOL    H5541235   7.291   4.581   4.098  0.6406  0.2249 -0.1722
  291MOL    H5641236   7.292   4.284   4.113 -2.4552 -2.0648 -2.3370
  291MOL    H5741237   7.150   4.319   3.953  0.4626  0.5598 -0.7270
  291MOL    C5841238   7.361   4.401   3.930  0.4851  0.0122  0.0675
  291MOL    C5941239   7.505   4.351   3.930  0.2357 -0.1287 -0.8398
  291MOL    O6041240   7.500   4.215   3.959 -0.1997 -0.3444  0.7667
  291MOL    H6141241   7.307   4.347   3.852 -1.4347 -0.3553  1.6215
  291MOL    H6241242   7.370   4.507   3.906 -0.0925  0.0258 -0.0971
  291MOL    H6341243   0.049   4.406   4.000 -1.0196  0.0948  0.1425
  291MOL    H6441244   0.064   4.176   3.936 -0.4412 -1.4959  1.7644
  291MOL    C6541245   0.059   4.375   3.799  0.0596  0.6079 -0.7479
  291MOL    C6641246   0.125   4.511   3.783  0.5524  0.0899  0.0500
  291MOL    O6741247   0.228   4.527   3.875  0.4455 -0.3454  0.0561
  291MOL    H6841248   0.140   4.302   3.784  0.5533  0.5806  1.8320
  291MOL    H6941249   7.511   4.349   3.717  0.0889 -0.0027 -0.5838
  291MOL    H7041250   0.050   4.587   3.807  1.0318 -0.1759  2.5732
  291MOL    H7141251   0.190   4.580   3.943  3.2534  1.4815  0.2677
  291MOL    C7241252   0.177   4.533   3.636  0.2071  0.3638  0.4092
  291MOL    C7341253   0.261   4.420   3.580 -0.5725 -0.6655  0.2070
  291MOL    O7441254   0.185   4.332   3.506 -0.2687 -0.2792 -0.4543
  291MOL    H7541255   0.088   4.559   3.579 -0.8461 -0.2127  1.7280
  291MOL    H7641256   0.229   4.629   3.639  0.1029  0.3915  2.6729
  291MOL    H7741257   0.300   4.366   3.666  1.5797 -0.6234 -0.7184
  291MOL    H7841258   0.190   4.355   3.414  0.8474  0.8655 -0.1069
  291MOL    C7941259   0.385   4.465   3.498 -0.3671  0.1624 -0.5535
  291MOL    C8041260   0.502   4.506   3.583  0.1659 -0.3031 -0.2062
  291MOL    O8141261   0.594   4.400   3.613 -0.0610 -0.1048  0.3052
  291MOL    H8241262   0.421   4.382   3.437 -0.2299  0.2111 -0.5384
  291MOL    H8341263   0.365   4.538   3.420  0.0874  0.6168 -0.2448
  291MOL    H8441264   0.467   4.532   3.683  1.9485 -0.2213  0.4160
  291MOL    H8541265   0.661   4.430   3.674 -0.8673  0.4940  0.9016
  291MOL    C8641266   0.591   4.620   3.522  0.4373  0.7644 -0.1526
  291MOL    C8741267   0.511   4.750   3.507 -0.0326  0.0386 -0.0952
  291MOL    O8841268   0.464   4.798   3.629  0.5513 -0.2112 -0.2901
  291MOL    H8941269   0.683   4.635   3.579 -1.1888  2.2595  2.1828
  291MOL    H9041270   0.613   4.581   3.423 -0.4404 -1.8292  0.6476
  291MOL    H9141271   0.429   4.744   3.435  1.3748 -1.2863 -1.6536
  291MOL    H9241272   0.426   4.883   3.615  1.0118  0.0655  0.1052
  291MOL    C9341273   0.594   4.867   3.444  0.4360 -0.2250 -0.3885
  291MOL    C9441274   0.502   4.986   3.409 -0.1051 -0.6698 -0.2571
  291MOL    O9541275   0.465   5.042   3.532 -0.6109  0.0534 -0.0169
  291MOL    H9641276   0.673   4.897   3.513  0.2073  0.7761 -0.5434
  291MOL    H9741277   0.654   4.826   3.362  0.5053 -2.4614  0.7704
  291MOL    H9841278   0.406   4.951   3.373  0.1603 -0.9902 -0.6573
  291MOL    H9941279   0.375   5.061   3.511 -0.9083  1.3482  2.2354
  291MOL   C10041280   0.573   5.096   3.327  0.3608 -0.4269  0.4818
  291MOL   C10141281   0.591   5.058   3.183  0.2016  0.3678 -0.2655
  291MOL   O10241282   0.467   5.065   3.111 -0.6422 -1.1213  0.0972
  291MOL   H10341283   0.524   5.193   3.335  0.3677 -0.4269  0.5257
  291MOL   H10441284   0.669   5.109   3.376 -1.0192 -0.4162  3.3031
  291MOL   H10541285   0.636   4.958   3.178  2.3383  1.3482 -1.5862
  291MOL   H10641286   0.485   5.020   3.029  2.2216  1.5599 -0.8177
  291MOL   C10741287   0.694   5.155   3.107 -0.0720 -0.1636 -0.3243
  291MOL   C10841288   0.845   5.155   3.143  0.1191  0.1800 -0.1953
  291MOL   O10941289   0.911   5.188   3.016 -0.3081 -0.2558 -0.5719
  291MOL   H11041290   0.676   5.126   3.004 -0.7740  0.5132 -0.3926
  291MOL   H11141291   0.654   5.256   3.116 -1.5667 -0.7339 -0.4228
  291MOL   H11241292   0.879   5.055   3.170  1.3401  0.4523 -0.6982
  291MOL   H11341293   0.861   5.260   2.982 -0.3772  1.7418  3.3845
  291MOL   C11441294   0.896   5.258   3.246  0.3726 -0.3685 -0.3747
  291MOL   C11541295   1.003   5.195   3.342 -0.8896  0.0378  1.0431
  291MOL   O11641296   1.068   5.305   3.392  0.2816  0.1892 -0.2029
  291MOL   H11741297   0.928   5.346   3.191 -1.2334 -0.0059 -0.7722
  291MOL   H11841298   0.812   5.303   3.298 -1.1021 -1.0765 -2.0652
  291MOL   H11941299   1.068   5.137   3.276 -0.3852  1.8960 -0.1279
  291MOL   H12041300   1.123   5.284   3.466  1.3630  0.3496 -0.9476
  291MOL   C12141301   0.948   5.107   3.458 -0.3592 -0.5447 -0.3963
  291MOL   C12241302   1.053   5.060   3.565  0.2404  0.1301  0.2995
  291MOL   O12341303   1.116   5.169   3.634 -0.2831 -0.3264 -0.1636
  291MOL   H12441304   0.862   5.157   3.501 -0.2397 -0.0905 -0.6728
  291MOL   H12541305   0.900   5.021   3.412 -0.3543 -0.5731 -0.3480
  291MOL   H12641306   1.127   5.006   3.507 -0.2811  0.6450 -0.8769
  291MOL   H12741307   1.171   5.126   3.697 -0.1129  0.3062  0.1311
  291MOL   C12841308   0.996   4.959   3.670  0.3983  0.1068  0.1257
  291MOL   C12941309   1.003   4.806   3.636 -0.1754  0.2655  0.1973
  291MOL   O13041310   1.136   4.757   3.660 -0.3885  0.1758 -0.6788
  291MOL   H13141311   1.023   4.978   3.774 -0.2311  0.7548  0.1788
  291MOL   H13241312   0.889   4.983   3.669  0.1403 -1.0193 -2.5629
  291MOL   H13341313   0.991   4.778   3.531  2.0489  0.1439 -0.0475
  291MOL   H13441314   1.161   4.787   3.746  2.0706  1.1050 -1.6598
  291MOL   C13541315   0.914   4.727   3.728  0.3094  0.5047  0.7509
  291MOL   C13641316   0.907   4.571   3.690 -0.3349 -0.3241 -0.1897
  291MOL   O13741317   0.815   4.499   3.763 -0.3014 -0.4230 -0.0241
  291MOL   H13841318   0.931   4.748   3.833  0.5514 -0.1916  0.8562
  291MOL   H13941319   0.814   4.764   3.706  1.1037  0.6334 -2.9869
  291MOL   H14041320   1.005   4.526   3.702  0.0739  0.7901  0.7596
  291MOL   H14141321   0.831   4.406   3.753 -0.6646 -0.4050 -0.7568
  291MOL   H14241322   0.875   4.568   3.585  1.6633  0.6431 -0.8587
  292MOL     C141323   3.152   0.604   6.523 -0.3355 -0.7817 -0.1352
  292MOL     C241324   3.268   0.620   6.410  0.1951  0.3976 -0.0450
  292MOL     O341325   3.396   0.621   6.469 -0.2194  0.1841 -0.2553
  292MOL     H441326   3.165   0.676   6.605 -0.4087 -3.1734  2.0414
  292MOL     H541327   3.140   0.505   6.566  0.6684 -1.0257 -0.3939
  292MOL     H641328   3.250   0.717   6.363  3.4676  1.3764  0.5487
  292MOL     H741329   3.423   0.536   6.499  1.3265  1.0745  0.9842
  292MOL     H841330   3.055   0.633   6.484 -0.3414 -1.7245 -0.8190
  292MOL     C941331   3.260   0.510   6.305 -0.2498 -0.3355  1.1313
  292MOL    C1041332   3.374   0.498   6.203 -0.4289 -0.1001 -0.3616
  292MOL    O1141333   3.345   0.381   6.133  0.3480 -0.2062 -0.6846
  292MOL    H1241334   3.242   0.420   6.365  1.5077 -0.9311  0.7961
  292MOL    H1341335   3.167   0.511   6.249 -0.0302 -0.2122  0.7681
  292MOL    H1441336   3.473   0.484   6.248 -1.1747 -0.3506  1.2447
  292MOL    H1541337   3.367   0.309   6.191 -3.3155  0.3776  1.5634
  292MOL    C1641338   3.374   0.611   6.101  0.4566 -0.7017  0.0882
  292MOL    C1741339   3.479   0.715   6.123  0.3540  0.3066  0.0245
  292MOL    O1841340   3.605   0.669   6.063 -0.5601 -0.0179 -0.5762
  292MOL    H1941341   3.386   0.575   5.999  2.6972  3.0067 -1.0587
  292MOL    H2041342   3.273   0.651   6.096  1.0949  0.9431  0.2701
  292MOL    H2141343   3.497   0.731   6.229  1.4873 -2.5947  0.3012
  292MOL    H2241344   3.587   0.597   6.004  2.0041 -0.4069 -0.9383
  292MOL    C2341345   3.450   0.855   6.063  0.1338  0.2653  0.4182
  292MOL    C2441346   3.362   0.947   6.154  0.0069 -0.4156  0.5754
  292MOL    O2541347   3.445   1.056   6.199 -0.6529  0.1686  0.2317
  292MOL    H2641348   3.544   0.906   6.042  1.1187 -1.6570  0.0414
  292MOL    H2741349   3.409   0.841   5.963 -0.6915 -1.5922  1.0086
  292MOL    H2841350   3.331   0.893   6.243  0.0309  2.8536  2.6551
  292MOL    H2941351   3.437   1.049   6.293 -1.8040 -2.6955 -0.0145
  292MOL    C3041352   3.239   1.009   6.084 -0.4547  0.3588  0.6637
  292MOL    C3141353   3.119   0.911   6.075 -0.3277 -1.1077  0.2429
  292MOL    O3241354   3.083   0.865   6.205  0.2226 -0.1590 -0.2948
  292MOL    H3341355   3.211   1.098   6.141 -0.5328  1.0484 -0.4420
  292MOL    H3441356   3.265   1.047   5.985 -1.1865  0.2520  0.4309
  292MOL    H3541357   3.146   0.822   6.018 -3.1793 -1.1498 -1.1473
  292MOL    H3641358   3.139   0.917   6.261  1.8547 -2.0004 -0.1630
  292MOL    C3741359   2.991   0.963   6.002 -0.2013  0.2840 -0.2449
  292MOL    C3841360   2.941   1.106   6.045 -0.1899  0.3526 -0.9369
  292MOL    O3941361   3.024   1.198   5.976  0.1374 -0.1501  0.2130
  292MOL    H4041362   3.017   0.966   5.896  0.8697 -1.2421 -0.0514
  292MOL    H4141363   2.911   0.889   6.006  1.1126 -1.4994 -4.0913
  292MOL    H4241364   2.955   1.128   6.151 -0.4473  1.6013 -1.1534
  292MOL    H4341365   3.038   1.272   6.034 -1.5291 -1.9343  2.9635
  292MOL    C4441366   2.798   1.130   6.005 -0.1521  0.1361  0.4033
  292MOL    C4541367   2.690   1.063   6.104  0.4901  0.0733  1.2995
  292MOL    O4641368   2.699   1.134   6.223  0.2652  0.5725  0.1287
  292MOL    H4741369   2.762   1.233   6.001  1.3542  0.6216 -1.3660
  292MOL    H4841370   2.781   1.105   5.900  0.5530  0.9973  0.0756
  292MOL    H4941371   2.719   0.960   6.127  1.8684  0.1664  0.0458
  292MOL    H5041372   2.762   1.100   6.284  0.3644  0.6778  0.0855
  292MOL    C5141373   2.554   1.062   6.051  0.6611  0.2596 -0.0618
  292MOL    C5241374   2.536   0.986   5.915  0.1588 -0.3937 -0.1827
  292MOL    O5341375   2.574   0.846   5.936  0.6412 -0.2484  0.6271
  292MOL    H5441376   2.496   1.018   6.132  0.9003  0.2741  0.1143
  292MOL    H5541377   2.520   1.165   6.041  2.3491  0.8115 -0.2602
  292MOL    H5641378   2.588   1.036   5.834  0.0665 -2.7083 -1.7136
  292MOL    H5741379   2.530   0.817   6.014  0.6496 -1.5825  0.1534
  292MOL    C5841380   2.388   0.975   5.871 -1.0016 -0.0129 -1.1307
  292MOL    C5941381   2.316   1.102   5.823 -0.0223 -0.2108  0.8649
  292MOL    O6041382   2.368   1.148   5.703 -0.1797 -0.2013  0.2245
  292MOL    H6141383   2.371   0.904   5.791 -2.2745  2.8734 -3.5151
  292MOL    H6241384   2.342   0.933   5.961  1.3034  3.7599  2.0044
  292MOL    H6341385   2.325   1.176   5.902  1.6495 -1.0957  1.5316
  292MOL    H6441386   2.333   1.234   5.688 -0.2199 -0.5410 -1.7665
  292MOL    C6541387   2.164   1.079   5.787  0.1715  0.4846  0.0649
  292MOL    C6641388   2.077   1.063   5.914  0.2008  0.2519  0.3680
  292MOL    O6741389   2.042   1.191   5.961 -0.9115  0.3739 -0.3280
  292MOL    H6841390   2.127   1.171   5.741 -1.2695  1.1514  2.4289
  292MOL    H6941391   2.145   0.998   5.717 -1.2331  0.9989 -0.1713
  292MOL    H7041392   2.141   1.012   5.986  0.0967 -1.0985 -0.4865
  292MOL    H7141393   2.038   1.184   6.055 -0.9337 -0.2544 -0.3754
  292MOL    C7241394   1.946   0.982   5.902  0.4962  0.5400  0.3114
  292MOL    C7341395   1.987   0.833   5.856 -0.0767 -0.7765  0.1971
  292MOL    O7441396   2.109   0.781   5.910  0.4619 -0.2367 -0.1474
  292MOL    H7541397   1.889   0.973   5.994  1.8376  0.4218  1.1433
  292MOL    H7641398   1.879   1.024   5.826  1.5385 -2.5017 -2.4284
  292MOL    H7741399   1.996   0.824   5.748 -1.1839  0.6239 -0.0364
  292MOL    H7841400   2.098   0.760   6.001  1.1891 -1.5709 -0.3604
  292MOL    C7941401   1.866   0.746   5.895  0.6777  0.1827 -0.2165
  292MOL    C8041402   1.869   0.607   5.838 -0.2993 -0.3928  0.4831
  292MOL    O8141403   1.794   0.515   5.913 -0.0536 -0.6391  0.1353
  292MOL    H8241404   1.862   0.750   6.004 -0.8505 -0.0829 -0.2552
  292MOL    H8341405   1.782   0.804   5.857  1.7304  0.9509 -1.3950
  292MOL    H8441406   1.971   0.572   5.847  0.0809  0.7710  0.7411
  292MOL    H8541407   1.841   0.434   5.898 -0.3405 -0.8136  0.1863
  292MOL    C8641408   1.826   0.589   5.697  0.1473 -0.0299  0.2381
  292MOL    C8741409   1.803   0.443   5.650  0.2983 -0.4013 -0.3431
  292MOL    O8841410   1.733   0.466   5.521 -0.4877  0.1308 -0.4810
  292MOL    H8941411   1.732   0.643   5.697  0.6952  0.9499  1.7531
  292MOL    H9041412   1.895   0.640   5.630  0.8189 -1.6036 -0.3079
  292MOL    H9141413   1.734   0.401   5.724 -0.2598  1.1055  0.0007
  292MOL    H9241414   1.684   0.387   5.504  1.2395 -1.1397  0.2823
  292MOL    C9341415   1.921   0.341   5.629  0.1484 -0.6845 -0.3295
  292MOL    C9441416   2.020   0.314   5.739  0.2103  0.1078  0.1826
  292MOL    O9541417   1.943   0.289   5.855 -0.0161 -0.2084 -0.3868
  292MOL    H9641418   1.867   0.246   5.628 -1.2483  0.0939 -0.2420
  292MOL    H9741419   1.961   0.369   5.531 -1.7082  2.5643 -0.2399
  292MOL    H9841420   2.082   0.402   5.757  0.2515 -0.1671  1.3934
  292MOL    H9941421   2.007   0.261   5.918  1.2354 -1.1868 -2.0489
  292MOL   C10041422   2.126   0.208   5.714  0.5109  0.0821 -0.8430
  292MOL   C10141423   2.229   0.252   5.605 -0.2849  0.9884  0.5661
  292MOL   O10241424   2.334   0.313   5.675  0.0143 -0.2686 -0.3786
  292MOL   H10341425   2.179   0.184   5.807 -0.4390 -0.1631 -0.3597
  292MOL   H10441426   2.066   0.119   5.694 -1.4991  0.5513  2.5667
  292MOL   H10541427   2.184   0.324   5.536  0.6381 -0.8953 -2.0542
  292MOL   H10641428   2.307   0.403   5.689  0.9309  0.4422 -2.7801
  292MOL   C10741429   2.266   0.127   5.517 -0.4390  1.1737  0.0735
  292MOL   C10841430   2.330   0.169   5.382 -0.1570 -0.1219  0.2234
  292MOL   O10941431   2.387   0.054   5.315  0.1645  0.0784 -0.9313
  292MOL   H11041432   2.337   0.068   5.576 -0.8570  0.3350 -0.2465
  292MOL   H11141433   2.171   0.075   5.507 -0.3522  0.4997  2.3448
  292MOL   H11241434   2.423   0.222   5.403  0.3505 -0.7385 -0.4615
  292MOL   H11341435   2.402   7.502   5.375 -0.3665  1.3113  0.6949
  292MOL   C11441436   2.251   0.233   5.268 -0.7020 -0.2907 -0.0345
  292MOL   C11541437   2.326   0.294   5.150  0.5383  0.1545 -0.4229
  292MOL   O11641438   2.399   0.192   5.086 -0.1531  0.2650  0.1865
  292MOL   H11741439   2.175   0.163   5.234  1.3216 -3.1672  1.2207
  292MOL   H11841440   2.193   0.314   5.314  0.2141  0.8476 -0.8614
  292MOL   H11941441   2.408   0.354   5.190 -0.7973  1.0387  1.0338
  292MOL   H12041442   2.410   0.126   5.153  1.1438  1.2273  0.9422
  292MOL   C12141443   2.249   0.377   5.047  0.1615 -0.6379 -0.1064
  292MOL   C12241444   2.172   0.304   4.936  0.1643  0.6498 -0.1389
  292MOL   O12341445   2.075   0.397   4.894 -0.6284  0.0633  0.0905
  292MOL   H12441446   2.164   0.421   5.100  0.4386 -0.2972  0.0602
  292MOL   H12541447   2.316   0.451   5.004 -1.1195  0.2362 -0.6510
  292MOL   H12641448   2.117   0.223   4.985  0.1841  2.4898  3.0873
  292MOL   H12741449   1.996   0.356   4.862 -0.5513  0.0532 -0.0872
  292MOL   C12841450   2.249   0.252   4.811 -0.3889  0.8277 -0.6777
  292MOL   C12941451   2.174   0.157   4.711  0.2893  0.2774 -0.1469
  292MOL   O13041452   2.276   0.103   4.627  0.2227  0.1342  0.0654
  292MOL   H13141453   2.284   0.340   4.758 -1.6117  0.9949 -1.2250
  292MOL   H13241454   2.338   0.200   4.847  1.0857  1.7326 -2.9121
  292MOL   H13341455   2.107   0.214   4.647  0.4189  0.5618 -0.0305
  292MOL   H13441456   2.345   0.056   4.670 -1.1525 -3.2472 -1.2878
  292MOL   C13541457   2.087   0.043   4.775 -0.0143 -0.2558  0.1573
  292MOL   C13641458   2.173   7.470   4.859  0.1668  0.2318  0.3127
  292MOL   O13741459   2.089   7.386   4.931 -0.3983  0.9179  0.3095
  292MOL   H13841460   2.010   0.089   4.837 -0.1680  0.5394 -0.6077
  292MOL   H13941461   2.035   7.512   4.693 -0.8442  1.1331 -0.1950
  292MOL   H14041462   2.227   0.001   4.939  0.4682  1.0749 -0.4115
  292MOL   H14141463   2.144   7.320   4.971 -0.6990  0.1216 -0.5806
  292MOL   H14241464   2.248   7.412   4.805 -1.2001 -2.4975  1.2268
  293MOL     C141465   6.645   1.075   1.374  0.2877 -0.4703  0.1689
  293MOL     C241466   6.499   1.101   1.441 -0.0555 -0.1820  0.0999
  293MOL     O341467   6.448   1.209   1.364 -0.5149 -0.2881 -0.0899
  293MOL     H441468   6.691   0.990   1.426  1.0738  1.2395  2.3280
  293MOL     H541469   6.697   1.170   1.384  0.8117 -0.8201  0.8602
  293MOL     H641470   6.516   1.136   1.542 -1.1098  0.8814 -0.0920
  293MOL     H741471   6.364   1.236   1.397  0.0647  0.5274  0.7284
  293MOL     H841472   6.639   1.054   1.267  2.0577  3.1370 -0.7255
  293MOL     C941473   6.407   0.971   1.434 -0.5938 -0.3664 -0.3269
  293MOL    C1041474   6.383   0.906   1.577  0.6486  0.3612 -0.4868
  293MOL    O1141475   6.256   0.842   1.578 -0.6654 -0.3582 -0.4048
  293MOL    H1241476   6.312   1.007   1.396  0.3857  1.2977 -1.2876
  293MOL    H1341477   6.433   0.897   1.358  2.4764  0.1485  0.1232
  293MOL    H1441478   6.373   0.982   1.655 -0.9803  1.4599 -1.7276
  293MOL    H1541479   6.203   0.893   1.637  0.6718 -1.1258  1.5149
  293MOL    C1641480   6.487   0.794   1.599 -0.1465 -0.9288 -0.6456
  293MOL    C1741481   6.502   0.768   1.747  0.4505 -0.2025 -0.0689
  293MOL    O1841482   6.581   0.650   1.761  0.4079 -0.6398 -0.2365
  293MOL    H1941483   6.457   0.702   1.550  0.0119 -1.3141 -0.0224
  293MOL    H2041484   6.588   0.813   1.560  0.0156 -0.0316  0.1983
  293MOL    H2141485   6.405   0.761   1.796  0.6451 -0.2421  0.3116
  293MOL    H2241486   6.528   0.582   1.720  0.9264 -1.0633 -0.2131
  293MOL    C2341487   6.570   0.883   1.825 -0.0829 -0.2318  0.0905
  293MOL    C2441488   6.542   0.890   1.978  0.9675  0.7275  0.4462
  293MOL    O2541489   6.649   0.952   2.053  0.3241  0.2691 -0.0826
  293MOL    H2641490   6.676   0.859   1.815  0.2390  1.2061 -0.0713
  293MOL    H2741491   6.569   0.983   1.782 -1.2930 -0.8041 -1.2503
  293MOL    H2841492   6.533   0.787   2.011 -1.0409  0.5277 -0.6360
  293MOL    H2941493   6.646   1.045   2.037  2.1710  0.1995 -1.0258
  293MOL    C3041494   6.413   0.969   2.004 -0.1606  0.3545 -0.0948
  293MOL    C3141495   6.308   0.894   2.091  0.4742 -0.2770 -0.1741
  293MOL    O3241496   6.221   0.992   2.148 -0.0721 -0.1251 -0.1568
  293MOL    H3341497   6.432   1.068   2.046 -3.0505 -0.5627  3.6144
  293MOL    H3441498   6.367   1.001   1.910 -1.4385 -0.7878  0.1256
  293MOL    H3541499   6.359   0.842   2.172 -0.7048 -1.4716 -0.1699
  293MOL    H3641500   6.133   0.974   2.119 -0.0545 -0.0021 -0.2901
  293MOL    C3741501   6.215   0.791   2.009  0.0506  0.0592  0.2392
  293MOL    C3841502   6.130   0.688   2.090 -0.4018  0.1905 -0.5317
  293MOL    O3941503   6.039   0.752   2.179 -0.0447 -0.2563 -0.3897
  293MOL    H4041504   6.145   0.839   1.941 -0.7453 -0.7853  0.4425
  293MOL    H4141505   6.286   0.737   1.946  0.8618 -0.4980  1.6105
  293MOL    H4241506   6.196   0.634   2.158 -0.4959  0.3754 -0.2894
  293MOL    H4341507   5.983   0.799   2.120  1.4093  1.7220 -0.2484
  293MOL    C4441508   6.057   0.594   1.996  0.5687  0.0729  0.1960
  293MOL    C4541509   6.135   0.508   1.888 -0.3392  0.0634 -0.3111
  293MOL    O4641510   6.222   0.413   1.942 -0.3019 -0.3415  0.0897
  293MOL    H4741511   6.004   0.524   2.060 -1.8983  1.0898 -0.6666
  293MOL    H4841512   5.985   0.659   1.946 -0.4147 -1.3680 -0.2797
  293MOL    H4941513   6.188   0.580   1.825 -2.4143 -0.9465 -3.3047
  293MOL    H5041514   6.308   0.453   1.941 -0.5718  0.2167 -0.4458
  293MOL    C5141515   6.042   0.441   1.787  0.7332 -0.3785 -0.2646
  293MOL    C5241516   5.944   0.534   1.716 -0.4362  0.6067  0.0233
  293MOL    O5341517   5.997   0.653   1.661 -0.8545  0.0679  0.3811
  293MOL    H5441518   6.096   0.379   1.715  1.7497 -2.5926  2.3041
  293MOL    H5541519   5.972   0.373   1.837 -0.3691  0.3691 -0.7884
  293MOL    H5641520   5.874   0.570   1.791 -0.7985 -0.6985  0.3190
  293MOL    H5741521   5.956   0.668   1.577 -1.7345 -1.9369  0.4218
  293MOL    C5841522   5.854   0.460   1.615  0.4622  0.1400 -0.3370
  293MOL    C5941523   5.769   0.338   1.671 -0.4670  0.1288  0.2214
  293MOL    O6041524   5.674   0.373   1.779  0.1236 -0.2143 -0.3717
  293MOL    H6141525   5.792   0.542   1.579 -1.3015  0.8718  4.1253
  293MOL    H6241526   5.926   0.422   1.542  0.5843 -1.1188  0.4349
  293MOL    H6341527   5.840   0.263   1.703  0.6482  0.7052 -0.8617
  293MOL    H6441528   5.719   0.392   1.860  0.9078 -2.6558 -0.1947
  293MOL    C6541529   5.676   0.281   1.563 -0.2835  0.1400  0.5990
  293MOL    C6641530   5.746   0.210   1.450  0.6116 -0.1758  0.2038
  293MOL    O6741531   5.823   0.108   1.506 -0.1387 -0.7229 -0.6363
  293MOL    H6841532   5.598   0.223   1.613  0.3923 -3.3599 -2.2128
  293MOL    H6941533   5.618   0.367   1.530  0.4220  0.8225  1.1184
  293MOL    H7041534   5.817   0.274   1.398  0.6226  1.4968  2.1955
  293MOL    H7141535   5.878   0.069   1.440  1.8014 -0.8940  1.0317
  293MOL    C7241536   5.649   0.144   1.351 -0.1345  0.1199  0.4801
  293MOL    C7341537   5.551   0.235   1.271 -0.1266  0.5392  0.1169
  293MOL    O7441538   5.626   0.330   1.198 -0.5255 -0.1150 -0.3191
  293MOL    H7541539   5.708   0.080   1.285  1.1862  1.1386  0.6641
  293MOL    H7641540   5.590   0.079   1.416  1.1982 -1.8249 -0.1857
  293MOL    H7741541   5.490   0.295   1.338 -0.0249 -0.0269  0.7262
  293MOL    H7841542   5.559   0.371   1.145 -2.4476  0.5049  2.4395
  293MOL    C7941543   5.459   0.164   1.179  1.3190  0.4520  0.5080
  293MOL    C8041544   5.346   0.248   1.125 -0.4634  0.4304 -0.3307
  293MOL    O8141545   5.393   0.330   1.012 -0.5860 -0.8952  0.6523
  293MOL    H8241546   5.511   0.112   1.099 -0.8871  0.4739 -0.9885
  293MOL    H8341547   5.421   0.076   1.230  1.3514  0.1367 -0.0116
  293MOL    H8441548   5.318   0.311   1.210 -0.2272  1.2021 -0.8246
  293MOL    H8541549   5.419   0.287   0.932 -0.0585  0.8345 -0.1298
  293MOL    C8641550   5.219   0.169   1.088 -0.9520  0.4030  0.1563
  293MOL    C8741551   5.165   0.073   1.194  0.1428  0.9250 -0.3228
  293MOL    O8841552   5.125   0.145   1.305 -0.3825  0.5489 -0.3795
  293MOL    H8941553   5.128   0.225   1.069 -1.4097 -0.8255 -1.4342
  293MOL    H9041554   5.247   0.111   0.999  0.1150 -1.8354  1.9100
  293MOL    H9141555   5.232   7.511   1.220 -0.0937  0.9698  0.4370
  293MOL    H9241556   5.106   0.081   1.371  0.5934  1.4639  0.8028
  293MOL    C9341557   5.032   0.007   1.150 -0.3648 -0.5661  0.2062
  293MOL    C9441558   5.049   7.403   1.055 -1.3008  0.1988 -0.1332
  293MOL    O9541559   5.051   7.286   1.131  0.4290  0.0985  0.8795
  293MOL    H9641560   4.978   7.495   1.240 -1.9741 -2.4672 -1.3756
  293MOL    H9741561   4.967   0.082   1.105  0.6870 -0.4768 -1.1603
  293MOL    H9841562   5.147   7.404   1.006 -1.2402 -0.1500 -0.0175
  293MOL    H9941563   5.103   7.229   1.077  0.2280  0.5566  0.2038
  293MOL   C10041564   4.946   7.376   0.946 -0.0289  0.3032 -0.1448
  293MOL   C10141565   4.973   7.437   0.807  0.2490 -0.2914  0.3495
  293MOL   O10241566   5.097   7.388   0.758  0.4550  0.3207 -0.1691
  293MOL   H10341567   4.952   7.269   0.928  0.5853  0.4510 -0.8671
  293MOL   H10441568   4.849   7.402   0.988  0.6172  0.1617  1.4739
  293MOL   H10541569   4.986   0.023   0.831 -2.3455  0.6111 -1.9601
  293MOL   H10641570   5.079   7.304   0.719 -0.8660  1.0197 -1.1150
  293MOL   C10741571   4.857   7.415   0.705  0.6253  0.2696  0.1323
  293MOL   C10841572   4.719   7.462   0.735  0.2131  0.5082  0.7819
  293MOL   O10941573   4.720   0.079   0.778 -0.0892  0.4999 -0.2087
  293MOL   H11041574   4.877   7.463   0.610 -1.2333 -0.8426 -0.8657
  293MOL   H11141575   4.857   7.307   0.688  0.2388  0.2271  0.3836
  293MOL   H11241576   4.693   7.413   0.829  1.0255 -0.9190  0.2748
  293MOL   H11341577   4.658   0.128   0.727 -1.3596  0.1202  0.9465
  293MOL   C11441578   4.623   7.452   0.614 -0.4828  0.8890  0.2868
  293MOL   C11541579   4.606   7.305   0.563 -0.8355 -0.0853  0.3099
  293MOL   O11641580   4.575   7.228   0.679  0.1926 -0.6493 -0.6487
  293MOL   H11741581   4.529   7.506   0.626 -0.5251  0.7263  0.6883
  293MOL   H11841582   4.669   7.494   0.525 -0.6449 -1.2508 -0.8509
  293MOL   H11941583   4.694   7.275   0.507  0.5440  1.4140  1.6145
  293MOL   H12041584   4.484   7.242   0.701  0.7716  1.7758  0.3772
  293MOL   C12141585   4.488   7.296   0.460 -0.8439 -0.2466  0.3643
  293MOL   C12241586   4.525   7.346   0.314 -0.2336  0.5631  0.1456
  293MOL   O12341587   4.569   7.234   0.233 -0.4515 -0.1122  0.0398
  293MOL   H12441588   4.470   7.190   0.447 -1.1095 -0.3874  1.7754
  293MOL   H12541589   4.391   7.330   0.496  0.1626  0.7473  2.2041
  293MOL   H12641590   4.610   7.415   0.316  0.8063 -0.7180  2.6386
  293MOL   H12741591   4.495   7.186   0.198 -1.9625  1.2660  1.2769
  293MOL   C12841592   4.404   7.400   0.243  0.0377 -0.2558  0.7487
  293MOL   C12941593   4.363   0.033   0.278 -0.2873  0.0950  0.4568
  293MOL   O13041594   4.302   0.042   0.402  0.0089  0.2762  0.0985
  293MOL   H13141595   4.425   7.391   0.136 -1.2572  0.9609  0.3795
  293MOL   H13241596   4.318   7.333   0.248 -1.2601  1.3479  0.2888
  293MOL   H13341597   4.278   0.055   0.214  0.1161 -0.1355 -0.1666
  293MOL   H13441598   4.246   7.485   0.402 -1.1406  1.1115  0.3791
  293MOL   C13541599   4.469   0.145   0.260  0.0029  0.6927  0.3034
  293MOL   C13641600   4.559   0.129   0.131 -0.1148  0.8396  0.9033
  293MOL   O13741601   4.633   0.244   0.112  0.0739  0.2809 -0.3545
  293MOL   H13841602   4.432   0.248   0.257  0.3329  0.8161  0.4227
  293MOL   H13941603   4.535   0.144   0.346  0.8928  0.6426 -0.3663
  293MOL   H14041604   4.495   0.105   0.046 -1.4054 -0.0434  2.1206
  293MOL   H14141605   4.715   0.232   0.157  2.0277  2.3406 -3.1460
  293MOL   H14241606   4.618   0.038   0.146 -0.4170  0.4492 -0.2162
  294MOL     C141607   5.258   6.294   1.148 -0.2045  0.3671 -0.4389
  294MOL     C241608   5.171   6.348   1.033 -0.0566  0.2378  0.3589
  294MOL     O341609   5.085   6.246   0.998  0.3546 -0.0462  0.0652
  294MOL     H441610   5.197   6.254   1.228  0.3485 -3.1798 -1.6782
  294MOL     H541611   5.323   6.364   1.201  0.7429  0.0340 -1.1477
  294MOL     H641612   5.233   6.368   0.946 -2.4831 -0.2358 -1.5359
  294MOL     H741613   5.124   6.187   0.935 -1.5054  0.0019 -1.1345
  294MOL     H841614   5.314   6.210   1.106  1.6155  1.8333 -1.0664
  294MOL     C941615   5.095   6.477   1.067 -0.0676  0.6278 -0.1751
  294MOL    C1041616   5.019   6.531   0.948 -0.1504  0.4114 -0.2441
  294MOL    O1141617   4.921   6.429   0.915  0.2043  0.8120  0.2123
  294MOL    H1241618   5.020   6.457   1.144  0.0846  1.8270  0.2933
  294MOL    H1341619   5.157   6.555   1.113  1.8607 -0.5182 -0.7904
  294MOL    H1441620   5.089   6.557   0.869  2.0113  3.0342  2.4124
  294MOL    H1541621   4.968   6.353   0.947 -0.9094  0.7767  1.8193
  294MOL    C1641622   4.948   6.662   0.983 -0.1021  0.3096  0.3700
  294MOL    C1741623   5.029   6.793   0.974  0.1296  0.1337 -0.3010
  294MOL    O1841624   5.073   6.827   0.846 -0.4447  0.1621  0.1753
  294MOL    H1941625   4.865   6.677   0.914 -0.8680 -2.6238  0.5947
  294MOL    H2041626   4.895   6.661   1.078  0.6309  1.2769  0.8081
  294MOL    H2141627   5.119   6.787   1.036 -1.2861  0.8377  1.8806
  294MOL    H2241628   5.147   6.770   0.831 -0.1265  0.5655  0.1884
  294MOL    C2341629   4.944   6.916   1.024  1.0273  0.5041 -0.3633
  294MOL    C2441630   4.973   6.948   1.173  0.8200  0.1605 -0.0113
  294MOL    O2541631   5.107   6.984   1.183  0.1119  0.0040  0.3612
  294MOL    H2641632   4.977   7.002   0.965 -0.5356  4.4449  4.1751
  294MOL    H2741633   4.838   6.898   1.006  1.5805 -0.5095 -2.8961
  294MOL    H2841634   4.948   6.865   1.239  2.5640 -2.4202 -2.4520
  294MOL    H2941635   5.120   6.978   1.276 -1.5584 -0.9130  0.5641
  294MOL    C3041636   4.880   7.062   1.214  0.1920 -0.0115  1.1812
  294MOL    C3141637   4.904   7.117   1.356 -0.4871  0.0912 -0.0682
  294MOL    O3241638   4.904   7.257   1.358  0.2918 -0.2804 -0.1171
  294MOL    H3341639   4.861   7.139   1.139  1.5144 -2.0023 -1.2274
  294MOL    H3441640   4.782   7.014   1.214 -0.1134  0.5973  1.8475
  294MOL    H3541641   5.006   7.092   1.385 -0.8076 -1.9491 -0.6821
  294MOL    H3641642   4.956   7.296   1.289 -0.9319  0.3156 -0.7203
  294MOL    C3741643   4.813   7.072   1.466  0.4510  0.6004 -1.2716
  294MOL    C3841644   4.845   6.935   1.531 -0.4752 -0.2280  0.2922
  294MOL    O3941645   4.874   6.948   1.667  0.5001  0.0690 -0.4212
  294MOL    H4041646   4.811   7.150   1.542 -2.7151 -1.5491  0.9495
  294MOL    H4141647   4.710   7.081   1.429  0.5631 -0.2389 -1.7876
  294MOL    H4241648   4.926   6.891   1.474  0.0349 -0.7047  1.3585
  294MOL    H4341649   4.882   6.857   1.691  3.3297  0.2203 -0.6423
  294MOL    C4441650   4.728   6.835   1.524  0.7904  0.4210  0.8922
  294MOL    C4541651   4.780   6.690   1.547  0.0203  0.1103  0.2693
  294MOL    O4641652   4.848   6.679   1.670  0.3125 -0.2264 -0.0481
  294MOL    H4741653   4.648   6.861   1.593 -2.4101 -2.4783 -1.5708
  294MOL    H4841654   4.696   6.855   1.422  0.2562 -1.7516  0.6215
  294MOL    H4941655   4.857   6.680   1.470 -0.1946  1.6883 -0.1906
  294MOL    H5041656   4.794   6.674   1.747  1.0662  2.6072  0.7060
  294MOL    C5141657   4.673   6.578   1.558 -0.4832 -0.0353  0.0516
  294MOL    C5241658   4.618   6.536   1.418 -0.0931  0.0927  0.3600
  294MOL    O5341659   4.578   6.400   1.429  0.0740 -0.0047 -0.0512
  294MOL    H5441660   4.714   6.490   1.608 -1.5996 -2.0422 -2.4307
  294MOL    H5541661   4.586   6.611   1.616 -1.6561 -1.8033 -0.6385
  294MOL    H5641662   4.691   6.522   1.338 -0.7606  1.1206 -0.4340
  294MOL    H5741663   4.490   6.398   1.465  0.3583  0.6146  0.6842
  294MOL    C5841664   4.489   6.614   1.384 -0.2924  0.4803  0.0824
  294MOL    C5941665   4.441   6.611   1.242  0.5958 -0.9125  0.0386
  294MOL    O6041666   4.327   6.696   1.242  0.6873 -0.3968  0.2110
  294MOL    H6141667   4.410   6.572   1.447 -2.3142 -1.6596 -3.7297
  294MOL    H6241668   4.509   6.718   1.412  0.2509  0.4939 -0.3425
  294MOL    H6341669   4.406   6.510   1.222  0.8432 -1.0838  0.4593
  294MOL    H6441670   4.325   6.751   1.319 -4.0075  0.6167 -0.4948
  294MOL    C6541671   4.540   6.661   1.129  0.7294  0.8419 -0.5073
  294MOL    C6641672   4.508   6.584   1.000 -0.0395  0.1205 -0.0460
  294MOL    O6741673   4.581   6.655   0.901  0.0016  0.0412  0.5637
  294MOL    H6841674   4.536   6.770   1.125  1.1775  1.0067  2.3737
  294MOL    H6941675   4.645   6.644   1.149  0.7711  0.5652 -0.9665
  294MOL    H7041676   4.400   6.584   0.984  0.0017 -1.1463 -0.3951
  294MOL    H7141677   4.538   6.738   0.889  0.6639  0.5496  1.6870
  294MOL    C7241678   4.566   6.446   1.002  0.2849  1.0333  0.1448
  294MOL    C7341679   4.486   6.339   0.919 -0.6342  0.3770  0.1939
  294MOL    O7441680   4.365   6.317   0.989  0.4661 -0.1890 -0.2655
  294MOL    H7541681   4.666   6.456   0.959 -0.6166  1.3206 -1.9787
  294MOL    H7641682   4.593   6.411   1.102  0.4804 -0.6196 -0.4570
  294MOL    H7741683   4.548   6.250   0.914  0.2500  1.0258 -0.7653
  294MOL    H7841684   4.371   6.240   1.043 -2.6287 -0.2716  0.0493
  294MOL    C7941685   4.451   6.380   0.773 -0.5611 -0.5098  0.3462
  294MOL    C8041686   4.568   6.423   0.686  0.2309  0.3010 -0.5278
  294MOL    O8141687   4.631   6.300   0.638  0.1444  0.1845  0.0611
  294MOL    H8241688   4.404   6.292   0.729  0.3648 -1.7212  1.7197
  294MOL    H8341689   4.368   6.450   0.778  0.7827  1.0620  1.0448
  294MOL    H8441690   4.640   6.479   0.745 -2.1362  2.4058  0.4367
  294MOL    H8541691   4.712   6.327   0.596 -0.2924  0.7793 -0.4123
  294MOL    C8641692   4.528   6.498   0.553  0.8342 -0.2597 -0.1900
  294MOL    C8741693   4.651   6.575   0.491 -0.1780 -0.3968  0.8630
  294MOL    O8841694   4.743   6.502   0.408  0.0913  0.1742  0.3805
  294MOL    H8941695   4.477   6.432   0.482  0.2372 -1.8129  1.6497
  294MOL    H9041696   4.452   6.572   0.576 -0.3347 -2.0850  2.0153
  294MOL    H9141697   4.720   6.602   0.570  1.6276 -0.2213 -0.7487
  294MOL    H9241698   4.826   6.492   0.451  0.2764  1.2169  0.2860
  294MOL    C9341699   4.605   6.697   0.396  0.3183 -0.6221  0.4733
  294MOL    C9441700   4.708   6.812   0.388  0.5475 -1.5561  0.2958
  294MOL    O9541701   4.670   6.893   0.278  0.4617 -0.6628 -0.1936
  294MOL    H9641702   4.571   6.655   0.302 -2.1290  0.5326  0.7956
  294MOL    H9741703   4.506   6.729   0.430 -0.4223 -1.2312 -1.0823
  294MOL    H9841704   4.807   6.767   0.378  0.6075 -1.1829 -0.7812
  294MOL    H9941705   4.677   6.852   0.193  1.9033  0.7678 -0.7949
  294MOL   C10041706   4.699   6.896   0.519  0.1394 -0.1739 -0.1197
  294MOL   C10141707   4.809   7.006   0.536 -0.5023 -1.0172 -0.2569
  294MOL   O10241708   4.786   7.059   0.661  0.6404  0.5787 -0.1414
  294MOL   H10341709   4.605   6.949   0.529  1.7719  2.3126  2.7093
  294MOL   H10441710   4.707   6.822   0.598 -1.2754 -0.1052  0.0950
  294MOL   H10541711   4.793   7.080   0.457  0.4770  0.0681  0.5467
  294MOL   H10641712   4.711   7.116   0.660 -0.2651 -0.5738 -1.9534
  294MOL   C10741713   4.951   6.968   0.509  0.1452  0.0857  0.5559
  294MOL   C10841714   5.048   7.093   0.509 -0.2222  0.6959  0.2328
  294MOL   O10941715   5.064   7.137   0.642  0.1001  0.1027 -0.4599
  294MOL   H11041716   4.987   6.900   0.586  1.4829  1.1322  0.8673
  294MOL   H11141717   4.951   6.918   0.412  0.6537  0.2894  0.4483
  294MOL   H11241718   5.008   7.188   0.473 -0.2729  1.0994  1.3153
  294MOL   H11341719   5.028   7.075   0.703 -1.6572  1.8872  0.3758
  294MOL   C11441720   5.188   7.046   0.457  0.3576 -0.8006 -0.0494
  294MOL   C11541721   5.292   7.158   0.459 -0.0093 -0.6384 -0.6341
  294MOL   O11641722   5.422   7.105   0.459 -0.2432  0.2917  0.3884
  294MOL   H11741723   5.232   6.963   0.511 -0.6694 -0.8878  0.6708
  294MOL   H11841724   5.182   7.001   0.358  0.8477  0.8634 -0.8600
  294MOL   H11941725   5.284   7.212   0.554  0.3804 -2.1722  0.2747
  294MOL   H12041726   5.441   7.069   0.544  0.6600  0.3137  0.1949
  294MOL   C12141727   5.282   7.259   0.337 -0.1830  0.2858 -0.3910
  294MOL   C12241728   5.358   7.391   0.354  0.3307 -0.8920 -0.6875
  294MOL   O12341729   5.375   7.457   0.226 -0.1115 -0.2182 -0.3775
  294MOL   H12441730   5.317   7.205   0.249 -2.0591 -2.7839  0.6869
  294MOL   H12541731   5.177   7.275   0.310 -0.3894 -1.9389 -0.9723
  294MOL   H12641732   5.458   7.372   0.395  0.2376 -0.2824 -0.1540
  294MOL   H12741733   5.461   7.439   0.192 -1.0117 -3.9733 -0.9681
  294MOL   C12841734   5.285   7.485   0.453 -0.2127 -0.4825 -0.3139
  294MOL   C12941735   5.134   7.509   0.447  0.7559 -0.3735  0.2245
  294MOL   O13041736   5.090   0.047   0.565 -0.1025  0.0245  0.0938
  294MOL   H13141737   5.290   7.437   0.550 -2.5552 -0.6205 -0.2177
  294MOL   H13241738   5.345   0.056   0.447  1.5839 -1.7114 -1.4721
  294MOL   H13341739   5.079   7.414   0.448 -2.4450  1.4043  1.7215
  294MOL   H13441740   5.089   7.502   0.634 -0.2805  0.0163  0.0858
  294MOL   C13541741   5.096   0.087   0.329  0.0399 -0.7238  0.3117
  294MOL   C13641742   4.949   0.101   0.301 -0.2160  0.5565  0.6498
  294MOL   O13741743   4.915   0.186   0.191 -0.3766 -0.4303 -0.0953
  294MOL   H13841744   5.138   0.183   0.357  1.3190 -1.3621  0.6397
  294MOL   H13941745   5.135   0.051   0.234 -1.9207  1.0074 -1.1805
  294MOL   H14041746   4.895   0.152   0.381  0.6395  0.9760  0.9604
  294MOL   H14141747   4.928   0.274   0.225  0.3542 -0.4243 -0.3776
  294MOL   H14241748   4.916   0.005   0.260  0.5322  0.5291  0.0875
  295MOL     C141749   0.617   2.208   0.281  0.3582 -0.5719 -0.3863
  295MOL     C241750   0.498   2.196   0.188 -0.0228 -0.1510 -0.1162
  295MOL     O341751   0.537   2.100   0.080 -0.0652 -0.2292 -0.2033
  295MOL     H441752   0.581   2.276   0.358 -3.7848 -0.5179 -2.2376
  295MOL     H541753   0.691   2.263   0.223  2.1591 -0.9939  1.4490
  295MOL     H641754   0.475   2.291   0.140  0.2308  0.6931  1.4007
  295MOL     H741755   0.526   2.142   7.516 -0.3894 -0.4008 -0.2473
  295MOL     H841756   0.659   2.111   0.308  0.1496 -0.2305  1.1984
  295MOL     C941757   0.366   2.145   0.259 -0.0433 -0.0156 -0.3273
  295MOL    C1041758   0.245   2.173   0.172 -0.1284  0.2862  0.2445
  295MOL    O1141759   0.136   2.090   0.212 -0.6288  0.0506  0.0423
  295MOL    H1241760   0.365   2.037   0.275  1.8564  0.1639  1.2087
  295MOL    H1341761   0.359   2.189   0.358 -2.1871 -0.2219 -0.3536
  295MOL    H1441762   0.271   2.137   0.072  0.6159 -1.4797  1.0474
  295MOL    H1541763   0.149   2.001   0.182 -3.3311 -0.8638  1.3863
  295MOL    C1641764   0.203   2.323   0.186  0.2878 -0.3728  0.2632
  295MOL    C1741765   0.086   2.370   0.085 -0.3312 -0.3619 -0.0831
  295MOL    O1841766   0.046   2.507   0.098 -0.3736  0.0236  0.1522
  295MOL    H1941767   0.168   2.339   0.288 -0.2598  1.1249 -0.1452
  295MOL    H2041768   0.294   2.382   0.181 -0.9062  1.7577  2.7901
  295MOL    H2141769   7.515   2.313   0.106 -1.2652 -0.1248 -3.3249
  295MOL    H2241770   7.484   2.512   0.051  0.4432 -0.9042 -1.3903
  295MOL    C2341771   0.135   2.347   7.460 -0.1325  0.2062 -0.7260
  295MOL    C2441772   0.222   2.455   7.393  0.1873 -0.0885  0.3078
  295MOL    O2541773   0.354   2.404   7.411 -0.0765  0.0313 -0.3664
  295MOL    H2641774   0.183   2.250   7.448 -0.5752 -0.2462  0.9984
  295MOL    H2741775   0.041   2.343   7.404 -1.4291  1.1982  1.3129
  295MOL    H2841776   0.205   2.550   7.442  0.1779  0.0877 -0.0315
  295MOL    H2941777   0.397   2.458   7.476 -3.3749  0.3682  1.6250
  295MOL    C3041778   0.197   2.475   7.237  0.1487 -0.2048 -0.5384
  295MOL    C3141779   0.286   2.582   7.177 -0.4132 -0.9956 -0.0604
  295MOL    O3241780   0.270   2.569   7.042  0.2282 -0.0428  0.1692
  295MOL    H3341781   0.209   2.374   7.196  1.0183 -0.3279  0.0138
  295MOL    H3441782   0.095   2.508   7.214 -0.8693 -2.1065  1.1205
  295MOL    H3541783   0.391   2.570   7.206  0.0197 -0.0549 -1.1753
  295MOL    H3641784   0.304   2.486   7.013  2.8040  0.9727  0.1215
  295MOL    C3741785   0.253   2.732   7.210 -0.0367  0.2759 -0.5261
  295MOL    C3841786   0.350   2.845   7.180  0.1059  0.2096 -0.5088
  295MOL    O3941787   0.282   2.971   7.196 -0.2755  0.2794 -0.5427
  295MOL    H4041788   0.154   2.750   7.168  0.1498 -0.7419 -1.4164
  295MOL    H4141789   0.231   2.734   7.317  3.7064  0.5848  0.2962
  295MOL    H4241790   0.371   2.841   7.073  0.9309  0.1452 -0.3431
  295MOL    H4341791   0.232   2.983   7.117 -1.1437  4.2780  0.5126
  295MOL    C4441792   0.465   2.841   7.277  0.8866  0.3789 -0.5458
  295MOL    C4541793   0.590   2.913   7.225  0.0353  0.1881 -0.1590
  295MOL    O4641794   0.673   2.933   7.343  0.2663  0.0740  0.5512
  295MOL    H4741795   0.427   2.889   7.367 -2.3622 -0.2806 -1.4973
  295MOL    H4841796   0.486   2.737   7.306  2.2803  0.7674 -0.0969
  295MOL    H4941797   0.565   3.007   7.175 -1.2098  0.7561  1.4992
  295MOL    H5041798   0.716   2.850   7.360 -0.6191 -0.0592  2.2653
  295MOL    C5141799   0.679   2.831   7.122  0.1583 -0.3511  0.2393
  295MOL    C5241800   0.771   2.918   7.036 -0.4403 -0.1383 -0.2453
  295MOL    O5341801   0.845   2.826   6.970 -0.2433  0.3822  0.1313
  295MOL    H5441802   0.739   2.757   7.174 -0.2448 -0.6940  0.2193
  295MOL    H5541803   0.614   2.781   7.050 -0.8270  2.2758 -0.7589
  295MOL    H5641804   0.840   2.970   7.102 -0.8995  1.2077 -0.8110
  295MOL    H5741805   0.794   2.752   6.942  0.5629 -0.2303  0.2542
  295MOL    C5841806   0.695   3.010   6.941 -0.4139 -0.1286  0.0932
  295MOL    C5941807   0.761   3.082   6.812  0.2201  0.0845 -0.1170
  295MOL    O6041808   0.668   3.188   6.768  0.1411  0.2381 -0.1842
  295MOL    H6141809   0.610   2.957   6.897  0.8816 -0.1889 -2.4079
  295MOL    H6241810   0.643   3.085   7.001  2.5180  1.8274  0.2517
  295MOL    H6341811   0.777   3.007   6.734 -1.0056 -0.6353  0.3130
  295MOL    H6441812   0.582   3.152   6.750  0.4411 -0.4811 -0.2065
  295MOL    C6541813   0.905   3.155   6.835  0.6135 -0.1118 -0.0693
  295MOL    C6641814   1.020   3.068   6.790  0.0293  0.0261  0.5491
  295MOL    O6741815   1.004   3.009   6.657 -0.0076  0.6392  0.1376
  295MOL    H6841816   0.898   3.245   6.774 -1.2316  1.0076  1.7063
  295MOL    H6941817   0.918   3.190   6.938 -0.4784 -2.0216  0.7529
  295MOL    H7041818   1.020   2.983   6.858  0.3910 -0.5484 -0.1649
  295MOL    H7141819   1.061   2.934   6.648  1.3853  1.4940  1.5980
  295MOL    C7241820   1.153   3.151   6.793 -0.0306 -0.3562 -0.3832
  295MOL    C7341821   1.197   3.212   6.929 -0.4303 -0.1757 -0.0882
  295MOL    O7441822   1.200   3.106   7.021  0.5176  0.1347  0.0359
  295MOL    H7541823   1.234   3.088   6.756  1.9751  0.2914  2.7267
  295MOL    H7641824   1.145   3.238   6.728  1.2705 -0.7604 -1.1023
  295MOL    H7741825   1.123   3.287   6.958 -0.0562  1.2982 -2.7885
  295MOL    H7841826   1.261   3.044   6.984 -0.2618 -0.5947 -0.0397
  295MOL    C7941827   1.337   3.281   6.925  0.2889 -0.2425 -0.1471
  295MOL    C8041828   1.333   3.437   6.946  1.0422  1.0820  0.0354
  295MOL    O8141829   1.459   3.471   7.001 -0.1567  0.4658 -0.3521
  295MOL    H8241830   1.386   3.241   7.013 -0.5786  1.1778  0.9989
  295MOL    H8341831   1.402   3.259   6.840  0.6773 -1.9353  0.5671
  295MOL    H8441832   1.257   3.458   7.021  1.1358  1.0347  0.1431
  295MOL    H8541833   1.479   3.414   7.074  0.7740 -0.3714 -1.2513
  295MOL    C8641834   1.305   3.522   6.817 -0.6237 -0.4084 -0.2138
  295MOL    C8741835   1.296   3.668   6.856 -0.1048  0.7795  0.2716
  295MOL    O8841836   1.425   3.709   6.869  0.3194 -0.5167 -0.4729
  295MOL    H8941837   1.385   3.496   6.747  0.6160 -2.2294  1.8221
  295MOL    H9041838   1.213   3.496   6.765  0.2274  0.3848 -2.1851
  295MOL    H9141839   1.248   3.679   6.953  0.1328 -1.7088  0.7063
  295MOL    H9241840   1.465   3.642   6.922  0.3852 -0.9222 -1.0252
  295MOL    C9341841   1.214   3.749   6.748 -0.5373  0.9112 -0.1980
  295MOL    C9441842   1.188   3.902   6.779  0.1745  0.6527 -0.0418
  295MOL    O9541843   1.316   3.960   6.804  0.1495 -0.2663 -0.1347
  295MOL    H9641844   1.258   3.737   6.649 -1.6467  0.9213 -0.6962
  295MOL    H9741845   1.117   3.703   6.731 -0.1195 -0.3681  0.7939
  295MOL    H9841846   1.126   3.917   6.868 -0.5120  2.1852 -0.7634
  295MOL    H9941847   1.356   3.910   6.874 -3.2026 -1.0326  1.2971
  295MOL   C10041848   1.117   3.985   6.669  0.1619  0.2211 -0.6579
  295MOL   C10141849   0.973   3.945   6.632 -0.1765  0.0179 -0.0178
  295MOL   O10241850   0.905   3.999   6.743  0.1768  0.2084  0.4489
  295MOL   H10341851   1.130   4.092   6.678 -1.4031  0.4566 -0.9633
  295MOL   H10441852   1.167   3.967   6.574 -1.1767 -4.3339 -0.6513
  295MOL   H10541853   0.962   3.836   6.640 -0.4177  0.0279 -0.2156
  295MOL   H10641854   0.813   3.999   6.722  0.3933 -0.1274 -0.5700
  295MOL   C10741855   0.917   4.015   6.505  0.2727  0.5808  0.3003
  295MOL   C10841856   0.930   3.922   6.384  0.4251 -0.4743  0.1918
  295MOL   O10941857   0.858   3.804   6.414  0.4561  0.8857  0.6426
  295MOL   H11041858   0.815   4.052   6.509  0.0628  0.0896 -0.4581
  295MOL   H11141859   0.974   4.107   6.489  0.3374  0.3370 -0.9172
  295MOL   H11241860   1.034   3.894   6.364  0.5924  0.9392 -1.0668
  295MOL   H11341861   0.871   3.736   6.350  0.5289 -0.0769  1.6626
  295MOL   C11441862   0.880   3.999   6.255 -0.0281  0.0729 -0.1447
  295MOL   C11541863   0.905   3.925   6.126  0.3709  0.2888 -0.5254
  295MOL   O11641864   0.811   3.822   6.095 -0.1917 -0.5828  0.5403
  295MOL   H11741865   0.773   4.020   6.253 -0.3519 -1.6130 -1.4422
  295MOL   H11841866   0.923   4.098   6.268 -1.9114  0.9248 -0.2116
  295MOL   H11941867   1.004   3.880   6.134  0.6240  0.6738 -1.3760
  295MOL   H12041868   0.854   3.752   6.049  0.1256  0.2214 -0.3969
  295MOL   C12141869   0.901   4.010   5.997 -0.0121  0.1426 -0.5671
  295MOL   C12241870   0.980   4.143   6.009 -0.1715 -0.0255  0.2569
  295MOL   O12341871   1.071   4.147   5.902  0.2367  0.0436  0.1464
  295MOL   H12441872   0.930   3.952   5.910  0.4145 -1.3626  0.5673
  295MOL   H12541873   0.798   4.041   5.976  0.1072  0.0389 -1.2962
  295MOL   H12641874   1.042   4.147   6.099 -1.3488 -0.6635  1.1178
  295MOL   H12741875   1.127   4.224   5.904  1.5480 -0.8304 -1.0717
  295MOL   C12841876   0.890   4.263   5.988  0.3493  0.1731 -0.1575
  295MOL   C12941877   0.784   4.296   6.098 -0.2213  0.4349  0.7958
  295MOL   O13041878   0.831   4.316   6.234 -0.5498 -0.2316  0.0580
  295MOL   H13141879   0.958   4.348   5.977 -1.5434  1.7805  0.1585
  295MOL   H13241880   0.838   4.257   5.892  2.3677  1.6286 -1.4089
  295MOL   H13341881   0.714   4.213   6.103 -1.4092  1.3876  0.0877
  295MOL   H13441882   0.922   4.342   6.234  0.1941 -2.6775 -1.3224
  295MOL   C13541883   0.708   4.419   6.049  0.0579  0.4361 -0.1918
  295MOL   C13641884   0.587   4.456   6.133  0.1092  0.1285 -0.6542
  295MOL   O13741885   0.528   4.578   6.093 -0.5199  0.7973  0.0826
  295MOL   H13841886   0.776   4.503   6.037 -0.8930  0.9497 -2.3500
  295MOL   H13941887   0.667   4.401   5.949  0.6612 -0.4718 -0.2794
  295MOL   H14041888   0.612   4.473   6.238 -2.3458 -0.0093 -0.0250
  295MOL   H14141889   0.498   4.620   6.173  1.4852  0.5643  0.9772
  295MOL   H14241890   0.520   4.371   6.127  0.0382  0.0426  1.1805
  296MOL     C141891   3.081   6.439   0.794  0.4684  0.1835 -0.6126
  296MOL     C241892   3.166   6.369   0.901  0.6099  0.7551 -0.1979
  296MOL     O341893   3.098   6.393   1.026 -0.1560  1.3160 -0.4377
  296MOL     H441894   3.131   6.424   0.698 -3.0436 -4.5709 -1.8854
  296MOL     H541895   3.073   6.547   0.804  2.2039  0.4392 -1.8374
  296MOL     H641896   3.264   6.415   0.906  0.6105  0.6508  0.8406
  296MOL     H741897   3.097   6.485   1.046 -0.7575  1.2190 -0.0342
  296MOL     H841898   2.986   6.387   0.783  0.3241  0.2268  0.4059
  296MOL     C941899   3.181   6.216   0.874  0.0549 -0.6227 -0.8834
  296MOL    C1041900   3.248   6.137   0.987  0.2945 -0.1270  0.0657
  296MOL    O1141901   3.273   6.005   0.941 -0.4848 -0.0762  0.4144
  296MOL    H1241902   3.080   6.179   0.854 -0.4513  0.2857 -0.0688
  296MOL    H1341903   3.240   6.204   0.784  0.4499 -2.5869 -0.3915
  296MOL    H1441904   3.182   6.126   1.074 -0.9767 -0.8126 -0.9685
  296MOL    H1541905   3.191   5.958   0.938 -0.8824  0.6315  0.0174
  296MOL    C1641906   3.382   6.197   1.033  0.0011 -0.5488  0.2003
  296MOL    C1741907   3.491   6.219   0.926  0.3173 -0.3937 -0.0225
  296MOL    O1841908   3.476   6.345   0.853 -0.3929  0.6240 -0.2405
  296MOL    H1941909   3.371   6.288   1.092 -2.0071 -2.1058  2.3519
  296MOL    H2041910   3.422   6.122   1.102  1.5706  0.6349  0.5954
  296MOL    H2141911   3.473   6.139   0.854  1.5467 -2.6749  2.1330
  296MOL    H2241912   3.500   6.410   0.918 -2.5557 -1.0601  2.3706
  296MOL    C2341913   3.634   6.207   0.975 -1.0971  0.1915 -0.4381
  296MOL    C2441914   3.753   6.188   0.872  0.2580 -0.4315  0.4429
  296MOL    O2541915   3.865   6.158   0.947 -0.0217  0.1998  0.2531
  296MOL    H2641916   3.647   6.299   1.031  0.8340 -0.8934  0.9258
  296MOL    H2741917   3.647   6.129   1.050  1.9591 -0.8083 -1.9054
  296MOL    H2841918   3.767   6.287   0.827  0.2985 -0.5651  0.1598
  296MOL    H2941919   3.930   6.209   0.903 -1.0841  0.8868 -0.5545
  296MOL    C3041920   3.730   6.069   0.776 -0.2460  0.4453 -0.0736
  296MOL    C3141921   3.655   6.114   0.653  0.1455  1.3075 -0.0852
  296MOL    O3241922   3.753   6.184   0.577  0.0463 -0.5236 -0.0800
  296MOL    H3341923   3.826   6.031   0.739 -0.5423 -0.1740 -0.2129
  296MOL    H3441924   3.692   5.989   0.839 -0.1283  0.1178 -0.4172
  296MOL    H3541925   3.581   6.191   0.677 -1.7869 -0.6356  0.2798
  296MOL    H3641926   3.719   6.225   0.499 -1.7401 -0.1962  0.8348
  296MOL    C3741927   3.598   5.995   0.575  0.6458  0.5355  0.1242
  296MOL    C3841928   3.470   5.941   0.644  0.3158 -0.7008 -0.5906
  296MOL    O3941929   3.361   6.019   0.589 -0.5906 -0.4170 -0.4158
  296MOL    H4041930   3.583   6.018   0.469  0.0230  3.3011  0.7797
  296MOL    H4141931   3.676   5.919   0.581  1.8140  1.8661  2.7866
  296MOL    H4241932   3.478   5.944   0.753 -3.5215 -0.1891 -0.2266
  296MOL    H4341933   3.362   6.107   0.624  1.5952 -1.2803  1.8409
  296MOL    C4441934   3.431   5.805   0.595 -0.2342 -0.1796 -0.2825
  296MOL    C4541935   3.534   5.690   0.616 -0.5913  0.5226 -0.0331
  296MOL    O4641936   3.561   5.674   0.751  0.6149 -0.7761 -0.2547
  296MOL    H4741937   3.337   5.769   0.637  0.7193 -1.4317  0.8206
  296MOL    H4841938   3.411   5.817   0.489  1.4020 -2.0626 -0.8199
  296MOL    H4941939   3.629   5.726   0.576  0.3753 -0.7632  1.0641
  296MOL    H5041940   3.589   5.583   0.754  0.4914 -0.8063 -0.0175
  296MOL    C5141941   3.498   5.547   0.566 -0.2250 -0.2930  0.4558
  296MOL    C5241942   3.590   5.433   0.600 -0.7143 -0.1620  0.3419
  296MOL    O5341943   3.600   5.407   0.742 -0.1189 -0.5700  0.3202
  296MOL    H5441944   3.393   5.525   0.583  0.0737  0.2731  3.2835
  296MOL    H5541945   3.508   5.553   0.458  0.7967  1.2225  0.6087
  296MOL    H5641946   3.689   5.476   0.581 -1.3488  1.4818  0.6409
  296MOL    H5741947   3.657   5.332   0.742  0.7736  0.0871 -0.5020
  296MOL    C5841948   3.579   5.300   0.527  0.1902  0.8392 -0.4031
  296MOL    C5941949   3.695   5.191   0.533  0.0949  0.3146 -0.1129
  296MOL    O6041950   3.690   5.150   0.666 -0.2444 -0.4049 -0.3352
  296MOL    H6141951   3.489   5.253   0.565  0.5104  0.0248 -0.6280
  296MOL    H6241952   3.570   5.326   0.421 -0.2300 -0.1430 -0.6112
  296MOL    H6341953   3.793   5.235   0.514  1.3638 -0.8123  3.3822
  296MOL    H6441954   3.780   5.136   0.690 -0.0734 -1.3199 -1.4849
  296MOL    C6541955   3.671   5.075   0.441  1.0656 -0.4939  0.0278
  296MOL    C6641956   3.768   4.953   0.436 -1.0834  0.2267  1.1207
  296MOL    O6741957   3.710   4.856   0.352  0.3867 -0.0400  0.0755
  296MOL    H6841958   3.574   5.029   0.461  2.5654 -2.9039  2.1678
  296MOL    H6941959   3.657   5.115   0.341 -0.7209 -2.0863 -0.4058
  296MOL    H7041960   3.763   4.905   0.533  0.8391 -0.3772  0.9474
  296MOL    H7141961   3.673   4.793   0.412  1.4798  1.0291  1.9128
  296MOL    C7241962   3.919   4.987   0.403  0.0642 -0.2041  0.0736
  296MOL    C7341963   4.013   4.863   0.383  0.3949  0.1456 -0.1768
  296MOL    O7441964   4.142   4.912   0.341  0.3266 -0.3680  0.7440
  296MOL    H7541965   3.920   5.057   0.319  0.2219 -1.9213 -1.4038
  296MOL    H7641966   3.952   5.060   0.476 -1.7222  0.7760 -0.0673
  296MOL    H7741967   3.972   4.806   0.299 -3.5535  0.5252  1.3920
  296MOL    H7841968   4.185   4.839   0.299 -0.3555 -0.0395 -0.5500
  296MOL    C7941969   4.041   4.785   0.517  0.2712 -0.3947  0.3043
  296MOL    C8041970   4.111   4.648   0.507 -0.6741 -0.2357 -0.4063
  296MOL    O8141971   4.169   4.619   0.633  0.2728  0.1777 -0.3011
  296MOL    H8241972   4.106   4.855   0.569 -0.0300  0.4603 -0.4531
  296MOL    H8341973   3.949   4.782   0.576 -0.3536 -1.3675 -0.7181
  296MOL    H8441974   4.193   4.656   0.435 -0.0568  2.7836  0.5318
  296MOL    H8541975   4.256   4.655   0.635  0.6144 -0.6121 -0.7635
  296MOL    C8641976   4.018   4.536   0.466 -0.0520  0.2799 -0.2368
  296MOL    C8741977   3.957   4.533   0.327 -0.2565 -0.4408 -0.3793
  296MOL    O8841978   4.061   4.530   0.228  0.2102  0.3789 -0.1442
  296MOL    H8941979   4.083   4.448   0.469 -0.5756 -0.1458 -1.4012
  296MOL    H9041980   3.943   4.524   0.544  1.4358  0.6008  1.2762
  296MOL    H9141981   3.892   4.620   0.328  1.7879  1.1283  1.7148
  296MOL    H9241982   4.017   4.515   0.146  2.0628  1.3729 -1.3520
  296MOL    C9341983   3.863   4.421   0.305  0.0738 -0.2733  0.0155
  296MOL    C9441984   3.779   4.441   0.171 -0.3542 -0.2065  0.2171
  296MOL    O9541985   3.864   4.440   0.063 -0.0143 -0.3353  0.1902
  296MOL    H9641986   3.927   4.334   0.308  0.6779  0.1901  0.6224
  296MOL    H9741987   3.786   4.420   0.382 -1.5353  0.3509 -1.5304
  296MOL    H9841988   3.732   4.540   0.172 -2.5475 -1.2229  1.2854
  296MOL    H9941989   3.915   4.360   0.072 -1.0581 -0.7163  3.5180
  296MOL   C10041990   3.684   4.323   0.152 -0.5547 -0.1719 -0.1559
  296MOL   C10141991   3.554   4.355   0.083  0.4149 -0.2130  0.2306
  296MOL   O10241992   3.477   4.436   0.169 -0.9840  0.0571  0.0044
  296MOL   H10341993   3.733   4.242   0.098  0.5744  1.1162 -1.0655
  296MOL   H10441994   3.653   4.282   0.249 -1.0209  2.6628  0.9538
  296MOL   H10541995   3.496   4.263   0.073  2.0867 -1.4339  1.5256
  296MOL   H10641996   3.458   4.376   0.239  0.5403 -1.6677 -1.0179
  296MOL   C10741997   3.589   4.422   7.468  0.0038 -0.0013  0.2230
  296MOL   C10841998   3.471   4.450   7.374  0.0131  0.0512 -0.6781
  296MOL   O10941999   3.383   4.545   7.425  0.4342 -0.1881 -0.5826
  296MOL   H11042000   3.644   4.514   7.488  1.6835 -0.4704 -2.0535
  296MOL   H11142001   3.658   4.364   7.407 -0.3324  0.7905 -0.9082
  296MOL   H11242002   3.415   4.359   7.352 -0.4569  0.1812 -0.0535
  296MOL   H11342003   3.407   4.553   7.516  0.4620 -0.9606 -0.5171
  296MOL   C11442004   3.524   4.508   7.235 -0.2428 -0.1096 -0.7731
  296MOL   C11542005   3.581   4.403   7.136  0.0352  0.6027  0.3830
  296MOL   O11642006   3.486   4.308   7.084  0.1750 -0.0992  0.4932
  296MOL   H11742007   3.438   4.559   7.190 -2.3104 -1.1164  1.8868
  296MOL   H11842008   3.593   4.586   7.266  0.0726 -0.5269 -0.4287
  296MOL   H11942009   3.658   4.341   7.182  0.4922  1.0143  0.1808
  296MOL   H12042010   3.463   4.241   7.146  0.6784  0.2970  1.1195
  296MOL   C12142011   3.633   4.476   7.011 -0.2440  0.1478 -0.2990
  296MOL   C12242012   3.749   4.396   6.952  0.0582 -0.4277 -0.1072
  296MOL   O12342013   3.763   4.424   6.815  0.2892 -0.0729  0.8191
  296MOL   H12442014   3.547   4.486   6.945 -1.1328 -1.1969  0.6015
  296MOL   H12542015   3.663   4.579   7.029 -2.5693  0.3539  2.8730
  296MOL   H12642016   3.725   4.291   6.962 -1.7565 -0.3070 -2.8457
  296MOL   H12742017   3.676   4.451   6.788  0.9075 -0.1066 -1.2349
  296MOL   C12842018   3.885   4.435   7.028 -0.2712  0.2724  0.5467
  296MOL   C12942019   3.994   4.319   7.011  0.1794  1.0217 -0.7607
  296MOL   O13042020   4.130   4.369   7.018  0.8926  0.5515 -0.2629
  296MOL   H13142021   3.919   4.528   6.983  0.0622  0.7348  1.7452
  296MOL   H13242022   3.860   4.455   7.132 -1.0141  1.3217  0.1790
  296MOL   H13342023   3.973   4.263   6.920  0.2149  0.3804 -0.3773
  296MOL   H13442024   4.150   4.360   6.926 -0.5577 -2.0254 -0.3819
  296MOL   C13542025   3.999   4.217   7.130  0.6271 -0.0112  0.7166
  296MOL   C13642026   4.086   4.095   7.107  0.0518  0.8976 -0.0080
  296MOL   O13742027   4.030   3.981   7.162 -0.1535  0.4810 -0.7204
  296MOL   H13842028   4.024   4.273   7.220  0.4148 -0.0674  0.8113
  296MOL   H13942029   3.899   4.179   7.150  1.4153 -0.9767  2.9600
  296MOL   H14042030   4.190   4.111   7.132  0.3235 -0.2026 -0.4015
  296MOL   H14142031   4.104   3.923   7.168  0.1885  1.0257  0.5305
  296MOL   H14242032   4.095   4.077   7.000 -0.3981  1.0937 -0.0811
  297MOL     C142033   2.404   3.757   6.856 -0.0676 -0.2924 -0.2161
  297MOL     C242034   2.303   3.644   6.877 -0.3292 -0.4936 -0.2935
  297MOL     O342035   2.339   3.540   6.792 -0.2781  0.0653 -0.1742
  297MOL     H442036   2.369   3.836   6.922  0.5437 -0.7765  0.6953
  297MOL     H542037   2.401   3.796   6.754  2.8285  0.0981 -0.1730
  297MOL     H642038   2.196   3.666   6.874 -0.0688  1.4717  2.1370
  297MOL     H742039   2.260   3.490   6.781  0.1869 -0.5831 -0.5803
  297MOL     H842040   2.505   3.725   6.878 -0.5022 -0.9709  0.8345
  297MOL     C942041   2.323   3.605   7.025 -0.0964  0.1504 -0.2711
  297MOL    C1042042   2.229   3.485   7.058 -0.0765  0.5008 -0.5630
  297MOL    O1142043   2.294   3.395   7.150 -0.5245  1.6579  0.0114
  297MOL    H1242044   2.426   3.576   7.044 -0.3979 -1.6450 -1.2337
  297MOL    H1342045   2.309   3.685   7.097  0.8088 -1.7129  2.0289
  297MOL    H1442046   2.198   3.432   6.968 -0.7657 -0.1696  0.0585
  297MOL    H1542047   2.388   3.408   7.156 -0.5006  1.1208  1.0204
  297MOL    C1642048   2.097   3.523   7.140 -0.1988  0.1829  0.4196
  297MOL    C1742049   1.977   3.537   7.051  0.3171 -0.1232  0.3065
  297MOL    O1842050   1.941   3.422   6.976  0.4727  0.5569  0.4230
  297MOL    H1942051   2.088   3.455   7.225 -0.6944  2.2273  2.0725
  297MOL    H2042052   2.108   3.616   7.196  1.1153 -0.5427  1.4005
  297MOL    H2142053   2.004   3.607   6.972 -1.0669 -1.5043 -1.4219
  297MOL    H2242054   1.929   3.338   7.016  1.6214  0.8296  1.3651
  297MOL    C2342055   1.836   3.569   7.111 -0.2183 -0.4370 -0.3117
  297MOL    C2442056   1.824   3.700   7.193  0.0934 -0.5015 -0.4005
  297MOL    O2542057   1.829   3.811   7.104 -0.0992 -0.1942  0.2572
  297MOL    H2642058   1.758   3.569   7.035 -1.7375 -0.3952  1.2374
  297MOL    H2742059   1.807   3.483   7.171  1.0125 -0.7893 -0.2089
  297MOL    H2842060   1.902   3.697   7.269 -0.0599  0.7709 -0.1795
  297MOL    H2942061   1.785   3.793   7.023 -0.9715  0.7569  0.5090
  297MOL    C3042062   1.684   3.707   7.260  0.7972 -0.1790 -0.2424
  297MOL    C3142063   1.643   3.817   7.354  0.6778 -0.7519 -0.1608
  297MOL    O3242064   1.506   3.849   7.341 -0.0591 -1.0074 -0.1621
  297MOL    H3342065   1.613   3.706   7.178  0.7539  0.0464 -0.2070
  297MOL    H3442066   1.677   3.617   7.322 -0.6259  0.7167  0.9178
  297MOL    H3542067   1.699   3.906   7.327 -0.5000  0.7375  2.1163
  297MOL    H3642068   1.497   3.923   7.283  0.4544 -0.7332  0.1045
  297MOL    C3742069   1.662   3.776   7.502  0.0295 -0.1008  0.3175
  297MOL    C3842070   1.808   3.791   0.043 -0.4813  0.1380 -0.0412
  297MOL    O3942071   1.826   3.931   0.069 -0.9109 -0.1066 -0.2244
  297MOL    H4042072   1.595   3.839   0.042 -0.4001  0.8414 -1.1322
  297MOL    H4142073   1.625   3.676   0.003 -0.8350 -0.1475 -1.4146
  297MOL    H4242074   1.877   3.757   7.486 -1.6025 -3.9010  0.6550
  297MOL    H4342075   1.767   3.950   0.140 -0.2371  1.5256 -0.0767
  297MOL    C4442076   1.822   3.711   0.173 -0.4696  0.8205  0.1147
  297MOL    C4542077   1.958   3.639   0.194 -0.6470 -0.3317  0.1603
  297MOL    O4642078   1.995   3.549   0.089 -0.2289 -0.0178 -0.2298
  297MOL    H4742079   1.808   3.790   0.246  1.2128  0.9569  0.3222
  297MOL    H4842080   1.739   3.641   0.176  1.8170 -2.1021 -1.2557
  297MOL    H4942081   1.954   3.578   0.284 -0.0199 -1.1250 -0.3388
  297MOL    H5042082   2.068   3.501   0.122 -0.7845  0.4364  1.7195
  297MOL    C5142083   2.068   3.745   0.212  0.8211  0.8406 -0.1460
  297MOL    C5242084   2.070   3.814   0.348 -0.0417 -0.1242  0.4320
  297MOL    O5342085   2.125   3.734   0.450 -0.1593 -0.0432 -0.0494
  297MOL    H5442086   2.170   3.707   0.204  0.0010 -1.8269  1.7236
  297MOL    H5542087   2.070   3.819   0.132  1.6070  0.2739 -0.6596
  297MOL    H5642088   1.966   3.832   0.376 -0.0910  3.2180 -1.5859
  297MOL    H5742089   2.133   3.792   0.524 -1.0625  0.6773 -0.5008
  297MOL    C5842090   2.126   3.959   0.332 -0.4618 -0.7797 -0.3879
  297MOL    C5942091   2.086   4.051   0.442  0.1801  0.5063 -0.0181
  297MOL    O6042092   2.090   3.998   0.567 -0.2771  0.3409 -0.3373
  297MOL    H6142093   2.233   3.950   0.317 -0.8619 -1.0799 -3.3407
  297MOL    H6242094   2.097   4.006   0.238  0.9325  2.1083  0.5984
  297MOL    H6342095   1.984   4.081   0.420  0.5633  1.1444 -0.9246
  297MOL    H6442096   2.033   4.048   0.624 -0.2448  1.1962 -1.0617
  297MOL    C6542097   2.158   4.188   0.439 -0.5351  0.3802 -0.1569
  297MOL    C6642098   2.099   4.301   0.525  0.1771 -0.3719  0.7208
  297MOL    O6742099   2.154   4.280   0.652  0.6341 -0.5352  0.3671
  297MOL    H6842100   2.267   4.183   0.434 -0.5597 -2.1792  1.0316
  297MOL    H6942101   2.143   4.226   0.338 -1.2910  2.2300  0.6349
  297MOL    H7042102   1.990   4.292   0.522  0.0992  0.7798 -0.7586
  297MOL    H7142103   2.124   4.352   0.706  1.4504 -0.6358  0.9646
  297MOL    C7242104   2.147   4.441   0.486 -0.3597 -0.2809  0.1669
  297MOL    C7342105   2.091   4.559   0.568  0.4214  0.5651 -0.1944
  297MOL    O7442106   2.139   4.541   0.705 -0.0045  0.4102 -0.0127
  297MOL    H7542107   2.254   4.449   0.466 -0.5117 -1.6581 -1.2607
  297MOL    H7642108   2.110   4.453   0.384  0.4166  0.2233 -0.0629
  297MOL    H7742109   1.983   4.546   0.578  0.5983 -0.4483  0.4705
  297MOL    H7842110   2.068   4.563   0.763 -0.1389  1.9245 -0.7352
  297MOL    C7942111   2.134   4.692   0.507  0.7663  0.8977 -0.7900
  297MOL    C8042112   2.029   4.742   0.407  0.6173  0.4339 -0.8110
  297MOL    O8142113   1.910   4.760   0.482  0.5100  0.2478 -0.2495
  297MOL    H8242114   2.143   4.755   0.596  1.3292  0.4298 -0.5116
  297MOL    H8342115   2.232   4.679   0.460  2.2471 -0.5340  2.5262
  297MOL    H8442116   2.004   4.676   0.324 -4.6431 -0.1954  1.0854
  297MOL    H8542117   1.938   4.797   0.565  1.3433 -2.1745  0.5928
  297MOL    C8642118   2.052   4.873   0.340  0.5420 -0.1682 -0.3452
  297MOL    C8742119   2.178   4.882   0.260  0.0014  0.0316 -0.0970
  297MOL    O8842120   2.161   4.815   0.131  0.2736  0.1457 -0.1794
  297MOL    H8942121   1.962   4.908   0.289  1.1454  1.5229 -0.2856
  297MOL    H9042122   2.069   4.945   0.420  0.4778 -1.9475  1.3071
  297MOL    H9142123   2.261   4.856   0.327  0.7040  3.1343  0.2921
  297MOL    H9242124   2.240   4.766   0.116 -0.5296 -1.4855  0.7474
  297MOL    C9342125   2.221   5.026   0.237  0.3682  0.3944 -0.5837
  297MOL    C9442126   2.112   5.125   0.195  0.2075 -0.3012  0.0386
  297MOL    O9542127   2.102   5.234   0.287  0.0452  1.0088 -0.4077
  297MOL    H9642128   2.268   5.057   0.330  0.2758  2.0330 -1.0821
  297MOL    H9742129   2.304   5.030   0.165  1.0908 -1.7458  0.0800
  297MOL    H9842130   2.014   5.083   0.177  0.1237 -0.2545  0.3933
  297MOL    H9942131   2.192   5.262   0.293 -0.2651  2.2724 -1.3366
  297MOL   C10042132   2.141   5.195   0.053 -0.6941  0.4090  0.4387
  297MOL   C10142133   2.164   5.102   7.451 -0.7022  0.2158 -0.2117
  297MOL   O10242134   2.069   5.000   7.460  0.4552  0.6548  0.1768
  297MOL   H10342135   2.058   5.264   0.036 -2.2708 -1.5099  0.0542
  297MOL   H10442136   2.226   5.261   0.065  0.4717 -1.1040  0.7062
  297MOL   H10542137   2.261   5.053   7.451  1.5936  4.5051 -1.1661
  297MOL   H10642138   2.090   4.945   0.014  3.7666  2.2712  0.5042
  297MOL   C10742139   2.155   5.177   7.313  0.1654  0.7017 -0.3793
  297MOL   C10842140   2.164   5.090   7.187 -0.1236 -0.0621 -0.6542
  297MOL   O10942141   2.056   5.118   7.101 -0.1412 -0.6596  0.4480
  297MOL   H11042142   2.054   5.218   7.317 -0.3967 -0.7414  0.8080
  297MOL   H11142143   2.238   5.247   7.312  0.8803 -0.0923  1.8519
  297MOL   H11242144   2.160   4.985   7.217  0.6634  0.2544  0.5739
  297MOL   H11342145   1.980   5.082   7.142 -0.6736  0.9131  0.8892
  297MOL   C11442146   2.290   5.118   7.097  0.1283 -0.5507  0.0205
  297MOL   C11542147   2.329   4.999   6.999  1.0089 -0.5987 -0.0574
  297MOL   O11642148   2.227   4.992   6.902 -0.2130 -0.1294 -0.3053
  297MOL   H11742149   2.287   5.216   7.050  0.3228 -1.1378 -1.2429
  297MOL   H11842150   2.367   5.130   7.173 -2.1515 -0.1843  2.3419
  297MOL   H11942151   2.327   4.903   7.049 -1.8672  0.2763  1.5910
  297MOL   H12042152   2.155   5.033   6.948 -0.2305  1.4416 -1.6676
  297MOL   C12142153   2.464   5.017   6.927  0.7265 -0.2088  0.3215
  297MOL   C12242154   2.540   4.907   6.850 -0.0198  0.8325 -0.5029
  297MOL   O12342155   2.654   4.963   6.791 -0.8850 -0.0606 -0.5401
  297MOL   H12442156   2.446   5.104   6.863 -0.4428 -0.3027  0.4999
  297MOL   H12542157   2.537   5.042   7.004  0.6908  3.0431 -0.6108
  297MOL   H12642158   2.475   4.874   6.769  1.7365 -1.0784 -1.1800
  297MOL   H12742159   2.719   4.972   6.859  0.2265 -1.6473 -1.3508
  297MOL   C12842160   2.575   4.779   6.921 -0.6054  0.1151  0.5175
  297MOL   C12942161   2.631   4.670   6.829  0.3609  0.3029 -0.1728
  297MOL   O13042162   2.764   4.639   6.866  0.5740 -0.4077  0.3207
  297MOL   H13142163   2.647   4.805   6.998 -1.2999  3.0013  0.2777
  297MOL   H13242164   2.486   4.738   6.968 -1.0601 -1.7665 -1.9042
  297MOL   H13342165   2.646   4.699   6.725  0.4635  1.0782  0.0554
  297MOL   H13442166   2.814   4.718   6.862 -1.7184  1.0120 -1.3163
  297MOL   C13542167   2.544   4.542   6.824 -0.1253 -0.0853 -0.2170
  297MOL   C13642168   2.593   4.446   6.714  0.2880 -0.5043  0.3648
  297MOL   O13742169   2.537   4.311   6.728 -0.1090 -0.6879 -0.4589
  297MOL   H13842170   2.549   4.498   6.924  0.0078 -1.5519 -0.8621
  297MOL   H13942171   2.436   4.554   6.815 -0.3408  0.5338  2.5831
  297MOL   H14042172   2.700   4.428   6.709  0.1987 -0.9916  0.2455
  297MOL   H14142173   2.550   4.262   6.648  0.6951  0.2183 -0.8897
  297MOL   H14242174   2.567   4.480   6.613 -1.4667 -1.0907  0.6090
  298MOL     C142175   3.171   6.434   0.399  0.1861  0.1880  0.7131
  298MOL     C242176   3.059   6.321   0.390 -0.2262 -0.1413 -0.4767
  298MOL     O342177   3.062   6.278   0.259  0.1497 -0.0801  0.1511
  298MOL     H442178   3.132   6.535   0.393 -1.6686 -0.4196  2.1231
  298MOL     H542179   3.240   6.437   0.314  0.7030 -0.3278  1.1072
  298MOL     H642180   2.968   6.366   0.429  0.3632  1.2250 -0.6425
  298MOL     H742181   3.095   6.348   0.205 -0.0234 -1.1628 -1.3830
  298MOL     H842182   3.218   6.431   0.497 -1.0700 -0.4962  1.3088
  298MOL     C942183   3.089   6.193   0.479  0.3997  0.3407 -0.8988
  298MOL    C1042184   2.971   6.082   0.489  0.3521  0.8276 -0.1780
  298MOL    O1142185   3.021   5.995   0.592  0.6410  0.0457 -0.1145
  298MOL    H1242186   3.184   6.147   0.452  0.0431 -1.5049  0.8712
  298MOL    H1342187   3.115   6.237   0.576  0.5130  3.8869 -2.4626
  298MOL    H1442188   2.957   6.022   0.398  3.0340 -0.9098  0.5059
  298MOL    H1542189   3.072   5.937   0.539 -1.3726 -1.7484 -0.1612
  298MOL    C1642190   2.832   6.128   0.541  0.0326 -0.2135 -0.3457
  298MOL    C1742191   2.726   6.020   0.569  0.4516  0.1804 -0.2945
  298MOL    O1842192   2.633   6.079   0.655  0.0680 -0.3641  0.0681
  298MOL    H1942193   2.843   6.191   0.629 -1.5967 -0.3009 -0.0564
  298MOL    H2042194   2.784   6.198   0.473  0.7267  0.2509 -0.3676
  298MOL    H2142195   2.772   5.941   0.629  0.4440 -0.4147 -1.0652
  298MOL    H2242196   2.576   6.010   0.685  1.6585 -2.2088 -1.0351
  298MOL    C2342197   2.655   5.967   0.438 -0.5292  0.1392  0.1218
  298MOL    C2442198   2.545   5.852   0.441  0.0101 -0.7371  0.0168
  298MOL    O2542199   2.432   5.921   0.486 -0.0376 -0.2448 -0.0822
  298MOL    H2642200   2.609   6.049   0.381 -0.2586  0.1804 -0.0372
  298MOL    H2742201   2.745   5.933   0.388  0.2111  1.9281  0.2040
  298MOL    H2842202   2.556   5.773   0.516  1.6478 -0.8944 -0.3711
  298MOL    H2942203   2.423   5.992   0.425  0.1584  0.3290  0.5543
  298MOL    C3042204   2.514   5.799   0.296 -0.3779  0.6852  0.6734
  298MOL    C3142205   2.420   5.676   0.290  0.4386  0.0146  0.0794
  298MOL    O3242206   2.369   5.695   0.160  0.0154  0.2606  0.1856
  298MOL    H3342207   2.480   5.883   0.236 -0.6378  0.2147  0.1546
  298MOL    H3442208   2.598   5.775   0.231 -1.7529 -2.3353 -0.0987
  298MOL    H3542209   2.336   5.697   0.356  0.0100  0.1219 -0.4910
  298MOL    H3642210   2.292   5.747   0.179 -0.0008 -0.5061  2.3755
  298MOL    C3742211   2.493   5.550   0.337 -0.3356 -0.4226  0.1871
  298MOL    C3842212   2.405   5.429   0.390 -0.2769  0.2420 -0.7633
  298MOL    O3942213   2.351   5.355   0.282  0.0774  0.2861 -0.7080
  298MOL    H4042214   2.560   5.502   0.267  0.2027 -0.1090  0.4846
  298MOL    H4142215   2.562   5.577   0.417  0.9038 -1.1045 -0.6300
  298MOL    H4242216   2.319   5.487   0.424 -0.7737  0.2494 -2.0029
  298MOL    H4342217   2.415   5.362   0.213  3.3367 -2.1478  1.9524
  298MOL    C4442218   2.463   5.334   0.497  0.4255  0.4892 -0.0946
  298MOL    C4542219   2.546   5.399   0.613  0.0627  0.3949  0.4663
  298MOL    O4642220   2.480   5.518   0.659  0.3518 -0.2130 -0.1779
  298MOL    H4742221   2.383   5.269   0.531 -1.2834  1.3916 -2.2747
  298MOL    H4842222   2.523   5.253   0.455  0.8725  1.4157 -1.3167
  298MOL    H4942223   2.644   5.428   0.577 -0.5663  1.1488 -0.6709
  298MOL    H5042224   2.544   5.573   0.702 -0.0549  0.7617 -0.7820
  298MOL    C5142225   2.569   5.309   0.738 -0.3833  0.2718  0.0354
  298MOL    C5242226   2.670   5.197   0.702 -0.2247 -0.0543  0.1456
  298MOL    O5342227   2.787   5.246   0.643 -0.0946  0.4763 -0.0377
  298MOL    H5442228   2.616   5.361   0.821  2.0346 -2.3312  0.3918
  298MOL    H5542229   2.476   5.267   0.777  0.6173 -0.7164  1.4136
  298MOL    H5642230   2.639   5.128   0.624 -3.4687  0.8570  0.5818
  298MOL    H5742231   2.771   5.242   0.550 -0.4746 -1.2065  0.0940
  298MOL    C5842232   2.704   5.108   0.823  0.1187 -0.9920  0.5448
  298MOL    C5942233   2.627   4.973   0.829  0.5979 -0.2894 -0.0412
  298MOL    O6042234   2.695   4.899   0.926 -0.2601 -0.1921 -0.1035
  298MOL    H6142235   2.810   5.084   0.823  0.8855  2.0572 -2.3387
  298MOL    H6242236   2.696   5.165   0.915 -0.8052 -0.3445  0.0758
  298MOL    H6342237   2.627   4.931   0.729 -0.3686 -2.9731  1.0444
  298MOL    H6442238   2.787   4.902   0.904 -0.5079  0.9596 -1.0638
  298MOL    C6542239   2.478   4.997   0.883 -0.6733 -0.6916 -0.0184
  298MOL    C6642240   2.373   4.992   0.771 -0.0070 -0.1677  0.7388
  298MOL    O6742241   2.386   4.874   0.683 -0.2411  0.4499  0.6562
  298MOL    H6842242   2.448   4.916   0.950 -0.2773  0.0478  1.0561
  298MOL    H6942243   2.462   5.085   0.945 -3.3013  0.6542 -2.4653
  298MOL    H7042244   2.396   5.075   0.704  2.7507 -2.0324 -0.7006
  298MOL    H7142245   2.371   4.795   0.732 -1.0384 -1.2683 -2.2699
  298MOL    C7242246   2.220   5.013   0.790  0.3232 -0.1851 -0.1091
  298MOL    C7342247   2.160   5.153   0.837 -0.7068 -0.3791 -0.3170
  298MOL    O7442248   2.028   5.175   0.786 -0.5146 -0.4380 -0.1028
  298MOL    H7542249   2.179   4.992   0.691 -0.1660 -0.3977  0.1338
  298MOL    H7642250   2.173   4.933   0.849  1.2617 -2.1803 -1.9979
  298MOL    H7742251   2.229   5.230   0.802  0.1976 -1.0276  0.0260
  298MOL    H7842252   1.991   5.261   0.784 -2.0859 -1.0924 -0.1393
  298MOL    C7942253   2.144   5.176   0.990 -0.7495 -0.0927 -0.0264
  298MOL    C8042254   2.105   5.317   1.049 -0.4735 -0.4549 -0.4510
  298MOL    O8142255   2.040   5.295   1.170  0.0073 -0.0794 -0.2258
  298MOL    H8242256   2.063   5.109   1.018 -1.2515  0.1630 -0.8429
  298MOL    H8342257   2.237   5.141   1.034 -0.6815  1.4776  1.1282
  298MOL    H8442258   2.026   5.353   0.985 -0.6211  1.1589  0.6278
  298MOL    H8542259   2.058   5.374   1.220 -2.5518 -0.6695  1.7390
  298MOL    C8642260   2.215   5.430   1.066  0.7513 -0.2244 -0.8956
  298MOL    C8742261   2.331   5.437   0.968  0.6308  1.0995  0.9648
  298MOL    O8842262   2.271   5.484   0.848 -0.2114  0.8084  0.0636
  298MOL    H8942263   2.163   5.525   1.071  1.7110  0.2305  0.7456
  298MOL    H9042264   2.268   5.404   1.157 -1.3592 -1.4697  0.0305
  298MOL    H9142265   2.371   5.336   0.956 -0.1515  0.8046  0.7865
  298MOL    H9242266   2.341   5.512   0.791  0.5203 -0.9535  0.0684
  298MOL    C9342267   2.453   5.526   1.021  0.1208  0.2357 -0.2143
  298MOL    C9442268   2.527   5.465   1.142 -0.8403  0.7770 -0.8221
  298MOL    O9542269   2.614   5.356   1.099  0.2240 -0.6400  0.4500
  298MOL    H9642270   2.531   5.512   0.946 -0.3617  0.3260 -0.7372
  298MOL    H9742271   2.421   5.629   1.031 -0.7965  0.1703 -2.2398
  298MOL    H9842272   2.457   5.409   1.203 -0.5276 -0.3117 -1.4342
  298MOL    H9942273   2.630   5.304   1.176  2.4303 -0.6181  0.0372
  298MOL   C10042274   2.595   5.567   1.240  0.0154 -0.6371 -0.7238
  298MOL   C10142275   2.481   5.636   1.331 -0.4416 -0.1989  0.6605
  298MOL   O10242276   2.526   5.644   1.467  0.1989 -0.0726 -0.3228
  298MOL   H10342277   2.663   5.505   1.298  1.3469  0.0422 -1.5294
  298MOL   H10442278   2.668   5.635   1.194 -1.0536 -0.4418 -2.1709
  298MOL   H10542279   2.393   5.572   1.334 -0.6801 -0.0554 -1.8727
  298MOL   H10642280   2.579   5.722   1.466 -0.3235  0.3242  1.2317
  298MOL   C10742281   2.433   5.774   1.277 -0.4411 -0.0168 -0.3298
  298MOL   C10842282   2.278   5.782   1.254 -0.0258  0.0895 -0.8280
  298MOL   O10942283   2.202   5.734   1.357 -0.0675  0.4799 -0.2652
  298MOL   H11042284   2.457   5.860   1.339 -1.6966  0.9933 -1.2065
  298MOL   H11142285   2.488   5.803   1.189 -1.3969  0.8151 -0.6627
  298MOL   H11242286   2.255   5.722   1.166  1.1776 -0.2757 -0.9077
  298MOL   H11342287   2.242   5.772   1.433 -0.8933 -0.7805  0.8169
  298MOL   C11442288   2.224   5.922   1.224  0.0010  0.3045 -0.1076
  298MOL   C11542289   2.198   5.959   1.077  0.2680  0.6491  0.6956
  298MOL   O11642290   2.164   6.097   1.077  0.1217  0.4916  0.2526
  298MOL   H11742291   2.134   5.943   1.282 -1.1477 -1.2499 -1.2779
  298MOL   H11842292   2.290   6.002   1.259  2.3617 -0.7622 -1.9270
  298MOL   H11942293   2.117   5.898   1.038  0.7224  0.1096  0.5830
  298MOL   H12042294   2.075   6.103   1.106 -0.8023 -1.8405 -1.9636
  298MOL   C12142295   2.326   5.931   0.986  0.0508  0.1143 -0.1966
  298MOL   C12242296   2.312   5.937   0.830  0.3887 -0.8071 -0.2825
  298MOL   O12342297   2.431   5.909   0.767 -0.1561  0.1363  0.6284
  298MOL   H12442298   2.416   5.979   1.023  1.0987 -0.8733 -1.4690
  298MOL   H12542299   2.353   5.829   1.012 -1.2565 -1.0611 -3.2059
  298MOL   H12642300   2.275   6.039   0.817 -0.9296 -1.1858  0.4066
  298MOL   H12742301   2.426   5.912   0.673 -0.5825  0.3555  0.6595
  298MOL   C12842302   2.213   5.835   0.767  0.4905  0.1147 -0.2759
  298MOL   C12942303   2.141   5.883   0.635  0.5058 -0.6954  0.5362
  298MOL   O13042304   2.188   5.804   0.528  0.2890  0.1278  0.0966
  298MOL   H13142305   2.255   5.736   0.755  0.4056 -0.1219  1.2264
  298MOL   H13242306   2.138   5.816   0.844 -0.7630  0.0463 -1.4973
  298MOL   H13342307   2.163   5.987   0.610 -0.4933 -1.0695 -2.0140
  298MOL   H13442308   2.273   5.838   0.506  1.2533 -2.3023 -0.1252
  298MOL   C13542309   1.990   5.869   0.654  0.3734 -0.1484  0.3433
  298MOL   C13642310   1.929   5.997   0.714 -0.9783 -0.0041  0.4200
  298MOL   O13742311   1.800   5.972   0.754 -0.7557 -0.2105  0.3048
  298MOL   H13842312   1.947   5.855   0.555  1.9367 -0.9499 -0.2397
  298MOL   H13942313   1.957   5.792   0.725 -1.2420  0.6377  0.4737
  298MOL   H14042314   1.921   6.084   0.648  0.0649 -0.1379  0.1030
  298MOL   H14142315   1.750   5.983   0.675  1.2509 -0.4103 -1.0040
  298MOL   H14242316   1.989   6.027   0.800  0.1959  0.7884 -0.6577
  299MOL     C142317   3.134   0.066   1.564 -0.1829  0.3061 -0.0544
  299MOL     C242318   3.126   7.482   1.449  0.2714  0.3372  0.4203
  299MOL     O342319   3.219   0.014   1.351  0.2973  0.2086  0.3802
  299MOL     H442320   3.233   0.101   1.590 -0.6785  1.8983 -0.2766
  299MOL     H542321   3.085   0.016   1.648 -2.0213  0.3296 -1.0782
  299MOL     H642322   3.027   7.477   1.402  0.5859  0.1191 -0.2283
  299MOL     H742323   3.296   0.040   1.399 -1.5807  1.3016  2.9314
  299MOL     H842324   3.081   0.158   1.538 -0.0329  0.1715 -0.8400
  299MOL     C942325   3.172   7.340   1.488 -0.0894  0.0826 -0.7962
  299MOL    C1042326   3.058   7.258   1.552 -0.3771 -0.3740  0.1132
  299MOL    O1142327   2.971   7.222   1.447  0.4127  0.1304 -0.4793
  299MOL    H1242328   3.206   7.280   1.403  1.1973  0.5043 -0.5887
  299MOL    H1342329   3.262   7.357   1.548 -0.9179 -0.6189  0.6921
  299MOL    H1442330   3.005   7.323   1.622  1.9909 -1.6697  3.2446
  299MOL    H1542331   2.885   7.253   1.473  0.4399  0.5166 -0.8478
  299MOL    C1642332   3.098   7.122   1.622  0.4311 -0.3458 -0.0823
  299MOL    C1742333   3.169   7.148   1.754  0.3252 -0.1820 -0.7037
  299MOL    O1842334   3.074   7.159   1.863  0.1982  0.0221  0.9390
  299MOL    H1942335   3.010   7.059   1.632 -1.6989  2.5689  0.0180
  299MOL    H2042336   3.153   7.060   1.551 -1.0532 -0.1149 -1.4583
  299MOL    H2142337   3.226   7.241   1.761  3.1029 -1.7626 -1.2738
  299MOL    H2242338   3.106   7.224   1.924 -0.9130 -0.3039  1.8783
  299MOL    C2342339   3.257   7.023   1.802  0.9724  0.0178 -0.0078
  299MOL    C2442340   3.393   7.003   1.731  0.1028 -0.2182 -0.2407
  299MOL    O2542341   3.472   7.115   1.772 -0.4112  0.7318  0.4752
  299MOL    H2642342   3.276   7.018   1.910  1.7431 -0.0406 -0.1412
  299MOL    H2742343   3.193   6.935   1.789  1.4097 -0.1627 -1.0013
  299MOL    H2842344   3.376   7.013   1.624  2.9351  0.8756 -0.6452
  299MOL    H2942345   3.553   7.114   1.722 -0.4461 -0.2847  0.4241
  299MOL    C3042346   3.457   6.869   1.765 -1.0544  0.4728  0.6242
  299MOL    C3142347   3.385   6.748   1.705  0.1955 -0.6164 -0.1792
  299MOL    O3242348   3.492   6.658   1.655 -0.6961  0.1145 -0.0176
  299MOL    H3342349   3.561   6.877   1.731 -0.8142  1.3333  1.5257
  299MOL    H3442350   3.467   6.858   1.873 -1.1582  0.0298  0.5871
  299MOL    H3542351   3.320   6.789   1.628  0.5061  0.5429  0.1739
  299MOL    H3642352   3.519   6.614   1.733 -0.6375 -0.6188 -0.4467
  299MOL    C3742353   3.302   6.661   1.803 -0.2861 -0.3656  0.7263
  299MOL    C3842354   3.210   6.553   1.755 -0.0083 -0.7282  0.3049
  299MOL    O3942355   3.156   6.496   1.862 -0.0886  0.0885 -0.3008
  299MOL    H4042356   3.375   6.621   1.874 -0.7041  0.3368  1.5600
  299MOL    H4142357   3.240   6.728   1.862  0.8008  1.2192  0.0956
  299MOL    H4242358   3.277   6.488   1.698  0.9845 -0.6010  1.2983
  299MOL    H4342359   3.080   6.452   1.827 -0.7882 -0.1659  1.5008
  299MOL    C4442360   3.093   6.614   1.674 -0.1048  0.3275 -0.5426
  299MOL    C4542361   3.028   6.509   1.582  0.2829  0.0995  0.5855
  299MOL    O4642362   2.959   6.415   1.665 -0.0966 -0.4752  0.1853
  299MOL    H4742363   3.015   6.667   1.730  0.5978  0.2177  0.5516
  299MOL    H4842364   3.137   6.689   1.608  3.8246  1.0494  2.7102
  299MOL    H4942365   3.107   6.442   1.546 -0.3814  0.0006 -0.7343
  299MOL    H5042366   2.938   6.343   1.609  1.5362 -0.9418  0.1293
  299MOL    C5142367   2.938   6.568   1.470 -0.1412  0.6113  0.3552
  299MOL    C5242368   3.013   6.649   1.360  0.4473 -0.0379 -0.2745
  299MOL    O5342369   3.075   6.551   1.273  0.9141  0.4858  0.1528
  299MOL    H5442370   2.898   6.478   1.422 -1.7607  2.2963 -1.5455
  299MOL    H5542371   2.851   6.616   1.517  0.4554  1.3501  0.7077
  299MOL    H5642372   3.087   6.714   1.406 -0.6544  0.6554  0.5512
  299MOL    H5742373   3.156   6.528   1.316  0.8151 -0.6805 -0.2918
  299MOL    C5842374   2.911   6.729   1.276 -0.3221  0.1164 -0.1649
  299MOL    C5942375   2.961   6.804   1.151 -0.3816  0.2652  0.0221
  299MOL    O6042376   2.853   6.880   1.109  0.5155  0.0316  0.1308
  299MOL    H6142377   2.823   6.675   1.240  0.0911 -0.6384 -0.0406
  299MOL    H6242378   2.873   6.794   1.355  1.1837 -0.5694  1.1554
  299MOL    H6342379   2.985   6.719   1.087 -2.2933 -1.3472  1.4287
  299MOL    H6442380   2.822   6.842   1.029  0.9988  1.8792 -0.9692
  299MOL    C6542381   3.080   6.900   1.184  0.5858 -0.2766  1.3361
  299MOL    C6642382   3.156   6.934   1.062  0.4973  0.2361 -0.2932
  299MOL    O6742383   3.225   7.056   1.085  0.0136 -0.4343 -0.0527
  299MOL    H6842384   3.037   6.990   1.229  2.9759  2.2953 -1.2387
  299MOL    H6942385   3.143   6.841   1.250  2.1684 -2.1060 -1.6677
  299MOL    H7042386   3.075   6.949   0.991  1.7455 -1.5833 -2.1640
  299MOL    H7142387   3.165   7.112   1.132 -0.0277 -1.1540  0.7640
  299MOL    C7242388   3.266   6.828   1.016  0.3879 -0.0982  0.0262
  299MOL    C7342389   3.320   6.850   0.877 -0.4719  0.7398 -0.6334
  299MOL    O7442390   3.409   6.740   0.855 -0.2141  0.2648 -0.2875
  299MOL    H7542391   3.339   6.834   1.097 -0.9049  0.0926  1.2121
  299MOL    H7642392   3.216   6.731   1.013 -0.0060  0.0938  0.2964
  299MOL    H7742393   3.368   6.948   0.871 -0.6967  1.0893  2.2725
  299MOL    H7842394   3.477   6.761   0.792  0.9838 -0.9296  0.5743
  299MOL    C7942395   3.213   6.864   0.765 -0.1221 -0.6270  0.2417
  299MOL    C8042396   3.269   6.905   0.625  0.0047 -0.5853 -0.8439
  299MOL    O8142397   3.302   6.787   0.560  0.5165  0.3126  0.5170
  299MOL    H8242398   3.149   6.776   0.756  0.2217 -0.7638 -1.0179
  299MOL    H8342399   3.144   6.942   0.794  0.3005 -0.4313  0.7277
  299MOL    H8442400   3.349   6.979   0.634  0.7269 -1.2891 -1.4470
  299MOL    H8542401   3.358   6.734   0.614  1.8815  2.6930  1.5271
  299MOL    C8642402   3.161   6.981   0.551 -0.3462  0.1184 -0.2737
  299MOL    C8742403   3.200   7.042   0.414 -0.1436  0.2014 -0.5346
  299MOL    O8842404   3.261   6.945   0.335 -0.3616 -0.6736  0.0693
  299MOL    H8942405   3.076   6.916   0.533  1.2606 -2.0069 -0.3236
  299MOL    H9042406   3.128   7.070   0.606 -1.2286 -0.7034  0.5440
  299MOL    H9142407   3.274   7.121   0.429  0.2478 -0.2577 -0.0440
  299MOL    H9242408   3.312   6.886   0.389  1.0089  0.4679  0.0719
  299MOL    C9342409   3.087   7.095   0.329 -0.0938  0.0943  0.1140
  299MOL    C9442410   3.083   7.246   0.320 -0.0087  0.1608  0.0231
  299MOL    O9542411   3.003   7.274   0.215 -0.2396 -0.4046  0.3070
  299MOL    H9642412   3.096   7.073   0.223 -0.3485  5.1157 -1.0794
  299MOL    H9742413   2.989   7.052   0.351 -0.4079 -0.2502 -1.8891
  299MOL    H9842414   3.181   7.286   0.297  0.1865 -1.1458 -1.5212
  299MOL    H9942415   3.038   7.351   0.173  0.7812 -1.6214 -1.1225
  299MOL   C10042416   3.030   7.305   0.447  0.3243  0.3242  0.1663
  299MOL   C10142417   3.002   7.460   0.454 -0.0396  0.2915 -0.5060
  299MOL   O10242418   2.904   7.475   0.557  0.1144 -0.0888 -0.1002
  299MOL   H10342419   2.930   7.263   0.460  0.2172  0.2106 -0.9250
  299MOL   H10442420   3.065   7.275   0.546  2.6370  0.2640 -0.6417
  299MOL   H10542421   2.960   7.511   0.366  0.0022 -0.9924 -1.2802
  299MOL   H10642422   2.930   7.449   0.644 -0.5500  1.6341  0.6499
  299MOL   C10742423   3.127   0.008   0.497 -0.1831 -0.1308  0.0374
  299MOL   C10842424   3.115   0.153   0.549  0.3542 -0.0479 -0.8905
  299MOL   O10942425   3.237   0.181   0.614 -0.0620 -0.0819  0.4510
  299MOL   H11042426   3.177   7.473   0.577 -0.4096  1.5415  1.3564
  299MOL   H11142427   3.198   0.011   0.414  0.6380  1.0835  0.7626
  299MOL   H11242428   3.042   0.157   0.629  1.1333  0.0800 -0.1806
  299MOL   H11342429   3.308   0.162   0.555 -0.6974  0.2026 -0.4052
  299MOL   C11442430   3.086   0.259   0.441 -0.2163 -0.6497  0.0066
  299MOL   C11542431   3.092   0.401   0.504  0.3785  0.7098 -0.7437
  299MOL   O11642432   3.063   0.495   0.400  0.0267  0.3257 -0.5083
  299MOL   H11742433   3.155   0.270   0.358 -2.2249  0.9854 -1.4880
  299MOL   H11842434   2.983   0.240   0.411 -0.8473 -0.2254  1.8250
  299MOL   H11942435   3.190   0.428   0.543  0.6590 -0.2184 -0.7962
  299MOL   H12042436   2.970   0.509   0.398  0.2940  2.0031 -1.8491
  299MOL   C12142437   2.986   0.426   0.618 -0.0107  0.6184 -0.7685
  299MOL   C12242438   2.981   0.557   0.682 -0.8519 -0.2070 -0.0471
  299MOL   O12342439   2.865   0.562   0.753 -0.3157  1.0767 -0.1789
  299MOL   H12442440   2.888   0.398   0.580  0.8934 -2.6733 -0.8713
  299MOL   H12542441   3.015   0.353   0.693 -1.7822 -0.4890 -1.1345
  299MOL   H12642442   2.973   0.632   0.604 -1.5140 -3.1255 -2.9041
  299MOL   H12742443   2.864   0.495   0.819  1.1296 -0.2820 -1.4962
  299MOL   C12842444   3.096   0.582   0.776 -0.8225  0.1803 -0.4558
  299MOL   C12942445   3.104   0.726   0.829  0.0749  0.3324  0.5191
  299MOL   O13042446   3.230   0.717   0.906  0.1441 -0.3450  0.2790
  299MOL   H13142447   3.085   0.511   0.858  0.9685  1.0069  0.5223
  299MOL   H13242448   3.185   0.560   0.718 -0.4518 -1.3311  0.6684
  299MOL   H13342449   3.027   0.746   0.904 -2.5492 -1.0544 -1.7552
  299MOL   H13442450   3.222   0.670   0.988 -1.0431  0.2593  0.5115
  299MOL   C13542451   3.124   0.829   0.711 -0.0206 -0.4588 -0.8205
  299MOL   C13642452   3.172   0.971   0.745 -0.7217 -1.6179  0.1297
  299MOL   O13742453   3.150   1.055   0.630  0.6261  0.0736  0.1720
  299MOL   H13842454   3.194   0.771   0.651  2.3249 -1.0345  2.3688
  299MOL   H13942455   3.027   0.830   0.661 -0.1037 -2.3458 -0.7648
  299MOL   H14042456   3.277   0.980   0.772 -0.7110  0.9998 -0.6493
  299MOL   H14142457   3.190   1.015   0.554 -1.0150  3.1439 -2.4210
  299MOL   H14242458   3.125   1.011   0.836 -0.7097 -0.8474 -0.1979
  300MOL     C142459   0.585   3.267   3.583  0.5379 -0.4841 -0.0125
  300MOL     C242460   0.501   3.301   3.709 -0.8900 -0.0001  0.3589
  300MOL     O342461   0.591   3.358   3.799  0.5708 -0.1974 -0.0224
  300MOL     H442462   0.666   3.195   3.591 -1.5492 -2.7632  1.3052
  300MOL     H542463   0.628   3.363   3.553  1.4134 -0.6835  0.5999
  300MOL     H642464   0.463   3.208   3.751  0.6447 -1.0551 -0.5277
  300MOL     H742465   0.609   3.448   3.778 -0.3791 -0.0281 -0.0943
  300MOL     H842466   0.519   3.239   3.500 -0.1106 -0.1612  0.3936
  300MOL     C942467   0.396   3.410   3.683  0.4796  0.4032 -0.3296
  300MOL    C1042468   0.271   3.355   3.601 -0.4014  0.4159  0.0079
  300MOL    O1142469   0.162   3.327   3.685 -0.1555  0.0660 -0.3878
  300MOL    H1242470   0.359   3.452   3.776 -1.4884  0.0399 -0.9337
  300MOL    H1342471   0.440   3.489   3.623 -0.7631  1.1104 -0.3090
  300MOL    H1442472   0.305   3.261   3.560  1.4258  2.4863 -3.3766
  300MOL    H1542473   0.179   3.361   3.771 -0.6710  1.1752 -0.7032
  300MOL    C1642474   0.218   3.458   3.500 -0.1663 -0.5949 -0.3439
  300MOL    C1742475   0.272   3.436   3.353 -0.0023  0.8644  0.1972
  300MOL    O1842476   0.176   3.483   3.264  0.5783  0.7620 -0.2896
  300MOL    H1942477   0.109   3.454   3.489 -0.2032 -2.0166  0.4283
  300MOL    H2042478   0.237   3.554   3.548 -3.0717 -0.0489 -0.1897
  300MOL    H2142479   0.295   3.331   3.334  0.6675  1.0265  0.1004
  300MOL    H2242480   0.150   3.406   3.215 -1.5160  0.1988  1.6555
  300MOL    C2342481   0.397   3.512   3.326  0.1786 -0.3105 -0.6777
  300MOL    C2442482   0.477   3.475   3.200 -0.2021  0.5559  0.6540
  300MOL    O2542483   0.388   3.489   3.093 -0.4004  0.0916 -0.4410
  300MOL    H2642484   0.381   3.619   3.337  1.5681 -0.3825  2.5520
  300MOL    H2742485   0.459   3.481   3.410 -1.2143 -3.8842 -0.8910
  300MOL    H2842486   0.508   3.370   3.202  1.8602  1.1110 -0.7461
  300MOL    H2942487   0.310   3.521   3.136 -0.0008  0.4327  0.0327
  300MOL    C3042488   0.585   3.571   3.154  0.4909  0.0637  0.1913
  300MOL    C3142489   0.710   3.577   3.250 -0.6582  0.1549  0.1855
  300MOL    O3242490   0.675   3.642   3.372  0.0075 -0.9959  0.0680
  300MOL    H3342491   0.618   3.531   3.058 -0.7467 -1.7946  0.5186
  300MOL    H3442492   0.549   3.672   3.134  1.4249 -0.0363 -2.1643
  300MOL    H3542493   0.788   3.636   3.201 -0.7107 -0.1293 -0.2461
  300MOL    H3642494   0.704   3.732   3.365 -1.8680 -0.6332 -3.7584
  300MOL    C3742495   0.792   3.447   3.270 -0.0501  0.2914  1.3112
  300MOL    C3842496   0.857   3.385   3.139 -0.3770 -0.0292 -0.4153
  300MOL    O3942497   0.966   3.467   3.093  0.0551  0.5847  0.4352
  300MOL    H4042498   0.864   3.468   3.350  0.2608  1.3907  0.7604
  300MOL    H4142499   0.727   3.366   3.302 -1.5256  1.7083  1.9603
  300MOL    H4242500   0.784   3.378   3.059 -0.6944 -0.2243 -0.1077
  300MOL    H4342501   0.938   3.511   3.015  3.3744 -0.7680 -1.6292
  300MOL    C4442502   0.932   3.255   3.173  0.2111 -0.3886 -0.5104
  300MOL    C4542503   0.963   3.145   3.066 -0.9702 -0.0333 -0.0877
  300MOL    O4642504   1.070   3.069   3.102 -0.2071  0.1281 -0.2286
  300MOL    H4742505   1.028   3.280   3.219  0.7939 -0.0821 -1.8953
  300MOL    H4842506   0.872   3.201   3.247 -1.5652  1.0927 -0.8311
  300MOL    H4942507   0.988   3.198   2.974 -0.8200  0.0537  0.0036
  300MOL    H5042508   1.073   2.984   3.061  2.9044  0.1383 -0.1193
  300MOL    C5142509   0.846   3.045   3.045  0.2672  0.0744  0.9186
  300MOL    C5242510   0.786   3.029   2.902  0.1041  0.2044  0.9475
  300MOL    O5342511   0.691   2.921   2.906 -0.1467  0.6909  0.3175
  300MOL    H5442512   0.880   2.946   3.072  0.9660 -0.2115 -0.9109
  300MOL    H5542513   0.767   3.070   3.116  0.3903 -2.8698  2.1383
  300MOL    H5642514   0.867   2.983   2.845 -0.4346 -0.5843  0.7976
  300MOL    H5742515   0.658   2.915   2.817 -0.2689 -0.7053  0.4453
  300MOL    C5842516   0.718   3.155   2.834  0.2018  0.3496  0.0577
  300MOL    C5942517   0.685   3.147   2.687 -0.0954 -0.1681 -0.3095
  300MOL    O6042518   0.611   3.268   2.662  0.1519  0.1009  0.3671
  300MOL    H6142519   0.626   3.165   2.892  2.2851 -0.4714  3.6901
  300MOL    H6242520   0.766   3.250   2.859 -1.8050  0.7445  2.6640
  300MOL    H6342521   0.614   3.064   2.677  0.3392 -0.4025 -1.4787
  300MOL    H6442522   0.561   3.287   2.740 -1.4161 -1.5703 -0.1950
  300MOL    C6542523   0.811   3.141   2.599  0.0430 -0.1821  0.6153
  300MOL    C6642524   0.787   3.120   2.444  0.0396 -0.4380  0.1610
  300MOL    O6742525   0.915   3.135   2.388 -0.2218  0.2435 -0.1921
  300MOL    H6842526   0.873   3.228   2.620 -1.0527  0.3961  1.5214
  300MOL    H6942527   0.865   3.054   2.636 -1.7073 -2.2683 -1.5447
  300MOL    H7042528   0.730   3.207   2.409  0.7709  0.7995  1.9882
  300MOL    H7142529   0.908   3.189   2.311  0.3676  1.9177  0.8990
  300MOL    C7242530   0.725   2.987   2.390 -0.2633 -0.5689 -0.2540
  300MOL    C7342531   0.569   2.999   2.373  0.8541 -0.3285 -0.9854
  300MOL    O7442532   0.534   3.096   2.274 -0.7835 -0.3818 -0.4551
  300MOL    H7542533   0.773   2.944   2.303 -3.0869 -2.4070 -0.9690
  300MOL    H7642534   0.754   2.914   2.465 -0.7288 -0.3363  0.1592
  300MOL    H7742535   0.526   3.039   2.464  0.0459  0.4766 -1.7135
  300MOL    H7842536   0.585   3.075   2.197 -1.1020 -1.1796 -0.4490
  300MOL    C7942537   0.510   2.864   2.325  0.1727 -0.1546  0.5279
  300MOL    C8042538   0.398   2.812   2.413 -0.5799 -0.2397  0.6768
  300MOL    O8142539   0.287   2.778   2.327 -0.3807 -0.4889  0.1106
  300MOL    H8242540   0.470   2.874   2.224  0.4427 -0.2622  0.4114
  300MOL    H8342541   0.592   2.795   2.306 -0.3635 -0.6134 -0.1683
  300MOL    H8442542   0.356   2.888   2.479  0.0923 -0.0373  0.8779
  300MOL    H8542543   0.320   2.713   2.267  0.6060 -0.9471  1.1473
  300MOL    C8642544   0.449   2.688   2.497 -0.1709  0.3576 -0.2353
  300MOL    C8742545   0.558   2.704   2.601  0.2275  0.6040 -0.0827
  300MOL    O8842546   0.523   2.813   2.690 -0.1314  0.4898 -0.2819
  300MOL    H8942547   0.356   2.650   2.540 -0.4804 -1.8956 -2.7372
  300MOL    H9042548   0.480   2.609   2.428 -0.5118  0.1095 -0.1054
  300MOL    H9142549   0.648   2.736   2.549  0.0255 -0.4013 -1.0544
  300MOL    H9242550   0.441   2.797   2.734 -1.0399 -1.3037 -2.5034
  300MOL    C9342551   0.592   2.572   2.672 -0.1017 -0.2526  0.6025
  300MOL    C9442552   0.714   2.550   2.767  0.1437  0.4225  0.4016
  300MOL    O9542553   0.697   2.422   2.823 -0.0734 -0.5451 -0.8311
  300MOL    H9642554   0.501   2.552   2.728  0.1335 -1.4612  0.5685
  300MOL    H9742555   0.605   2.487   2.606 -0.9868 -1.1010  1.5103
  300MOL    H9842556   0.714   2.634   2.837 -0.6589  0.9677 -0.2572
  300MOL    H9942557   0.687   2.358   2.754 -0.2409 -1.2084 -0.2045
  300MOL   C10042558   0.850   2.553   2.679  0.5825 -0.0520  0.5010
  300MOL   C10142559   0.971   2.563   2.771  0.1736 -0.7517  0.0757
  300MOL   O10242560   1.087   2.549   2.694  0.4552  0.4926 -0.2735
  300MOL   H10342561   0.866   2.464   2.618 -1.1368 -0.3687  0.5013
  300MOL   H10442562   0.846   2.642   2.616 -0.1434 -1.0222 -0.8486
  300MOL   H10542563   0.969   2.476   2.837  0.0705 -1.9604 -1.5009
  300MOL   H10642564   1.158   2.517   2.748 -0.4182 -1.7436 -0.3974
  300MOL   C10742565   0.984   2.698   2.854 -0.0714 -0.5467 -0.0390
  300MOL   C10842566   1.107   2.695   2.949 -0.6355 -0.0361 -0.0470
  300MOL   O10942567   1.112   2.831   2.990  0.0994  0.9413  0.7084
  300MOL   H11042568   1.005   2.775   2.780  1.5497  1.0483  2.0149
  300MOL   H11142569   0.883   2.720   2.888  0.3238 -0.8675  1.3501
  300MOL   H11242570   1.192   2.670   2.886  0.2333  1.4944  0.4788
  300MOL   H11342571   1.129   2.877   2.909 -0.4916  0.6954  0.4431
  300MOL   C11442572   1.093   2.616   3.079 -0.1447  0.1130  0.7860
  300MOL   C11542573   1.217   2.619   3.173 -0.6446  0.0488  0.2980
  300MOL   O11642574   1.198   2.534   3.286  0.2096 -0.6911  0.2777
  300MOL   H11742575   0.999   2.642   3.129 -0.2781  0.1040  0.5427
  300MOL   H11842576   1.079   2.513   3.046 -0.8882  0.2783  0.5594
  300MOL   H11942577   1.223   2.719   3.218  2.9314  1.2251 -2.5432
  300MOL   H12042578   1.202   2.584   3.366 -0.8958 -1.3436  0.7519
  300MOL   C12142579   1.349   2.582   3.104  0.4738 -0.2694  0.1054
  300MOL   C12242580   1.427   2.707   3.058  0.5547 -0.0824 -0.7775
  300MOL   O12342581   1.479   2.757   3.179  0.1101 -0.6746  0.1264
  300MOL   H12442582   1.410   2.528   3.176 -1.5008 -1.3483  0.9886
  300MOL   H12542583   1.323   2.508   3.029 -2.5406 -0.7797  1.5835
  300MOL   H12642584   1.372   2.785   3.005  1.3119  0.7864 -0.3202
  300MOL   H12742585   1.408   2.811   3.210 -0.6078 -1.0631 -0.8148
  300MOL   C12842586   1.550   2.680   2.977 -0.2466  0.2839  0.2435
  300MOL   C12942587   1.512   2.679   2.824 -1.0514  0.2274  0.0037
  300MOL   O13042588   1.469   2.807   2.789 -0.1745  0.7206  0.2880
  300MOL   H13142589   1.636   2.745   2.992 -0.6432  1.1264 -1.0279
  300MOL   H13242590   1.594   2.583   2.996 -0.1706  0.0513 -1.0730
  300MOL   H13342591   1.439   2.602   2.800  0.7444 -1.7405  0.7751
  300MOL   H13442592   1.513   2.880   2.829  1.4354  0.1138 -0.3074
  300MOL   C13542593   1.638   2.650   2.745 -0.1351 -0.6789 -0.2238
  300MOL   C13642594   1.684   2.504   2.764 -0.1366  0.2340  0.4452
  300MOL   O13742595   1.785   2.481   2.666  0.0430 -0.0580  0.4504
  300MOL   H13842596   1.631   2.673   2.638 -1.1301 -0.6429 -0.1509
  300MOL   H13942597   1.719   2.710   2.785 -1.0799  0.3331  0.1839
  300MOL   H14042598   1.605   2.431   2.754  0.8431 -0.8040  0.1827
  300MOL   H14142599   1.811   2.392   2.684  0.2812 -0.3247 -1.1506
  300MOL   H14242600   1.736   2.482   2.857  1.2751 -1.0892 -0.6318
  301MOL     C142601   5.522   0.663   1.402  0.0766 -0.2848  0.4338
  301MOL     C242602   5.461   0.756   1.292 -0.1804 -0.3764 -0.5522
  301MOL     O342603   5.545   0.864   1.270  0.1627 -0.0550  0.1541
  301MOL     H442604   5.629   0.643   1.398 -0.1952 -1.5741 -0.9444
  301MOL     H542605   5.466   0.570   1.410  0.5247 -0.4862  1.2311
  301MOL     H642606   5.361   0.790   1.320 -0.1699 -1.5196  0.9636
  301MOL     H742607   5.568   0.902   1.354  0.7960  0.2090 -0.1271
  301MOL     H842608   5.518   0.716   1.497  0.4241  0.4780  0.0234
  301MOL     C942609   5.455   0.668   1.166 -0.6683  0.7361  0.3210
  301MOL    C1042610   5.357   0.702   1.051 -0.6730  0.3098  0.4433
  301MOL    O1142611   5.378   0.627   0.931  0.5350  0.1337  0.3144
  301MOL    H1242612   5.549   0.649   1.115 -0.8217 -0.3019  0.3970
  301MOL    H1342613   5.416   0.570   1.195 -0.4551 -0.2487 -2.5451
  301MOL    H1442614   5.382   0.801   1.012 -1.9210 -0.0199 -1.2584
  301MOL    H1542615   5.346   0.539   0.939 -0.5422  0.5564  0.7288
  301MOL    C1642616   5.209   0.711   1.090 -0.4227 -0.3561  0.4498
  301MOL    C1742617   5.125   0.777   0.975  0.2854  1.2603  0.5983
  301MOL    O1842618   4.990   0.742   1.013 -0.4722  0.3604 -0.4003
  301MOL    H1942619   5.173   0.613   1.120 -1.1470  0.2057  1.4284
  301MOL    H2042620   5.199   0.767   1.183 -1.8212 -1.6480  1.0928
  301MOL    H2142621   5.157   0.744   0.876 -0.0040 -1.6054  1.4058
  301MOL    H2242622   4.949   0.679   0.956 -1.4566 -0.1141  0.8284
  301MOL    C2342623   5.141   0.936   0.977  0.1670 -0.4295 -0.7101
  301MOL    C2442624   5.040   1.016   0.886 -0.9915  0.7075  0.0464
  301MOL    O2542625   4.909   1.009   0.942 -0.5510 -0.1361  0.1087
  301MOL    H2642626   5.142   0.971   1.080  0.4408 -0.8311 -0.5740
  301MOL    H2742627   5.243   0.951   0.942  0.8688  1.5040  2.0111
  301MOL    H2842628   5.038   0.964   0.790 -1.5387  0.0159  0.4228
  301MOL    H2942629   4.897   0.917   0.959 -0.7659 -0.0313  0.5441
  301MOL    C3042630   5.066   1.166   0.879  0.1797  0.1441  0.2513
  301MOL    C3142631   5.199   1.218   0.823  0.2884  0.6365  0.2375
  301MOL    O3242632   5.238   1.145   0.709 -0.1380 -0.4061  0.0566
  301MOL    H3342633   4.991   1.208   0.812  0.4705 -1.5192 -1.1572
  301MOL    H3442634   5.057   1.209   0.978 -0.4543  0.2094  0.1646
  301MOL    H3542635   5.263   1.194   0.907 -2.8898 -1.7329  2.1146
  301MOL    H3642636   5.327   1.166   0.687 -0.2598  0.1320  0.0637
  301MOL    C3742637   5.203   1.367   0.810 -0.8424 -0.3707 -0.1988
  301MOL    C3842638   5.337   1.434   0.817 -0.7650  0.4842 -0.8840
  301MOL    O3942639   5.312   1.569   0.786 -0.0687 -0.0397 -0.1574
  301MOL    H4042640   5.145   1.391   0.722 -1.8104 -2.7847 -0.2695
  301MOL    H4142641   5.153   1.405   0.899  1.2635  1.1208  0.3976
  301MOL    H4242642   5.404   1.386   0.746 -0.0468  2.0829 -1.3149
  301MOL    H4342643   5.396   1.609   0.772  0.3085  0.2823  2.6014
  301MOL    C4442644   5.400   1.437   0.963  0.4794 -0.5412 -0.5074
  301MOL    C4542645   5.490   1.318   1.006 -0.2153  0.8909 -0.7695
  301MOL    O4642646   5.622   1.347   0.976  0.3148 -0.3426  0.6306
  301MOL    H4742647   5.456   1.527   0.986 -1.7572  1.1343 -1.4629
  301MOL    H4842648   5.320   1.453   1.035  1.4483 -2.0740  0.9729
  301MOL    H4942649   5.471   1.228   0.947 -1.3351  1.4144 -1.2244
  301MOL    H5042650   5.678   1.271   0.985  2.4692  0.8930 -1.6299
  301MOL    C5142651   5.473   1.275   1.157 -0.5717 -0.0976 -0.2284
  301MOL    C5242652   5.347   1.193   1.185 -0.0803  0.0589  0.2361
  301MOL    O5342653   5.377   1.065   1.130 -0.0991  0.5911 -0.0810
  301MOL    H5442654   5.563   1.221   1.186  0.9406  0.5637 -3.4835
  301MOL    H5542655   5.490   1.368   1.212  0.8513  0.0848 -0.9400
  301MOL    H5642656   5.258   1.244   1.148  0.4746  3.1572  2.8571
  301MOL    H5742657   5.454   1.028   1.169  0.4464 -0.8757 -2.4386
  301MOL    C5842658   5.339   1.183   1.335 -0.1822  0.2385 -0.8534
  301MOL    C5942659   5.213   1.123   1.404  0.5535  0.0853  0.0861
  301MOL    O6042660   5.239   0.981   1.415 -0.0173 -0.6197 -0.2486
  301MOL    H6142661   5.426   1.127   1.370 -1.5003 -0.4422  1.4698
  301MOL    H6242662   5.352   1.284   1.375  0.2445  0.3359 -1.2294
  301MOL    H6342663   5.127   1.130   1.337  0.8710  1.5149 -0.2033
  301MOL    H6442664   5.272   0.953   1.331  2.4216  0.8752  0.1418
  301MOL    C6542665   5.176   1.184   1.540 -0.7324 -0.2695 -0.7638
  301MOL    C6642666   5.052   1.270   1.543 -0.1501 -0.3192  0.6732
  301MOL    O6742667   5.017   1.297   1.673 -0.0913  0.5106  0.2697
  301MOL    H6842668   5.147   1.101   1.604 -1.4252  1.1687  0.8371
  301MOL    H6942669   5.258   1.234   1.593  0.4598 -0.1582 -2.6614
  301MOL    H7042670   4.967   1.209   1.510 -1.8410  1.5933  1.3462
  301MOL    H7142671   4.930   1.332   1.683 -0.2378 -0.0407  1.0580
  301MOL    C7242672   5.081   1.399   1.449 -0.1036  0.1659 -0.1695
  301MOL    C7342673   4.963   1.490   1.435  0.3971 -0.5952  0.2084
  301MOL    O7442674   5.018   1.616   1.418 -0.5478 -0.0436 -0.2643
  301MOL    H7542675   5.167   1.455   1.486  1.3504 -3.1697  1.8227
  301MOL    H7642676   5.107   1.364   1.349 -2.0273 -1.4798 -0.1316
  301MOL    H7742677   4.899   1.496   1.523 -0.2336  1.2582 -0.3532
  301MOL    H7842678   4.947   1.666   1.380 -0.8811 -0.5097 -0.2592
  301MOL    C7942679   4.874   1.456   1.305 -0.8788  1.2319  0.1974
  301MOL    C8042680   4.727   1.517   1.290  0.1158  0.1033  0.3427
  301MOL    O8142681   4.736   1.650   1.247 -0.0699  0.4676 -0.3388
  301MOL    H8242682   4.931   1.474   1.214  1.4156  0.1263  1.3560
  301MOL    H8342683   4.860   1.348   1.308 -0.3202  1.0748 -2.0612
  301MOL    H8442684   4.678   1.511   1.388  3.5457 -0.4850  2.0809
  301MOL    H8542685   4.663   1.674   1.193 -0.4277 -0.5727 -0.3294
  301MOL    C8642686   4.634   1.432   1.194  0.3108  0.4500  0.4112
  301MOL    C8742687   4.485   1.470   1.211 -0.2459 -0.4828  0.3854
  301MOL    O8842688   4.467   1.603   1.162  0.3789 -0.3430  0.8214
  301MOL    H8942689   4.669   1.452   1.093  0.6466  2.1411  0.8522
  301MOL    H9042690   4.651   1.325   1.207  0.6804  0.4286 -0.2199
  301MOL    H9142691   4.458   1.471   1.317 -2.2804  3.3954 -0.1022
  301MOL    H9242692   4.389   1.636   1.205 -1.5949 -0.9845 -2.1522
  301MOL    C9342693   4.389   1.373   1.141  0.1958 -0.1766 -0.3149
  301MOL    C9442694   4.394   1.363   0.991 -0.9327  0.2487  0.2993
  301MOL    O9542695   4.352   1.241   0.941  0.5125  0.0386 -0.2238
  301MOL    H9642696   4.414   1.273   1.177 -0.3785  0.1544  1.0236
  301MOL    H9742697   4.286   1.388   1.173  0.3442  2.8367 -1.0908
  301MOL    H9842698   4.494   1.392   0.958 -0.7115 -0.0344  0.7274
  301MOL    H9942699   4.263   1.223   0.969  0.0901 -0.7866 -2.0119
  301MOL   C10042700   4.290   1.465   0.931  0.6152  0.5434  0.2251
  301MOL   C10142701   4.259   1.475   0.776  0.4503 -0.0785 -0.3493
  301MOL   O10242702   4.145   1.561   0.753 -0.1686  0.2334  0.0420
  301MOL   H10342703   4.194   1.440   0.976  0.6556  0.0494  0.0509
  301MOL   H10442704   4.305   1.568   0.962 -1.7553  0.8135  0.5316
  301MOL   H10542705   4.226   1.374   0.750  1.2928 -0.3331 -0.4448
  301MOL   H10642706   4.067   1.510   0.745 -0.4453  0.0362  3.3373
  301MOL   C10742707   4.383   1.540   0.710  0.0693 -0.9546 -0.5029
  301MOL   C10842708   4.482   1.442   0.641 -0.4082 -0.2417 -0.0502
  301MOL   O10942709   4.415   1.398   0.530  0.5421 -0.1024 -0.2770
  301MOL   H11042710   4.356   1.620   0.640  0.3707  0.2041  0.6818
  301MOL   H11142711   4.438   1.590   0.790 -1.3250 -1.4021  0.7704
  301MOL   H11242712   4.509   1.358   0.704  0.1737 -0.1112 -0.1194
  301MOL   H11342713   4.430   1.305   0.516 -1.8637 -1.0080  2.5120
  301MOL   C11442714   4.610   1.519   0.597  0.2322 -0.4234  0.2518
  301MOL   C11542715   4.713   1.564   0.697 -0.1427 -0.1356 -0.6387
  301MOL   O11642716   4.745   1.460   0.787 -0.2100  0.1227  0.8436
  301MOL   H11742717   4.655   1.453   0.524  2.2457 -1.8391  2.6935
  301MOL   H11842718   4.596   1.608   0.536 -0.4217 -0.4191  0.4004
  301MOL   H11942719   4.670   1.638   0.763 -1.4030 -1.4406  0.0367
  301MOL   H12042720   4.756   1.382   0.735  0.7064  0.4173  0.5934
  301MOL   C12142721   4.847   1.598   0.631  0.1358  0.1488  0.1830
  301MOL   C12242722   4.956   1.631   0.728 -0.1455 -0.6353 -0.0306
  301MOL   O12342723   5.078   1.641   0.658  0.1794  0.1071 -0.2422
  301MOL   H12442724   4.882   1.509   0.579 -0.0018 -0.3315  0.9071
  301MOL   H12542725   4.825   1.675   0.556  1.1333  0.7568  0.5090
  301MOL   H12642726   4.960   1.541   0.790  0.7644 -1.1033 -0.7585
  301MOL   H12742727   5.148   1.600   0.707  1.0426  1.7682 -0.0344
  301MOL   C12842728   4.936   1.767   0.805  0.2294 -0.7695 -0.2662
  301MOL   C12942729   5.040   1.796   0.913  0.8611 -0.5415  0.1482
  301MOL   O13042730   4.991   1.913   0.978 -0.4202  0.3598 -0.1921
  301MOL   H13142731   4.938   1.854   0.739 -1.2706 -1.6867 -1.5691
  301MOL   H13242732   4.840   1.766   0.857 -0.0139 -2.7074 -0.6914
  301MOL   H13342733   5.139   1.806   0.867  0.3622 -3.0012 -1.5670
  301MOL   H13442734   5.063   1.967   1.006 -1.4422  1.1795  0.9360
  301MOL   C13542735   5.057   1.692   1.027 -0.0503 -0.6027  0.9605
  301MOL   C13642736   5.173   1.728   1.128 -0.3072  0.4549 -0.3751
  301MOL   O13742737   5.191   1.617   1.213 -0.9095  0.2634  0.1598
  301MOL   H13842738   4.960   1.669   1.072  0.4125  0.0838  2.3258
  301MOL   H13942739   5.099   1.600   0.985  1.1918 -0.4537  1.8386
  301MOL   H14042740   5.164   1.816   1.191  0.9383 -1.8437  3.1574
  301MOL   H14142741   5.122   1.618   1.277  0.8649  1.8806  2.1631
  301MOL   H14242742   5.267   1.734   1.072  1.6160 -1.0528  2.5618
  302MOL     C142743   5.473   6.506   3.769  0.0479  0.9436  0.0182
  302MOL     C242744   5.428   6.491   3.626 -0.4447 -0.4147 -0.0131
  302MOL     O342745   5.551   6.511   3.562  0.2013 -0.1599  0.1736
  302MOL     H442746   5.391   6.544   3.830  1.7697  1.3877  2.1157
  302MOL     H542747   5.544   6.588   3.782  2.2254 -0.5306 -2.1819
  302MOL     H642748   5.366   6.570   3.584 -1.6854 -1.2405  0.2352
  302MOL     H742749   5.549   6.578   3.496  1.3311 -0.0576  0.2324
  302MOL     H842750   5.509   6.425   3.832  1.1953  0.3420 -1.3663
  302MOL     C942751   5.384   6.349   3.588  0.4187 -0.1038 -0.1337
  302MOL    C1042752   5.238   6.313   3.619 -0.5730  0.2017 -0.4621
  302MOL    O1142753   5.154   6.403   3.556  0.1155  0.6015  0.0270
  302MOL    H1242754   5.399   6.343   3.480 -0.3334 -0.6599 -0.2044
  302MOL    H1342755   5.457   6.280   3.630  0.6797  0.1008 -0.2468
  302MOL    H1442756   5.210   6.320   3.724  0.5486  1.4227 -0.2152
  302MOL    H1542757   5.066   6.396   3.587 -0.2758 -2.9551 -1.6775
  302MOL    C1642758   5.203   6.171   3.565 -0.3198  0.1069  0.3093
  302MOL    C1742759   5.247   6.062   3.665  0.2303 -0.3889 -0.1540
  302MOL    O1842760   5.150   6.065   3.767  0.5568 -0.3157  0.3167
  302MOL    H1942761   5.096   6.163   3.548 -0.1247  0.3042 -1.1300
  302MOL    H2042762   5.251   6.151   3.469  0.5430  1.6752  0.4020
  302MOL    H2142763   5.343   6.089   3.709  1.2838 -0.6970 -2.1871
  302MOL    H2242764   5.081   6.008   3.737  2.1034 -1.5242 -0.9761
  302MOL    C2342765   5.263   5.919   3.606  0.4532  0.0588 -0.3595
  302MOL    C2442766   5.395   5.882   3.526 -0.4310  0.2297  0.1471
  302MOL    O2542767   5.488   5.835   3.614  0.0958  0.4753  0.1071
  302MOL    H2642768   5.254   5.854   3.693 -1.7222  0.2525 -0.3997
  302MOL    H2742769   5.175   5.888   3.549 -0.3170 -1.9559  1.8585
  302MOL    H2842770   5.435   5.970   3.476  0.4022  0.3686  1.0433
  302MOL    H2942771   5.570   5.870   3.585 -0.8250  2.4225 -0.2132
  302MOL    C3042772   5.380   5.779   3.413  0.5134  0.3453 -0.6599
  302MOL    C3142773   5.323   5.640   3.445 -0.3289  0.5292  0.1472
  302MOL    O3242774   5.349   5.561   3.332  0.1045 -0.9410  0.4898
  302MOL    H3342775   5.318   5.829   3.338  1.0216  0.6939 -0.8493
  302MOL    H3442776   5.477   5.766   3.367  2.2081 -1.0031  3.0843
  302MOL    H3542777   5.219   5.668   3.456  0.5490  3.0978  2.3735
  302MOL    H3642778   5.439   5.535   3.343  0.9450  2.0516  1.1105
  302MOL    C3742779   5.365   5.561   3.575  0.0886  0.5965 -0.4187
  302MOL    C3842780   5.285   5.429   3.594  0.5901 -0.3638 -0.6123
  302MOL    O3942781   5.335   5.365   3.700 -0.5816 -0.4286 -0.2153
  302MOL    H4042782   5.472   5.542   3.564  0.4532  2.4893 -0.2353
  302MOL    H4142783   5.352   5.623   3.664  2.6062 -0.2480  0.5821
  302MOL    H4242784   5.299   5.359   3.512 -0.0655 -1.5299  0.2678
  302MOL    H4342785   5.277   5.373   3.775 -0.6671 -2.7086  0.0047
  302MOL    C4442786   5.131   5.467   3.616 -0.7848 -0.1254 -0.2973
  302MOL    C4542787   5.036   5.352   3.652  0.3225  0.2613 -0.3136
  302MOL    O4642788   5.070   5.316   3.780 -0.6049 -0.5132 -0.1166
  302MOL    H4742789   5.106   5.541   3.692 -0.1614 -1.0184  0.7769
  302MOL    H4842790   5.082   5.497   3.523 -0.6450  1.0427  0.0010
  302MOL    H4942791   5.073   5.282   3.578 -0.1806  1.3558 -1.6412
  302MOL    H5042792   5.063   5.222   3.785 -0.7143 -0.4038  2.2976
  302MOL    C5142793   4.891   5.373   3.638 -0.1691 -0.0030  0.0215
  302MOL    C5242794   4.800   5.257   3.699 -0.4704 -0.1268  0.2973
  302MOL    O5342795   4.670   5.316   3.684 -0.5422 -0.1689  0.6487
  302MOL    H5442796   4.871   5.460   3.701 -1.0823  0.8080 -1.3415
  302MOL    H5542797   4.861   5.405   3.538  2.1068  0.2621 -0.5929
  302MOL    H5642798   4.825   5.239   3.803 -1.9209  0.4979  0.7709
  302MOL    H5742799   4.612   5.292   3.755 -2.7566 -2.8555 -1.9895
  302MOL    C5842800   4.794   5.131   3.614 -0.3507 -0.1075 -0.6964
  302MOL    C5942801   4.701   5.018   3.664  0.2474 -0.6910  0.0270
  302MOL    O6042802   4.702   4.919   3.566  0.3887  0.3753 -0.6573
  302MOL    H6142803   4.763   5.162   3.513  1.1649  1.9540 -0.5670
  302MOL    H6242804   4.894   5.090   3.601 -1.0161 -2.1341  0.3706
  302MOL    H6342805   4.600   5.059   3.659  0.0582 -0.9257  1.5597
  302MOL    H6442806   4.790   4.920   3.531 -0.0281  0.7601 -1.7075
  302MOL    C6542807   4.742   4.958   3.803  0.2240  0.3422  0.0866
  302MOL    C6642808   4.639   4.854   3.857 -0.1591 -0.2113 -0.1387
  302MOL    O6742809   4.686   4.806   3.985 -0.2553  0.0793  0.3000
  302MOL    H6842810   4.845   4.921   3.804  0.0351 -0.1858  1.1515
  302MOL    H6942811   4.739   5.039   3.876 -1.4011  1.6585 -1.3822
  302MOL    H7042812   4.624   4.772   3.788 -1.8376 -0.7146  0.8023
  302MOL    H7142813   4.715   4.879   4.038  0.8734  0.4126 -0.7499
  302MOL    C7242814   4.503   4.928   3.893 -0.1993  0.4493 -0.8383
  302MOL    C7342815   4.382   4.837   3.928 -0.5786  0.2895  0.2265
  302MOL    O7442816   4.410   4.783   4.058  0.4872  0.3266 -0.4527
  302MOL    H7542817   4.533   4.996   3.973 -0.4049  0.7726 -1.0370
  302MOL    H7642818   4.458   4.983   3.811 -0.4028 -1.2536 -1.8681
  302MOL    H7742819   4.364   4.753   3.862  1.1471 -1.0652  1.4306
  302MOL    H7842820   4.499   4.753   4.068  0.8248  0.1876 -3.4425
  302MOL    C7942821   4.247   4.909   3.955 -0.4131  1.0818  0.3963
  302MOL    C8042822   4.163   4.914   3.822 -0.3365  0.2788 -0.8235
  302MOL    O8142823   4.149   4.785   3.775  0.1406 -0.8669 -0.0818
  302MOL    H8242824   4.197   4.846   4.027 -0.9423 -1.7004 -2.3288
  302MOL    H8342825   4.246   5.004   4.009 -4.7724  1.4897 -0.2146
  302MOL    H8442826   4.216   4.965   3.742 -1.7544  2.1906 -0.5880
  302MOL    H8542827   4.131   4.788   3.682  1.5559  2.7541 -0.3149
  302MOL    C8642828   4.018   4.972   3.841 -0.0600 -0.0294  0.5770
  302MOL    C8742829   4.007   5.124   3.866 -0.2260 -0.0398  0.1325
  302MOL    O8842830   4.036   5.195   3.750 -0.7064 -0.0788  0.0926
  302MOL    H8942831   3.974   4.960   3.742  2.3995 -1.0436 -0.4190
  302MOL    H9042832   3.957   4.912   3.909  0.1991 -1.1564 -0.1731
  302MOL    H9142833   4.087   5.153   3.934  0.7301 -1.6161 -0.2888
  302MOL    H9242834   3.983   5.153   3.684 -1.1217  0.0127  0.3646
  302MOL    C9342835   3.870   5.165   3.923 -0.3046 -0.0601  0.9202
  302MOL    C9442836   3.856   5.317   3.960  0.0743 -0.3538  0.4642
  302MOL    O9542837   3.716   5.349   3.968  1.1011 -0.4143  0.0269
  302MOL    H9642838   3.794   5.141   3.848 -2.1095 -0.9221  2.9481
  302MOL    H9742839   3.847   5.102   4.009 -1.2669 -2.5975 -1.1112
  302MOL    H9842840   3.903   5.380   3.886  0.2594 -1.9475 -0.7876
  302MOL    H9942841   3.685   5.302   4.044  0.2155 -0.7594 -0.5334
  302MOL   C10042842   3.924   5.347   4.092 -0.2404 -0.3354  0.5888
  302MOL   C10142843   3.943   5.497   4.123 -0.4805 -0.1941  0.6288
  302MOL   O10242844   3.977   5.518   4.260  0.0806 -0.3164 -0.0615
  302MOL   H10342845   3.857   5.307   4.168 -0.4874 -4.3674 -1.6300
  302MOL   H10442846   4.010   5.280   4.096  0.4262  0.5623  2.1063
  302MOL   H10542847   3.852   5.552   4.105  0.4784  0.4629 -2.6320
  302MOL   H10642848   3.909   5.469   4.304  0.5268 -0.6334  0.2726
  302MOL   C10742849   4.062   5.555   4.050 -0.1274 -0.2708 -0.8199
  302MOL   C10842850   4.059   5.712   4.054  0.0278 -0.2351  0.4120
  302MOL   O10942851   4.177   5.767   4.091  0.0091 -0.2438 -0.0653
  302MOL   H11042852   4.154   5.523   4.099 -0.7551 -2.8491 -1.3026
  302MOL   H11142853   4.082   5.522   3.949 -1.0190 -0.7220 -0.8535
  302MOL   H11242854   3.980   5.748   4.120  0.9550 -1.4806  2.2310
  302MOL   H11342855   4.251   5.763   4.033  1.3444  2.3922  1.3733
  302MOL   C11442856   4.045   5.757   3.906 -0.1789 -1.0009  0.2140
  302MOL   C11542857   4.009   5.908   3.877 -0.1830 -0.1831  0.3405
  302MOL   O11642858   4.088   5.944   3.768  0.2925 -0.1651  0.4133
  302MOL   H11742859   4.125   5.722   3.841 -0.7656 -1.4758 -0.2592
  302MOL   H11842860   3.965   5.697   3.863 -1.2812 -0.1284  1.0071
  302MOL   H11942861   4.046   5.959   3.967  0.6853  1.8269 -1.1045
  302MOL   H12042862   4.176   5.915   3.787  0.0859  0.0464  1.7967
  302MOL   C12142863   3.861   5.950   3.852 -0.1895  0.5905  0.5295
  302MOL   C12242864   3.783   5.950   3.984 -0.0817 -0.2273 -0.1773
  302MOL   O12342865   3.823   6.051   4.070 -0.2179 -0.2924 -0.0493
  302MOL   H12442866   3.845   6.047   3.804  1.1852  1.6984  2.2759
  302MOL   H12542867   3.825   5.876   3.780  1.4241  0.2190  0.0983
  302MOL   H12642868   3.789   5.852   4.031 -1.4133 -0.6429 -0.8611
  302MOL   H12742869   3.889   6.020   4.130 -0.8138  0.4609  1.0166
  302MOL   C12842870   3.636   5.987   3.962  0.0104  0.7402  0.1738
  302MOL   C12942871   3.552   5.863   3.920  0.0492  0.2038 -0.3662
  302MOL   O13042872   3.525   5.765   4.028  0.3246  0.2731 -0.1093
  302MOL   H13142873   3.586   6.048   4.038  0.7452  1.0081  0.4430
  302MOL   H13242874   3.627   6.055   3.878  0.7670  0.4751 -0.1197
  302MOL   H13342875   3.611   5.804   3.850 -1.0610 -1.7269  0.2874
  302MOL   H13442876   3.491   5.683   3.998 -0.2070  0.8538 -1.0928
  302MOL   C13542877   3.424   5.907   3.856 -0.3262 -0.4265  0.1329
  302MOL   C13642878   3.454   5.956   3.715  0.1493  0.2819 -0.0401
  302MOL   O13742879   3.414   5.852   3.631  0.0086 -0.1345  0.9297
  302MOL   H13842880   3.345   5.832   3.864 -1.6241  1.0999  2.3164
  302MOL   H13942881   3.379   5.996   3.901  0.0614  0.0600 -0.4363
  302MOL   H14042882   3.558   5.981   3.698  0.2401  1.7732  2.4554
  302MOL   H14142883   3.486   5.795   3.611  2.5206  2.9013  0.9491
  302MOL   H14242884   3.392   6.045   3.707 -0.0207  0.2876  1.2504
  303MOL     C142885   5.858   3.267   6.085  0.4878  0.0284  0.0646
  303MOL     C242886   5.919   3.395   6.132  0.6120 -0.2114  0.5119
  303MOL     O342887   5.943   3.482   6.011 -0.5406 -0.5712 -0.4588
  303MOL     H442888   5.752   3.272   6.058  0.6182 -0.3213 -0.5104
  303MOL     H542889   5.841   3.202   6.171 -2.2295 -0.3153 -0.6761
  303MOL     H642890   6.017   3.380   6.178  0.7173  0.1031  0.3881
  303MOL     H742891   6.012   3.443   5.960 -0.0121 -0.5387  0.2251
  303MOL     H842892   5.896   3.212   5.999 -3.5872 -2.8699 -0.0338
  303MOL     C942893   5.823   3.467   6.230  0.5559 -0.2145  0.3666
  303MOL    C1042894   5.872   3.598   6.301 -0.0078 -0.0529  0.3566
  303MOL    O1142895   5.766   3.649   6.376  0.7069  0.2282  0.7125
  303MOL    H1242896   5.737   3.488   6.167  0.1250  1.2475  1.4145
  303MOL    H1342897   5.791   3.396   6.307 -1.6312  0.7842  0.4156
  303MOL    H1442898   5.905   3.668   6.225 -1.4899  0.6925  0.3687
  303MOL    H1542899   5.771   3.742   6.363 -1.6596  0.3596  0.6054
  303MOL    C1642900   5.996   3.554   6.394  0.5101 -0.3746 -0.8174
  303MOL    C1742901   6.060   3.665   6.479  0.5798  0.1499 -0.7790
  303MOL    O1842902   6.108   3.602   6.600 -0.0090  0.0186  0.3363
  303MOL    H1942903   5.955   3.478   6.461 -0.3220  1.0278  0.3005
  303MOL    H2042904   6.076   3.508   6.335  0.3554 -0.6448 -0.8151
  303MOL    H2142905   5.986   3.733   6.521  2.1909  1.8010 -0.5171
  303MOL    H2242906   6.128   3.515   6.569 -0.4324 -0.4878  1.4908
  303MOL    C2342907   6.182   3.738   6.426  0.3019  0.1777 -0.3642
  303MOL    C2442908   6.158   3.819   6.306 -0.0542  0.2565 -0.3864
  303MOL    O2542909   6.141   3.742   6.185 -0.1451  0.0533  0.3141
  303MOL    H2642910   6.218   3.805   6.504  1.3295  1.6613 -2.0719
  303MOL    H2742911   6.266   3.670   6.408  1.4681  1.4179  0.2932
  303MOL    H2842912   6.253   3.872   6.301 -1.7345  3.2089 -2.2190
  303MOL    H2942913   6.161   3.800   6.112 -0.4597 -0.6373 -0.3291
  303MOL    C3042914   6.042   3.924   6.319  0.1303 -0.5798  0.0732
  303MOL    C3142915   6.041   4.021   6.443 -0.1810  0.4053  0.4042
  303MOL    O3242916   6.089   4.139   6.393 -0.3576 -0.6556  0.1688
  303MOL    H3342917   6.021   3.984   6.231  0.0173  0.5863  0.8869
  303MOL    H3442918   5.949   3.871   6.340  1.1779 -2.1399  0.8617
  303MOL    H3542919   6.104   3.993   6.528 -0.0470 -1.9542 -0.4525
  303MOL    H3642920   6.177   4.145   6.425  0.1660  1.7557 -1.6058
  303MOL    C3742921   5.897   4.056   6.493  0.4060  0.2624 -0.2072
  303MOL    C3842922   5.901   4.139   6.620 -0.4443 -0.1755  0.1270
  303MOL    O3942923   5.772   4.194   6.617  0.2212 -0.0738  0.1289
  303MOL    H4042924   5.844   4.109   6.413 -0.9416 -1.7554 -0.6895
  303MOL    H4142925   5.836   3.975   6.534 -1.3557  1.1139 -1.1142
  303MOL    H4242926   5.959   4.231   6.622  1.6215 -1.4496 -0.1066
  303MOL    H4342927   5.714   4.123   6.640  0.7803 -0.5273  0.1463
  303MOL    C4442928   5.929   4.058   6.744  1.4019 -0.1438  0.0191
  303MOL    C4542929   5.919   4.139   6.874 -0.4587 -0.0449 -0.0236
  303MOL    O4642930   5.949   4.047   6.978  0.3030 -0.1244 -0.2623
  303MOL    H4742931   5.865   3.970   6.745 -0.2252  1.0001  1.1034
  303MOL    H4842932   6.033   4.026   6.739  0.7744 -2.4642  1.1358
  303MOL    H4942933   5.813   4.156   6.893 -0.3799  0.5472 -0.1122
  303MOL    H5042934   6.040   4.054   7.003  0.2818 -1.0950  0.1171
  303MOL    C5142935   6.001   4.268   6.879 -0.2668 -0.3665  0.6017
  303MOL    C5242936   5.928   4.389   6.916  0.0149 -0.4981  0.2478
  303MOL    O5342937   6.015   4.499   6.923 -0.4875  0.2558  0.2363
  303MOL    H5442938   6.075   4.250   6.956 -0.1546 -1.6579  0.2049
  303MOL    H5542939   6.053   4.285   6.784 -2.1407  0.5150 -0.2958
  303MOL    H5642940   5.885   4.363   7.013 -0.3076 -1.7739 -0.2261
  303MOL    H5742941   6.060   4.505   6.840  0.3731  0.0266  0.6789
  303MOL    C5842942   5.818   4.439   6.816 -0.0437 -0.2276  0.3097
  303MOL    C5942943   5.728   4.560   6.858 -0.0977 -0.0995  0.1851
  303MOL    O6042944   5.664   4.606   6.738 -0.3406 -0.3827 -0.3950
  303MOL    H6142945   5.858   4.446   6.715 -1.3222 -0.9620 -0.2552
  303MOL    H6242946   5.748   4.358   6.798  1.0442 -1.7355  2.5780
  303MOL    H6342947   5.792   4.635   6.904 -0.0870  0.5263 -0.8225
  303MOL    H6442948   5.726   4.645   6.678 -0.1426 -0.8754 -0.5119
  303MOL    C6542949   5.618   4.510   6.963 -0.3108 -0.2936  0.5875
  303MOL    C6642950   5.524   4.619   7.033  0.1908 -0.3958  0.1834
  303MOL    O6742951   5.439   4.536   7.118 -0.4851  0.1458  0.0645
  303MOL    H6842952   5.566   4.428   6.914 -1.0635 -0.9006  2.3587
  303MOL    H6942953   5.669   4.457   7.043  0.1423 -2.8261 -1.3096
  303MOL    H7042954   5.456   4.660   6.959  1.5923 -0.6573 -1.2909
  303MOL    H7142955   5.406   4.478   7.052 -0.4605  1.5861 -1.2360
  303MOL    C7242956   5.591   4.716   7.127  0.2262  0.0668 -0.1953
  303MOL    C7342957   5.674   4.833   7.070  0.9156  0.1746 -0.2314
  303MOL    O7442958   5.589   4.941   7.061 -0.0612  0.2911  0.0959
  303MOL    H7542959   5.520   4.755   7.201 -1.7521  0.2805 -2.1546
  303MOL    H7642960   5.652   4.648   7.187 -1.7095 -0.6425  1.0338
  303MOL    H7742961   5.719   4.815   6.972  0.5463  5.3875 -1.4846
  303MOL    H7842962   5.541   4.939   6.980 -2.6004  0.7528  1.5649
  303MOL    C7942963   5.798   4.862   7.161  0.3802 -0.1136 -0.8708
  303MOL    C8042964   5.931   4.785   7.138 -0.1284 -0.2327 -0.1140
  303MOL    O8142965   5.903   4.647   7.143  0.4355  0.0328  0.5331
  303MOL    H8242966   5.826   4.967   7.159 -0.6385  0.1457 -3.2616
  303MOL    H8342967   5.761   4.845   7.262 -1.1979  0.3047 -1.3692
  303MOL    H8442968   6.010   4.808   7.210  0.8794  0.4941 -1.4176
  303MOL    H8542969   5.977   4.600   7.108 -0.5861 -0.3243 -1.2703
  303MOL    C8642970   6.012   4.803   7.003  0.5384 -0.4522  0.0350
  303MOL    C8742971   6.056   4.947   6.956 -0.8682  0.3522 -0.0139
  303MOL    O8842972   6.171   4.939   6.875 -0.3713  0.1096 -0.1065
  303MOL    H8942973   6.105   4.748   7.018 -0.2340 -1.0646  3.0503
  303MOL    H9042974   5.961   4.754   6.920  1.5489 -0.2786 -0.6879
  303MOL    H9142975   6.081   5.002   7.047  0.2849  0.2389 -0.2626
  303MOL    H9242976   6.248   4.952   6.928  0.2666 -0.6176 -0.8216
  303MOL    C9342977   5.934   5.016   6.885  0.5141  0.0998  0.2968
  303MOL    C9442978   5.967   5.165   6.849  0.3550 -0.6211 -0.5195
  303MOL    O9542979   6.051   5.158   6.734  0.2194  0.0004  0.3215
  303MOL    H9642980   5.900   4.954   6.801  2.5262 -1.2304  0.4474
  303MOL    H9742981   5.849   5.021   6.953  0.5930 -1.0024  0.4760
  303MOL    H9842982   6.026   5.195   6.935  0.5629  1.0498 -1.2287
  303MOL    H9942983   6.092   5.073   6.740  1.9670  0.6131 -2.2740
  303MOL   C10042984   5.850   5.265   6.832  0.3566  0.2759  0.3186
  303MOL   C10142985   5.772   5.318   6.954 -0.6162 -0.4397  0.2160
  303MOL   O10242986   5.866   5.401   7.037 -0.5768 -0.0698  0.4607
  303MOL   H10342987   5.888   5.349   6.773  0.2505  1.5682  2.0509
  303MOL   H10442988   5.781   5.203   6.775  1.1158 -0.1896 -0.1027
  303MOL   H10542989   5.722   5.240   7.012  0.9064  0.8849  3.4154
  303MOL   H10642990   5.884   5.357   7.119 -1.6331  0.2852  0.8983
  303MOL   C10742991   5.661   5.420   6.915  0.3757  0.2643 -0.5467
  303MOL   C10842992   5.553   5.370   6.816  0.9337 -0.2113  0.6215
  303MOL   O10942993   5.432   5.426   6.863  0.3204  0.2324  0.0211
  303MOL   H11042994   5.611   5.446   7.009 -1.1036  0.0884 -1.2684
  303MOL   H11142995   5.704   5.510   6.871  3.3335 -0.9018 -0.1540
  303MOL   H11242996   5.534   5.263   6.826 -1.8824  0.3506  2.0086
  303MOL   H11342997   5.432   5.518   6.841 -0.1137  0.1062 -0.5144
  303MOL   C11442998   5.589   5.416   6.671  0.1423  0.0646 -0.2866
  303MOL   C11542999   5.492   5.372   6.566 -0.1382  0.0872  0.5594
  303MOL   O11643000   5.557   5.403   6.441 -0.3406  0.3865  0.1033
  303MOL   H11743001   5.599   5.525   6.667  0.2536  0.1179  1.3787
  303MOL   H11843002   5.685   5.369   6.651  1.3090  1.0989  2.5551
  303MOL   H11943003   5.400   5.430   6.577 -0.9689 -1.4474  1.9915
  303MOL   H12043004   5.590   5.491   6.436  0.3833  0.0839 -0.5217
  303MOL   C12143005   5.470   5.221   6.564  0.1472  0.7443 -0.4857
  303MOL   C12243006   5.339   5.173   6.639  0.6527 -0.2661  0.0900
  303MOL   O12343007   5.228   5.222   6.569 -0.4382 -0.0135  0.1050
  303MOL   H12443008   5.469   5.186   6.461  0.3459  3.3421 -1.4278
  303MOL   H12543009   5.559   5.179   6.611 -1.2115 -2.4092 -0.6579
  303MOL   H12643010   5.335   5.200   6.744  0.2457 -0.0060  0.0083
  303MOL   H12743011   5.251   5.232   6.478 -0.9259 -0.8529 -0.1176
  303MOL   C12843012   5.324   5.027   6.633  0.7447  0.1995 -0.0072
  303MOL   C12943013   5.424   4.938   6.699  0.2096  0.2222 -0.0413
  303MOL   O13043014   5.434   4.955   6.841  0.2996 -0.0820  0.7351
  303MOL   H13143015   5.226   5.014   6.679  0.6291 -0.1747 -0.3496
  303MOL   H13243016   5.311   4.990   6.531 -0.9783 -2.0186  0.9867
  303MOL   H13343017   5.522   4.953   6.653  1.0581  1.4867  2.1146
  303MOL   H13443018   5.343   4.954   6.865 -0.0571 -0.5681 -0.5826
  303MOL   C13543019   5.396   4.789   6.690  0.4728  0.0411  0.2487
  303MOL   C13643020   5.421   4.728   6.552  0.0698  0.0816 -0.0304
  303MOL   O13743021   5.451   4.587   6.558  0.3403  0.0509  0.1739
  303MOL   H13843022   5.457   4.735   6.762 -0.3561 -0.1048  0.8499
  303MOL   H13943023   5.296   4.766   6.729  1.1739 -0.0401  2.0338
  303MOL   H14043024   5.517   4.761   6.513 -0.8718  0.7295 -1.8213
  303MOL   H14143025   5.506   4.578   6.634  1.5346  1.6467 -0.4451
  303MOL   H14243026   5.338   4.748   6.484 -0.2598 -0.7618  0.1143
  304MOL     C143027   1.829   3.215   1.884  0.3362 -0.1176 -0.4618
  304MOL     C243028   1.737   3.096   1.896  0.2736  0.1397  0.1678
  304MOL     O343029   1.802   3.006   1.985  0.1434  0.4199 -0.5910
  304MOL     H443030   1.851   3.260   1.980 -0.0439  0.2227 -0.5336
  304MOL     H543031   1.796   3.289   1.811  0.7548 -0.4079 -0.9491
  304MOL     H643032   1.726   3.049   1.798  1.5182  0.5940 -0.2002
  304MOL     H743033   1.783   2.919   1.952 -2.2473  0.5718  0.3144
  304MOL     H843034   1.916   3.175   1.832  0.0302 -1.4753  0.0643
  304MOL     C943035   1.597   3.139   1.955  0.1881 -0.9891  0.1476
  304MOL    C1043036   1.501   3.015   1.992  0.0677  0.3267  0.3756
  304MOL    O1143037   1.461   2.997   2.124  0.0148 -1.0130 -0.4196
  304MOL    H1243038   1.603   3.194   2.049 -3.0013 -0.5284  0.1492
  304MOL    H1343039   1.555   3.202   1.876  0.3612 -1.7872 -0.5731
  304MOL    H1443040   1.553   2.928   1.953 -1.1803  0.3339 -1.3181
  304MOL    H1543041   1.451   3.083   2.163 -0.0283 -0.4301 -1.6849
  304MOL    C1643042   1.369   3.027   1.919  0.2175 -0.7447 -0.5317
  304MOL    C1743043   1.292   2.901   1.882  0.4702  0.3056 -0.1188
  304MOL    O1843044   1.181   2.940   1.817  0.3930  0.3291 -0.2570
  304MOL    H1943045   1.297   3.089   1.974  1.6789  0.5039  0.0290
  304MOL    H2043046   1.391   3.076   1.824  1.7930  1.8122  1.0813
  304MOL    H2143047   1.254   2.846   1.968  0.3107 -0.1676 -0.4886
  304MOL    H2243048   1.120   2.868   1.807  0.2083  0.4680 -0.1411
  304MOL    C2343049   1.371   2.810   1.789 -1.1891 -0.6885  0.4655
  304MOL    C2443050   1.419   2.683   1.868  0.7105 -0.1997  0.4967
  304MOL    O2543051   1.315   2.588   1.865 -0.1291 -0.0477  0.1798
  304MOL    H2643052   1.306   2.787   1.704 -0.7268  1.3456 -0.4617
  304MOL    H2743053   1.449   2.867   1.740 -0.5675 -2.1745 -0.2989
  304MOL    H2843054   1.442   2.696   1.974  3.1664 -0.2541  0.0037
  304MOL    H2943055   1.346   2.512   1.913  0.1721  1.6270  2.6949
  304MOL    C3043056   1.540   2.614   1.797 -0.3970  0.7714  0.5788
  304MOL    C3143057   1.666   2.694   1.765 -1.7301 -0.3544 -0.3183
  304MOL    O3243058   1.736   2.755   1.871  0.5696 -0.2161 -0.5863
  304MOL    H3343059   1.574   2.517   1.835 -0.4152 -0.1218 -1.6220
  304MOL    H3443060   1.515   2.597   1.693  0.9680 -0.6360  0.4679
  304MOL    H3543061   1.636   2.769   1.691 -4.0630 -0.7956  0.1359
  304MOL    H3643062   1.772   2.685   1.924  0.8193  0.0898 -0.3402
  304MOL    C3743063   1.773   2.602   1.698  0.7870 -0.0147 -0.7905
  304MOL    C3843064   1.904   2.674   1.661 -0.0519 -0.1304  0.2246
  304MOL    O3943065   2.020   2.580   1.649 -0.1214 -0.9775 -0.0385
  304MOL    H4043066   1.822   2.534   1.767  2.9160  1.4636 -0.8229
  304MOL    H4143067   1.729   2.560   1.608 -1.7555 -1.5919  1.0856
  304MOL    H4243068   1.935   2.744   1.739 -0.3848  0.4948 -0.2036
  304MOL    H4343069   2.010   2.509   1.711 -1.2220  1.6530  2.9161
  304MOL    C4443070   1.895   2.745   1.522 -0.1238  0.3964  0.1665
  304MOL    C4543071   2.007   2.846   1.499 -0.4282 -0.2049 -0.1853
  304MOL    O4643072   1.986   2.864   1.362  0.2341 -0.1588 -0.3422
  304MOL    H4743073   1.882   2.673   1.441 -0.0230  2.3807 -1.6663
  304MOL    H4843074   1.803   2.804   1.527  0.7335  1.8929 -1.0354
  304MOL    H4943075   2.102   2.800   1.524 -0.5343 -1.0267 -1.3114
  304MOL    H5043076   2.042   2.802   1.317  0.8231  1.5661 -2.0954
  304MOL    C5143077   1.975   2.982   1.578  0.0606 -0.1895  0.2930
  304MOL    C5243078   2.067   3.096   1.532 -0.0735  0.2563 -0.2927
  304MOL    O5343079   2.015   3.216   1.584 -0.3556 -0.2174  0.2757
  304MOL    H5443080   1.870   3.013   1.580 -0.0803 -0.7171  2.6474
  304MOL    H5543081   1.986   2.968   1.686 -0.2102 -2.0180  0.0928
  304MOL    H5643082   2.060   3.102   1.424 -1.3971  2.5782 -0.0986
  304MOL    H5743083   1.924   3.231   1.564  0.4922  2.6022 -1.7280
  304MOL    C5843084   2.226   3.098   1.570  0.0603 -0.2824  0.6539
  304MOL    C5943085   2.307   3.200   1.487 -0.6681  0.1570 -0.3988
  304MOL    O6043086   2.257   3.319   1.542 -0.0538  0.1520  0.3787
  304MOL    H6143087   2.242   3.106   1.678  0.3872  0.1079  0.5753
  304MOL    H6243088   2.261   2.999   1.541  2.5744  1.4045 -2.3257
  304MOL    H6343089   2.275   3.199   1.383  1.4631  1.7144 -1.1077
  304MOL    H6443090   2.166   3.305   1.563 -0.0204 -0.4861  0.1184
  304MOL    C6543091   2.460   3.210   1.493  0.2133  0.2077  0.4936
  304MOL    C6643092   2.537   3.109   1.406  0.4650 -0.0495  0.5977
  304MOL    O6743093   2.509   3.128   1.270  0.5548  0.5927 -0.3205
  304MOL    H6843094   2.483   3.304   1.444 -1.7511  0.6300  0.3394
  304MOL    H6943095   2.493   3.218   1.597 -0.6499  0.1519  0.7773
  304MOL    H7043096   2.501   3.009   1.427 -1.4117  0.1120 -1.6126
  304MOL    H7143097   2.422   3.096   1.250  0.2999  0.5208  0.8667
  304MOL    C7243098   2.691   3.114   1.418  0.6581 -0.1358 -0.1265
  304MOL    C7343099   2.747   3.084   1.559  0.7737  0.1093  0.5359
  304MOL    O7443100   2.738   2.941   1.591 -0.0240 -0.5650 -0.4688
  304MOL    H7543101   2.729   3.048   1.340  1.7226  2.0030 -1.4383
  304MOL    H7643102   2.723   3.217   1.405  0.0591  0.3621  2.0634
  304MOL    H7743103   2.673   3.123   1.630 -1.5554 -0.6379 -1.4030
  304MOL    H7843104   2.695   2.947   1.675 -0.3285 -0.2012 -0.6507
  304MOL    C7943105   2.894   3.137   1.585  0.5943  0.1425  0.3015
  304MOL    C8043106   2.903   3.291   1.591  0.6282 -0.0403  0.8445
  304MOL    O8143107   2.828   3.334   1.702 -0.6039 -0.1869 -0.1037
  304MOL    H8243108   2.938   3.095   1.676  0.1773 -0.6868  0.1232
  304MOL    H8343109   2.954   3.111   1.498  0.2555  3.3323 -0.9365
  304MOL    H8443110   2.858   3.342   1.506 -0.0005 -1.6045  0.2021
  304MOL    H8543111   2.876   3.320   1.782 -3.1905  1.0351  1.7235
  304MOL    C8643112   3.050   3.348   1.605 -0.5333  0.1506  0.2892
  304MOL    C8743113   3.141   3.324   1.480 -0.5016 -0.3153 -0.1670
  304MOL    O8843114   3.076   3.363   1.364 -0.2861  0.6255  0.5199
  304MOL    H8943115   3.048   3.456   1.621  0.7854 -0.0507  1.9272
  304MOL    H9043116   3.102   3.300   1.688  0.7700  0.7182 -0.1926
  304MOL    H9143117   3.146   3.215   1.481 -0.3196 -0.3048  0.0044
  304MOL    H9243118   3.111   3.306   1.298 -0.9272 -1.3644  1.8387
  304MOL    C9343119   3.277   3.386   1.496 -0.2516 -0.1354 -0.2126
  304MOL    C9443120   3.284   3.535   1.467  0.2332  0.2384 -0.7110
  304MOL    O9543121   3.406   3.585   1.520  0.0795 -0.1724  1.0357
  304MOL    H9643122   3.319   3.350   1.590  0.5040 -1.3155 -0.9819
  304MOL    H9743123   3.338   3.337   1.420  1.6550  0.0793  1.1412
  304MOL    H9843124   3.194   3.576   1.514  0.0163 -0.9639 -0.0447
  304MOL    H9943125   3.456   3.511   1.550  1.6639  0.7919  0.8231
  304MOL   C10043126   3.290   3.573   1.319  0.4279 -0.0236 -0.8988
  304MOL   C10143127   3.262   3.717   1.293 -0.2683 -0.9225 -0.5908
  304MOL   O10243128   3.273   3.734   1.156  0.2375  1.1507 -0.3614
  304MOL   H10343129   3.385   3.548   1.273  1.8395  0.7320  1.5168
  304MOL   H10443130   3.225   3.507   1.262 -1.1102 -0.2307  1.0100
  304MOL   H10543131   3.333   3.781   1.346 -0.6897 -0.0939 -1.0102
  304MOL   H10643132   3.339   3.797   1.133 -0.3631  1.4153 -1.3750
  304MOL   C10743133   3.125   3.774   1.331  0.0429 -0.2967  0.1124
  304MOL   C10843134   2.999   3.703   1.269  0.9046  0.3987 -0.7278
  304MOL   O10943135   2.909   3.684   1.376  0.0386 -0.1736  0.3436
  304MOL   H11043136   3.126   3.777   1.440  0.5559  1.0510  0.0872
  304MOL   H11143137   3.125   3.878   1.297  0.3383 -1.3532 -3.3053
  304MOL   H11243138   3.023   3.608   1.221 -0.9489 -0.8812  0.8306
  304MOL   H11343139   2.954   3.638   1.446 -1.0847  1.0136  1.8963
  304MOL   C11443140   2.921   3.780   1.155 -0.0182  0.0734 -0.1650
  304MOL   C11543141   2.841   3.690   1.063 -0.1697  0.2652  0.0090
  304MOL   O11643142   2.718   3.663   1.123  0.1574 -0.2473 -0.6187
  304MOL   H11743143   2.855   3.859   1.191  0.7076  0.5823  0.0556
  304MOL   H11843144   2.999   3.844   1.112  1.5305  0.0911  2.5807
  304MOL   H11943145   2.879   3.593   1.031 -0.2699  0.2118  0.0538
  304MOL   H12043146   2.739   3.661   1.215 -2.0147 -2.2533 -0.0937
  304MOL   C12143147   2.809   3.764   0.929 -0.0360 -0.6461 -0.0500
  304MOL   C12243148   2.897   3.729   0.800  0.1111  0.7222 -0.0937
  304MOL   O12343149   2.811   3.768   0.694  0.1828  0.0103  0.4401
  304MOL   H12443150   2.704   3.754   0.905  0.3136  1.4307 -2.6116
  304MOL   H12543151   2.811   3.871   0.951  1.0591 -0.7740  0.5128
  304MOL   H12643152   2.909   3.620   0.799  0.1076  0.7322 -1.5682
  304MOL   H12743153   2.746   3.699   0.692 -0.9262  0.9895  1.3525
  304MOL   C12843154   3.038   3.794   0.787 -0.5618 -1.0284  0.0311
  304MOL   C12943155   3.162   3.725   0.847 -0.0098 -0.1583 -0.5870
  304MOL   O13043156   3.129   3.636   0.951  1.0782 -0.2084  0.1918
  304MOL   H13143157   3.058   3.823   0.684  0.7243  1.6861  1.0071
  304MOL   H13243158   3.023   3.892   0.832  1.6383 -0.6789  0.0300
  304MOL   H13343159   3.217   3.809   0.890 -1.1481  0.5634 -0.5127
  304MOL   H13443160   3.187   3.664   1.021 -0.6598  1.5519  0.9721
  304MOL   C13543161   3.258   3.656   0.747  0.1576 -0.7325  0.7600
  304MOL   C13643162   3.394   3.604   0.802  0.3009  0.5817  0.4037
  304MOL   O13743163   3.467   3.534   0.701  0.4346 -0.3948  0.0352
  304MOL   H13843164   3.194   3.573   0.718 -1.8070  0.9587  0.1868
  304MOL   H13943165   3.279   3.713   0.657  1.5800  1.8837  2.6634
  304MOL   H14043166   3.373   3.543   0.890  0.7940  0.1952  0.2577
  304MOL   H14143167   3.429   3.447   0.700 -2.2785  0.7158  1.4426
  304MOL   H14243168   3.452   3.693   0.829  1.1309 -0.3021  1.6267
  305MOL     C143169   6.356   6.843   5.596  0.0716  0.4985 -0.3594
  305MOL     C243170   6.328   6.718   5.684  0.3397 -0.0579 -0.3350
  305MOL     O343171   6.398   6.600   5.647 -0.2281  0.2389  0.0483
  305MOL     H443172   6.458   6.876   5.616  0.1907  0.6225 -1.1405
  305MOL     H543173   6.299   6.931   5.627  0.7026  0.3691  1.2215
  305MOL     H643174   6.225   6.691   5.661  0.0892  1.3307 -0.9010
  305MOL     H743175   6.330   6.538   5.627  1.0185 -0.8571 -0.8235
  305MOL     H843176   6.342   6.823   5.490  2.1942 -2.1564 -0.1807
  305MOL     C943177   6.358   6.736   5.833 -0.1733 -0.0112 -0.0007
  305MOL    C1043178   6.269   6.846   5.896  0.2151  0.5443  0.0018
  305MOL    O1143179   6.133   6.813   5.871  0.8092  0.3416 -0.3165
  305MOL    H1243180   6.335   6.644   5.887 -1.4548 -1.0648 -2.2530
  305MOL    H1343181   6.465   6.754   5.843 -0.2540  1.3486 -1.3408
  305MOL    H1443182   6.268   6.945   5.852 -0.9585  0.1242 -0.9372
  305MOL    H1543183   6.113   6.722   5.856  0.2050  0.7176 -1.8095
  305MOL    C1643184   6.288   6.855   6.051 -0.2092 -0.2364  0.0485
  305MOL    C1743185   6.389   6.967   6.098 -0.3578  0.1284  0.1977
  305MOL    O1843186   6.397   6.979   6.239  0.1483 -0.0942  0.1204
  305MOL    H1943187   6.195   6.874   6.103 -0.4995  1.1514 -0.9457
  305MOL    H2043188   6.318   6.761   6.097  1.1120  0.6943  1.1284
  305MOL    H2143189   6.338   7.052   6.052  0.2448 -0.3970 -1.4603
  305MOL    H2243190   6.322   7.033   6.257  1.1851  1.6298 -0.5262
  305MOL    C2343191   6.533   6.960   6.035  0.0733 -0.1403 -0.2447
  305MOL    C2443192   6.632   7.070   6.081  0.2432  0.0498  0.0505
  305MOL    O2543193   6.738   7.052   5.986 -0.0487  0.1734  0.2066
  305MOL    H2643194   6.573   6.862   6.064  0.9096  1.2401  3.5839
  305MOL    H2743195   6.530   6.953   5.927 -1.0397 -1.7285 -0.1274
  305MOL    H2843196   6.659   7.035   6.180 -1.2624 -0.5131  0.2718
  305MOL    H2943197   6.778   6.971   6.014  1.1112  0.2280 -1.2695
  305MOL    C3043198   6.586   7.218   6.076 -0.2186  0.3203  0.1223
  305MOL    C3143199   6.706   7.305   6.105 -0.3077  0.2196 -0.4651
  305MOL    O3243200   6.668   7.442   6.087 -0.6802  0.4256 -0.1746
  305MOL    H3343201   6.533   7.238   5.983  0.8035 -2.5397 -1.1391
  305MOL    H3443202   6.511   7.220   6.155 -1.1623 -0.6589 -0.7173
  305MOL    H3543203   6.778   7.287   6.026 -2.3848 -0.6069 -2.2133
  305MOL    H3643204   6.734   7.494   6.043  3.1653 -2.1719  2.2210
  305MOL    C3743205   6.756   7.291   6.251 -0.3206 -0.1811  0.3306
  305MOL    C3843206   6.907   7.332   6.268  0.2459 -0.3461  0.1936
  305MOL    O3943207   6.934   7.307   6.406 -0.2589  0.3260 -0.1861
  305MOL    H4043208   6.693   7.342   6.324  1.3805  1.1636  0.9165
  305MOL    H4143209   6.754   7.188   6.284 -2.0270  0.3958  2.1201
  305MOL    H4243210   6.913   7.441   6.264  3.1969 -0.4136  1.6471
  305MOL    H4343211   7.028   7.297   6.415 -0.3156  2.0514  3.0414
  305MOL    C4443212   7.009   7.265   6.169  0.2447 -0.0351 -0.0632
  305MOL    C4543213   7.162   7.305   6.208  0.3399 -0.0040 -0.0222
  305MOL    O4643214   7.186   7.226   6.327  0.1099 -0.2846 -0.1916
  305MOL    H4743215   6.979   7.160   6.171 -0.8509  0.2170 -2.3039
  305MOL    H4843216   6.982   7.301   6.070 -0.9520 -0.4109  0.1171
  305MOL    H4943217   7.172   7.410   6.235  1.2382 -0.4726  1.5332
  305MOL    H5043218   7.275   7.233   6.359  0.4317 -0.1512 -1.0976
  305MOL    C5143219   7.265   7.271   6.096  0.0838  0.1165  0.2849
  305MOL    C5243220   7.290   7.374   5.988 -0.4363 -0.4357  0.2551
  305MOL    O5343221   7.427   7.412   5.977  0.1757  0.0251 -0.3890
  305MOL    H5443222   7.360   7.265   6.148  0.0426 -0.4285  0.2943
  305MOL    H5543223   7.259   7.170   6.055  1.7538 -0.8433  2.3402
  305MOL    H5643224   7.241   7.463   6.028 -1.1164 -0.4403 -0.5680
  305MOL    H5743225   7.459   7.453   6.055  1.7759  0.5904 -1.3150
  305MOL    C5843226   7.251   7.340   5.842  0.1831  0.0420 -0.0709
  305MOL    C5943227   7.105   7.321   5.802  0.0858  0.2825 -0.0178
  305MOL    O6043228   7.031   7.442   5.807 -0.3301 -0.1458 -0.5582
  305MOL    H6143229   7.287   7.415   5.772 -0.9462 -0.2187 -0.9601
  305MOL    H6243230   7.311   7.250   5.830  0.9695  0.4748  0.5454
  305MOL    H6343231   7.055   7.257   5.874 -1.2202 -0.6786 -1.7431
  305MOL    H6443232   7.078   7.506   5.858 -1.1941 -0.0465  0.1214
  305MOL    C6543233   7.100   7.250   5.665  0.0895  0.1694 -0.0490
  305MOL    C6643234   6.959   7.226   5.602 -0.0762 -0.9194  0.0805
  305MOL    O6743235   6.967   7.171   5.475  0.3315 -0.4396 -0.5905
  305MOL    H6843236   7.164   7.311   5.600  1.1608 -2.7027 -1.8184
  305MOL    H6943237   7.150   7.155   5.680  0.6975  0.8087  2.2274
  305MOL    H7043238   6.897   7.315   5.598  0.2933 -0.6593  0.1056
  305MOL    H7143239   6.986   7.234   5.407  0.7056 -0.1055 -0.1800
  305MOL    C7243240   6.872   7.127   5.690  0.0615 -0.0969 -0.7111
  305MOL    C7343241   6.718   7.108   5.655 -0.3826 -0.2990  0.2916
  305MOL    O7443242   6.682   6.991   5.722 -0.1523  0.8860  0.1313
  305MOL    H7543243   6.929   7.035   5.674 -0.1852  0.0422 -2.4650
  305MOL    H7643244   6.886   7.158   5.793  0.1066 -2.9178  0.1781
  305MOL    H7743245   6.713   7.088   5.548 -0.5405 -0.4960  0.3351
  305MOL    H7843246   6.698   7.008   5.813  1.9310 -1.8255  0.3295
  305MOL    C7943247   6.619   7.223   5.697  0.7426 -0.3088  0.1014
  305MOL    C8043248   6.477   7.213   5.649  0.1732  0.1454  0.5104
  305MOL    O8143249   6.396   7.315   5.706  0.4770 -0.1707  0.6126
  305MOL    H8243250   6.627   7.220   5.806 -0.9061 -0.0665  0.2477
  305MOL    H8343251   6.665   7.317   5.669 -0.0024 -0.2615 -0.9985
  305MOL    H8443252   6.446   7.112   5.676  2.8288 -1.1618 -1.2280
  305MOL    H8543253   6.440   7.396   5.687 -3.3909  1.6365 -1.0666
  305MOL    C8643254   6.462   7.220   5.497 -0.1883 -0.0618  0.5668
  305MOL    C8743255   6.325   7.267   5.430  0.1085 -0.0226 -0.6258
  305MOL    O8843256   6.338   7.277   5.290 -0.3269  0.3076 -0.4525
  305MOL    H8943257   6.542   7.289   5.471  1.0660 -1.6226  0.2042
  305MOL    H9043258   6.493   7.126   5.451 -0.8891 -0.8331  1.6348
  305MOL    H9143259   6.312   7.369   5.469 -1.8396 -1.6284  3.2815
  305MOL    H9243260   6.340   7.190   5.255 -0.7326  1.3386 -3.1402
  305MOL    C9343261   6.205   7.172   5.461  0.5102 -0.6830  0.3846
  305MOL    C9443262   6.065   7.222   5.429  0.0005  0.3879 -0.0726
  305MOL    O9543263   6.044   7.225   5.289  0.6427 -0.5953  0.3804
  305MOL    H9643264   6.217   7.078   5.408  1.4077  0.1189 -0.8392
  305MOL    H9743265   6.205   7.150   5.568 -0.2307  0.8990  0.7333
  305MOL    H9843266   6.035   7.318   5.472  0.1840  0.3472  0.1503
  305MOL    H9943267   6.061   7.317   5.280 -0.4476 -0.3226  1.0392
  305MOL   C10043268   5.959   7.123   5.480 -0.1424  0.1193  0.4470
  305MOL   C10143269   5.950   7.080   5.630 -0.5442 -0.1409 -0.4423
  305MOL   O10243270   5.925   7.200   5.700  0.0819  0.1586  0.6783
  305MOL   H10343271   5.859   7.150   5.446  0.5124  0.9396 -0.8932
  305MOL   H10443272   5.984   7.032   5.425 -2.4347  0.4803 -1.2703
  305MOL   H10543273   6.051   7.048   5.658 -0.5709 -0.3991 -0.6386
  305MOL   H10643274   5.997   7.215   5.759  1.1084 -1.5790 -0.0697
  305MOL   C10743275   5.845   6.967   5.676 -0.4498  0.3451  0.8260
  305MOL   C10843276   5.865   6.834   5.596  0.3100  0.1975 -0.0510
  305MOL   O10943277   5.998   6.803   5.596  0.4422  0.1262 -0.1870
  305MOL   H11043278   5.850   6.952   5.784 -1.2546  0.7586  0.9264
  305MOL   H11143279   5.744   7.008   5.668 -0.4458 -0.1813 -2.5404
  305MOL   H11243280   5.829   6.833   5.493  0.6533  2.4291 -0.2072
  305MOL   H11343281   6.040   6.807   5.681  1.3841 -0.3213 -0.6193
  305MOL   C11443282   5.778   6.731   5.677 -0.2546 -0.1837  0.0474
  305MOL   C11543283   5.776   6.590   5.602 -0.1556  0.2152 -0.2215
  305MOL   O11643284   5.908   6.548   5.569  0.0758  0.0963  0.1625
  305MOL   H11743285   5.809   6.726   5.781 -0.1549 -1.6300 -0.0351
  305MOL   H11843286   5.679   6.776   5.686 -0.4993 -0.8230  0.6367
  305MOL   H11943287   5.711   6.602   5.516  1.0860  0.5852 -1.1140
  305MOL   H12043288   5.949   6.627   5.536 -2.3515  1.1892 -0.3006
  305MOL   C12143289   5.734   6.484   5.700  0.6032  0.1831 -0.8385
  305MOL   C12243290   5.580   6.464   5.721 -0.2611  0.4273 -0.5344
  305MOL   O12343291   5.530   6.393   5.612  0.1652  0.0731 -0.1214
  305MOL   H12443292   5.775   6.385   5.685 -1.1786 -0.5284 -1.1348
  305MOL   H12543293   5.774   6.511   5.798 -2.4180  2.4984 -0.1337
  305MOL   H12643294   5.524   6.558   5.720  0.3840  0.8415  0.8847
  305MOL   H12743295   5.488   6.463   5.565 -2.2385 -0.5973  0.9826
  305MOL   C12843296   5.543   6.389   5.858 -0.1307 -0.6876  0.6283
  305MOL   C12943297   5.567   6.476   5.982  0.0509 -0.2569 -0.1704
  305MOL   O13043298   5.502   6.604   5.972  0.0035 -0.2677 -1.0479
  305MOL   H13143299   5.434   6.385   5.849 -0.1941  0.2524  0.8937
  305MOL   H13243300   5.584   6.288   5.863 -0.1556 -0.7375 -0.1431
  305MOL   H13343301   5.673   6.501   5.987  0.0738 -0.0244 -1.6597
  305MOL   H13443302   5.409   6.590   5.978  0.0679  0.2873  1.8224
  305MOL   C13543303   5.544   6.410   6.113 -0.2725  0.3704  0.5263
  305MOL   C13643304   5.633   6.286   6.135  0.2274  0.6075 -0.5922
  305MOL   O13743305   5.586   6.237   6.259  0.3118 -0.0168 -0.4580
  305MOL   H13843306   5.545   6.487   6.190  0.7042  0.5501  0.3435
  305MOL   H13943307   5.442   6.372   6.118  0.0847 -0.6269  0.2214
  305MOL   H14043308   5.736   6.320   6.136  0.1757  0.7800  1.1778
  305MOL   H14143309   5.498   6.207   6.242  0.1869  0.6365 -1.0401
  305MOL   H14243310   5.613   6.208   6.061 -1.0035  2.1588 -1.9466
  306MOL     C143311   5.383   6.057   6.018  0.7953 -0.2262 -0.1487
  306MOL     C243312   5.273   6.098   6.123  0.2293  0.2709  0.1589
  306MOL     O343313   5.341   6.147   6.240 -0.4665  0.0298  0.3467
  306MOL     H443314   5.468   6.021   6.075  0.1604 -1.7081 -0.0993
  306MOL     H543315   5.404   6.141   5.952  2.6409  0.4689  1.2741
  306MOL     H643316   5.217   6.009   6.151 -0.2829  0.4971 -0.1224
  306MOL     H743317   5.277   6.144   6.310  1.8574  1.4513  2.6383
  306MOL     H843318   5.342   5.976   5.958 -0.3252  0.9149 -0.9657
  306MOL     C943319   5.164   6.199   6.072  0.6822  0.4982 -0.2732
  306MOL    C1043320   5.083   6.136   5.952  0.1513 -0.0237 -0.5606
  306MOL    O1143321   5.024   6.013   5.981  0.4925 -0.0954  0.3557
  306MOL    H1243322   5.104   6.233   6.156  0.8857 -1.0265  0.5086
  306MOL    H1343323   5.209   6.290   6.031  0.0006  1.4250  1.0322
  306MOL    H1443324   5.144   6.120   5.863 -0.0676  1.4223 -0.9800
  306MOL    H1543325   5.051   5.947   5.920  1.1200  0.6532 -0.1846
  306MOL    C1643326   4.961   6.224   5.895 -0.1916  0.4003 -0.0183
  306MOL    C1743327   4.990   6.321   5.786  0.1834  0.8458  0.4176
  306MOL    O1843328   4.872   6.385   5.747 -0.2324 -0.1482 -0.1256
  306MOL    H1943329   4.885   6.156   5.855  0.2521 -0.3948  0.4590
  306MOL    H2043330   4.911   6.273   5.979  1.6967  0.0971  1.3010
  306MOL    H2143331   5.008   6.268   5.692  1.5418  1.9928  0.0045
  306MOL    H2243332   4.834   6.342   5.672 -0.9674  0.4353 -0.0962
  306MOL    C2343333   5.103   6.414   5.820 -0.8327 -0.4246  0.0780
  306MOL    C2443334   5.138   6.516   5.704 -0.1979 -0.4610  0.4289
  306MOL    O2543335   5.243   6.605   5.761  0.0713  0.0216 -1.0326
  306MOL    H2643336   5.088   6.464   5.916 -1.6410 -0.0480 -0.2388
  306MOL    H2743337   5.200   6.368   5.841 -1.4853 -1.7709  0.2482
  306MOL    H2843338   5.053   6.577   5.676 -0.2258 -0.4929  0.4436
  306MOL    H2943339   5.218   6.642   5.845 -1.5415 -1.4939 -0.8099
  306MOL    C3043340   5.191   6.446   5.572 -0.1461  0.3533 -0.7156
  306MOL    C3143341   5.236   6.539   5.458 -0.2146  0.1943 -0.8461
  306MOL    O3243342   5.354   6.607   5.510 -0.3617  0.0036  0.1324
  306MOL    H3343343   5.266   6.370   5.591 -0.6056  0.8843  3.7251
  306MOL    H3443344   5.109   6.388   5.530 -0.2247  1.2086 -1.7687
  306MOL    H3543345   5.162   6.615   5.431 -0.1348  0.1289 -1.2598
  306MOL    H3643346   5.334   6.665   5.581 -1.3433 -0.4064  0.1968
  306MOL    C3743347   5.274   6.465   5.333  0.0375 -0.2766 -0.4203
  306MOL    C3843348   5.157   6.409   5.242  0.2209  1.0275  0.1892
  306MOL    O3943349   5.089   6.517   5.186 -0.6035 -0.4419 -0.3439
  306MOL    H4043350   5.345   6.527   5.279  0.5276 -1.2169 -0.8670
  306MOL    H4143351   5.324   6.371   5.358  0.5059  0.1021  0.0856
  306MOL    H4243352   5.091   6.350   5.305 -0.1819 -0.2655 -1.4276
  306MOL    H4343353   4.997   6.497   5.175 -0.9233  0.8535 -0.0798
  306MOL    C4443354   5.218   6.326   5.125 -0.6021 -0.1421  0.0390
  306MOL    C4543355   5.264   6.181   5.163 -0.4127 -0.0966 -1.0266
  306MOL    O4643356   5.152   6.101   5.194 -0.7152  0.2170  0.2966
  306MOL    H4743357   5.155   6.314   5.037  1.0734 -2.2650 -0.9128
  306MOL    H4843358   5.302   6.386   5.090 -1.2744  0.9578  0.2907
  306MOL    H4943359   5.324   6.193   5.254 -1.0545  2.3030 -0.8872
  306MOL    H5043360   5.098   6.091   5.117  2.0843  1.9789 -1.9781
  306MOL    C5143361   5.356   6.133   5.051 -0.5297 -0.4421  0.1487
  306MOL    C5243362   5.420   5.990   5.078  0.5108 -0.2775  0.0953
  306MOL    O5343363   5.499   6.003   5.193 -0.2466  0.1304  0.6470
  306MOL    H5443364   5.296   6.131   4.960  0.4378  4.3212 -0.7186
  306MOL    H5543365   5.432   6.209   5.034  0.7049 -1.4038  1.2553
  306MOL    H5643366   5.496   5.967   5.003  0.7006 -0.3727  0.3174
  306MOL    H5743367   5.567   6.066   5.174  0.2098 -0.0886  1.4937
  306MOL    C5843368   5.324   5.866   5.083  0.0016 -0.2097 -0.5417
  306MOL    C5943369   5.265   5.848   4.944  0.0072 -0.0611 -0.2454
  306MOL    O6043370   5.359   5.787   4.861  0.4441 -0.0772  0.1148
  306MOL    H6143371   5.390   5.784   5.109  1.0581  0.5556 -0.7871
  306MOL    H6243372   5.257   5.884   5.168  1.0742  3.5411 -0.3758
  306MOL    H6343373   5.225   5.942   4.907 -0.7420  0.0611  0.8443
  306MOL    H6443374   5.323   5.792   4.774 -1.0464 -0.4129  0.7015
  306MOL    C6543375   5.136   5.753   4.931  0.2587  0.3632  0.4013
  306MOL    C6643376   5.029   5.751   5.038  0.1525  0.2359  0.2735
  306MOL    O6743377   4.953   5.876   5.046  0.3750 -0.0428 -0.3931
  306MOL    H6843378   5.084   5.775   4.837 -1.2439  2.5892  1.7026
  306MOL    H6943379   5.175   5.655   4.905 -0.7247  0.3615 -1.1598
  306MOL    H7043380   5.080   5.732   5.133  0.1707  0.0695  0.2316
  306MOL    H7143381   4.908   5.879   5.129  2.9199  1.0328  0.9830
  306MOL    C7243382   4.926   5.640   5.007 -0.1446  0.2047  0.1505
  306MOL    C7343383   4.830   5.604   5.118 -1.1239 -0.0489  0.7825
  306MOL    O7443384   4.731   5.515   5.065 -0.3583 -0.3545  0.2558
  306MOL    H7543385   4.854   5.682   4.937  3.1932  3.4698 -1.4610
  306MOL    H7643386   4.978   5.553   4.966 -2.0516 -0.5013 -0.8633
  306MOL    H7743387   4.775   5.696   5.139  2.4350  2.8280 -1.8141
  306MOL    H7843388   4.691   5.465   5.135  1.7764 -2.4675  0.0016
  306MOL    C7943389   4.890   5.550   5.245 -0.8146 -0.5894  0.5926
  306MOL    C8043390   5.005   5.440   5.241 -0.2919 -0.4524  0.0703
  306MOL    O8143391   5.070   5.437   5.363 -0.1416 -0.3993 -0.0390
  306MOL    H8243392   4.929   5.637   5.297 -2.9866 -0.2079  1.6103
  306MOL    H8343393   4.817   5.512   5.316  0.4588 -0.7826  1.8257
  306MOL    H8443394   5.085   5.458   5.169  2.4196 -1.1301  2.7569
  306MOL    H8543395   5.141   5.375   5.360  1.0871  1.0674 -2.1506
  306MOL    C8643396   4.946   5.292   5.219 -0.0079 -0.4250 -0.1224
  306MOL    C8743397   4.964   5.223   5.080 -0.3139 -0.8410 -0.5996
  306MOL    O8843398   5.103   5.203   5.063 -0.1120 -0.2946 -0.0111
  306MOL    H8943399   4.987   5.226   5.296  0.1605 -1.7780 -1.3490
  306MOL    H9043400   4.844   5.289   5.256  0.0918  1.3962  0.3513
  306MOL    H9143401   4.927   5.289   5.002 -0.0934  0.3718  0.3045
  306MOL    H9243402   5.139   5.263   4.999  1.9140 -0.4160  0.9805
  306MOL    C9343403   4.889   5.088   5.078 -0.3393  0.0892 -0.1916
  306MOL    C9443404   4.874   5.019   4.941 -0.1853  0.5884  0.2140
  306MOL    O9543405   4.848   4.877   4.963  0.7614 -0.4182 -0.1271
  306MOL    H9643406   4.923   5.024   5.159 -0.3692  1.2329  0.7438
  306MOL    H9743407   4.787   5.117   5.102  0.4855  2.5642  0.4948
  306MOL    H9843408   4.972   5.027   4.896  0.3299 -3.7171  0.3985
  306MOL    H9943409   4.934   4.845   4.987  0.1294 -1.4843  0.7770
  306MOL   C10043410   4.777   5.095   4.839 -0.5710  1.0035 -0.6095
  306MOL   C10143411   4.737   5.011   4.720 -0.5836  0.0989  0.3978
  306MOL   O10243412   4.677   5.103   4.637 -0.3087 -0.0597  0.5613
  306MOL   H10343413   4.684   5.120   4.891 -0.2923 -0.4401  0.6246
  306MOL   H10443414   4.830   5.188   4.822  1.7354  0.2218  2.0174
  306MOL   H10543415   4.653   4.949   4.751 -0.2800 -0.8559 -0.7017
  306MOL   H10643416   4.607   5.055   4.595 -0.0685 -1.0772  1.3101
  306MOL   C10743417   4.850   4.949   4.632  0.1991 -0.0558 -0.4008
  306MOL   C10843418   4.817   4.850   4.515  0.3749  0.8404  0.0983
  306MOL   O10943419   4.730   4.749   4.565  0.0607  0.0660  0.3766
  306MOL   H11043420   4.913   5.030   4.594 -1.3846  0.3605 -2.1815
  306MOL   H11143421   4.911   4.892   4.702 -1.3114 -1.0942  0.0825
  306MOL   H11243422   4.905   4.798   4.477 -2.0764 -0.7979 -3.7022
  306MOL   H11343423   4.710   4.689   4.495  1.1495 -0.4789  0.5226
  306MOL   C11443424   4.755   4.901   4.382  0.1115 -0.7449  0.3849
  306MOL   C11543425   4.858   4.978   4.289 -0.0904 -0.4877  0.1822
  306MOL   O11643426   4.817   4.973   4.159 -0.3351 -0.0787  0.0916
  306MOL   H11743427   4.719   4.812   4.330 -0.2588 -1.4566  1.8328
  306MOL   H11843428   4.666   4.960   4.404  1.3100  1.7783 -1.3058
  306MOL   H11943429   4.951   4.924   4.304  0.4787  1.1177  2.6906
  306MOL   H12043430   4.828   5.063   4.133 -0.6326  0.1352  0.7109
  306MOL   C12143431   4.861   5.129   4.319  0.5368  0.6123 -0.1470
  306MOL   C12243432   4.970   5.210   4.246  0.0039 -0.1232  0.8343
  306MOL   O12343433   4.905   5.258   4.131  0.2305 -0.2826  0.0341
  306MOL   H12443434   4.760   5.163   4.295  0.1223 -1.2131 -1.0477
  306MOL   H12543435   4.870   5.151   4.425  0.2252  0.9789 -0.1949
  306MOL   H12643436   5.046   5.142   4.207 -0.6276  1.1469 -2.7557
  306MOL   H12743437   4.947   5.336   4.098  0.7349 -0.5466  0.0303
  306MOL   C12843438   5.031   5.320   4.330 -0.0005 -0.7486 -0.7351
  306MOL   C12943439   5.120   5.255   4.435  0.4702 -0.0489 -0.0224
  306MOL   O13043440   5.217   5.166   4.392 -0.1495 -0.1098  0.1847
  306MOL   H13143441   5.098   5.381   4.270 -0.4712 -0.9372 -1.4580
  306MOL   H13243442   4.964   5.389   4.381 -0.7113 -1.6819 -0.3787
  306MOL   H13343443   5.058   5.194   4.501  1.2631  0.9850  1.7206
  306MOL   H13443444   5.269   5.137   4.465  1.5509 -0.3574 -1.0928
  306MOL   C13543445   5.191   5.357   4.523 -0.5913 -0.0831 -0.6170
  306MOL   C13643446   5.097   5.417   4.626 -0.7952  1.1012  0.1243
  306MOL   O13743447   5.164   5.482   4.725  0.2333  0.4386 -0.4060
  306MOL   H13843448   5.268   5.300   4.575 -2.7796  0.0018  2.8889
  306MOL   H13943449   5.238   5.438   4.467  0.1684 -0.0745  0.0272
  306MOL   H14043450   5.048   5.325   4.657  1.4072 -0.5483 -1.1106
  306MOL   H14143451   5.215   5.554   4.692 -1.3298  3.2855  3.0065
  306MOL   H14243452   5.022   5.485   4.586 -1.9419 -0.5258 -0.5125
  307MOL     C143453   2.128   3.778   0.850 -0.3106 -0.1817 -0.7400
  307MOL     C243454   2.169   3.903   0.935 -0.2737 -0.6536  0.4324
  307MOL     O343455   2.128   3.872   1.065  0.0708 -0.0266 -0.1522
  307MOL     H443456   2.147   3.793   0.744  0.4796  1.0290 -0.4367
  307MOL     H543457   2.023   3.758   0.870 -0.3528  1.2156  0.5844
  307MOL     H643458   2.107   3.989   0.907 -0.0238 -0.2911  0.9749
  307MOL     H743459   2.044   3.911   1.084 -0.2323 -0.6852 -0.1306
  307MOL     H843460   2.187   3.693   0.885  0.8628  0.4206 -1.2113
  307MOL     C943461   2.323   3.936   0.930  0.0329 -0.1546  0.1460
  307MOL    C1043462   2.379   3.993   0.794  0.7473 -0.7999 -0.2636
  307MOL    O1143463   2.359   4.133   0.809  0.5081 -0.2511  0.8569
  307MOL    H1243464   2.341   4.000   1.016  0.1465  0.9711 -0.7029
  307MOL    H1343465   2.376   3.843   0.953 -1.2651 -1.3079 -1.4206
  307MOL    H1443466   2.326   3.958   0.706  0.6234 -0.3435 -0.3748
  307MOL    H1543467   2.295   4.160   0.745  1.4887 -2.0914 -0.9485
  307MOL    C1643468   2.525   3.956   0.773  0.4760  0.2664  0.6010
  307MOL    C1743469   2.574   4.009   0.635 -0.6190 -0.8416  0.8013
  307MOL    O1843470   2.714   4.003   0.633  0.5351  0.2458 -0.7602
  307MOL    H1943471   2.584   4.000   0.854  0.9147 -0.7656  0.8451
  307MOL    H2043472   2.541   3.849   0.778 -0.9008  0.1464  3.4518
  307MOL    H2143473   2.558   4.116   0.628 -0.0764 -0.8794 -1.4455
  307MOL    H2243474   2.751   3.918   0.652  0.0357 -0.4630 -2.8382
  307MOL    C2343475   2.513   3.930   0.514  0.3679  0.5454 -0.4060
  307MOL    C2443476   2.569   3.958   0.377  0.3082  0.1937 -0.2763
  307MOL    O2543477   2.497   3.882   0.279  0.1215  0.1763  0.5247
  307MOL    H2643478   2.530   3.825   0.536 -0.6930  0.4161 -0.1503
  307MOL    H2743479   2.405   3.942   0.510  0.5000  1.4978 -1.3392
  307MOL    H2843480   2.675   3.937   0.369  0.4604  0.5688  0.6354
  307MOL    H2943481   2.498   3.790   0.299  2.8546 -0.0255 -0.3713
  307MOL    C3043482   2.557   4.106   0.318  0.0467  0.6831  0.5406
  307MOL    C3143483   2.638   4.223   0.375 -0.8017 -0.1505  0.0583
  307MOL    O3243484   2.769   4.172   0.398  0.7336  0.3164 -0.1532
  307MOL    H3343485   2.594   4.102   0.216 -1.9983  1.8361 -0.2858
  307MOL    H3443486   2.457   4.149   0.311 -0.5024 -0.3900  1.7062
  307MOL    H3543487   2.602   4.250   0.474 -2.8710  0.6460 -0.8850
  307MOL    H3643488   2.769   4.106   0.467  0.4093  1.7605  1.2537
  307MOL    C3743489   2.633   4.348   0.276  0.0407 -0.2280  0.3232
  307MOL    C3843490   2.681   4.482   0.341  0.5693 -0.3275  0.1992
  307MOL    O3943491   2.690   4.579   0.238  0.2267 -0.1841 -0.0554
  307MOL    H4043492   2.688   4.330   0.184 -0.0176  1.7179 -0.1165
  307MOL    H4143493   2.528   4.357   0.248  0.0877  2.3379  0.8735
  307MOL    H4243494   2.779   4.471   0.386  0.3089 -0.4617  0.7316
  307MOL    H4343495   2.771   4.555   0.196 -0.6721  1.0515 -2.6112
  307MOL    C4443496   2.584   4.544   0.450 -0.4811 -0.5216 -0.2265
  307MOL    C4543497   2.641   4.652   0.550 -0.2494  0.1081  0.0839
  307MOL    O4643498   2.763   4.603   0.612  0.8443 -0.4898 -0.2397
  307MOL    H4743499   2.492   4.581   0.405 -1.4198 -1.6625  0.7227
  307MOL    H4843500   2.550   4.466   0.518  0.4985 -0.4600  0.3455
  307MOL    H4943501   2.575   4.680   0.632  0.7761 -2.4053  1.8360
  307MOL    H5043502   2.828   4.589   0.544  1.2291 -0.0163  0.0293
  307MOL    C5143503   2.680   4.776   0.466  0.4799 -0.8296 -0.9050
  307MOL    C5243504   2.573   4.857   0.379  0.1760  0.1973  0.3942
  307MOL    O5343505   2.496   4.957   0.446 -0.7448  0.2288  0.3779
  307MOL    H5443506   2.733   4.848   0.528 -2.2507 -0.2468  0.8353
  307MOL    H5543507   2.758   4.732   0.404  1.4347 -2.9847  1.7118
  307MOL    H5643508   2.493   4.786   0.359  0.9427 -0.4982 -0.2521
  307MOL    H5743509   2.453   4.922   0.523  0.5789 -1.4331  0.4007
  307MOL    C5843510   2.620   4.907   0.233 -0.1288 -0.2873 -0.7020
  307MOL    C5943511   2.756   4.978   0.228  0.0958  0.3466 -0.2173
  307MOL    O6043512   2.798   4.978   0.094 -0.1395 -0.3052 -0.1976
  307MOL    H6143513   2.622   4.819   0.169  0.6355 -1.3874  0.8023
  307MOL    H6243514   2.549   4.970   0.180  0.9790  0.3016 -1.4840
  307MOL    H6343515   2.826   4.906   0.270 -1.6473 -1.7231 -0.7794
  307MOL    H6443516   2.822   4.893   0.061  3.1582 -0.6252  2.7904
  307MOL    C6543517   2.748   5.116   0.293  0.1858 -0.1407 -0.3740
  307MOL    C6643518   2.879   5.199   0.265 -0.3721 -0.1702 -0.0432
  307MOL    O6743519   2.868   5.317   0.354  0.0756  0.7842 -0.1138
  307MOL    H6843520   2.669   5.175   0.247  3.5172  1.7676 -3.9728
  307MOL    H6943521   2.727   5.113   0.399 -0.9366 -3.4974 -0.6553
  307MOL    H7043522   2.882   5.237   0.163 -0.9221  1.6139  0.5802
  307MOL    H7143523   2.802   5.362   0.305 -1.5934 -2.3618 -0.9104
  307MOL    C7243524   3.008   5.126   0.292 -0.2636 -0.5321 -0.3958
  307MOL    C7343525   3.137   5.207   0.264 -0.5107  0.0493  0.3003
  307MOL    O7443526   3.246   5.128   0.305  0.2562  0.3193 -0.3560
  307MOL    H7543527   3.003   5.086   0.394  3.1348 -0.7069 -0.2238
  307MOL    H7643528   3.017   5.036   0.230 -0.3715 -1.2870  0.6659
  307MOL    H7743529   3.146   5.300   0.321 -2.0656 -0.2153  1.0019
  307MOL    H7843530   3.274   5.075   0.232  0.0292  1.0933 -1.0032
  307MOL    C7943531   3.153   5.246   0.115 -0.5145  0.3397  0.3836
  307MOL    C8043532   3.236   5.374   0.078  1.1750 -0.0474 -0.5158
  307MOL    O8143533   3.164   5.483   0.134  0.6354  0.2992  0.5968
  307MOL    H8243534   3.192   5.164   0.055 -2.8561  1.2268 -2.4694
  307MOL    H8343535   3.055   5.266   0.073 -0.2274  1.0388  0.0289
  307MOL    H8443536   3.227   5.389   7.489  2.1012 -0.1377 -0.6068
  307MOL    H8543537   3.222   5.557   0.139 -0.9264  1.5299  1.1306
  307MOL    C8643538   3.386   5.381   0.102  0.6815  0.0450  0.4127
  307MOL    C8743539   3.470   5.294   0.011 -0.1332 -0.2447  0.4525
  307MOL    O8843540   3.488   5.347   7.402  0.7019  0.6495  0.3495
  307MOL    H8943541   3.414   5.486   0.097  0.1933  0.0651 -2.5272
  307MOL    H9043542   3.398   5.337   0.201 -2.1157 -2.5200 -0.3156
  307MOL    H9143543   3.415   5.200   0.002 -0.6450 -0.1107  1.9527
  307MOL    H9243544   3.440   5.290   7.344  1.4015 -0.2227  0.6146
  307MOL    C9343545   3.604   5.239   0.077 -0.9513  0.4648  0.9611
  307MOL    C9443546   3.719   5.338   0.114 -0.7517 -0.9597  0.1779
  307MOL    O9543547   3.833   5.255   0.128 -0.0585 -0.6374  0.5808
  307MOL    H9643548   3.587   5.170   0.160  4.6724 -2.1408  0.1507
  307MOL    H9743549   3.655   5.186   7.517 -0.7399  0.8956  0.8074
  307MOL    H9843550   3.703   5.384   0.212 -0.4711  0.2987 -0.3629
  307MOL    H9943551   3.901   5.301   0.174  0.1798 -0.3797 -0.0298
  307MOL   C10043552   3.749   5.458   0.013  0.0503  0.0517 -0.6703
  307MOL   C10143553   3.858   5.556   0.056  0.0400 -0.8427  0.1082
  307MOL   O10243554   3.891   5.630   7.452  0.5921 -0.0836  0.3195
  307MOL   H10343555   3.773   5.428   7.431  0.8946  0.6737 -0.6637
  307MOL   H10443556   3.655   5.512   0.007 -0.5493 -1.0129 -1.0046
  307MOL   H10543557   3.951   5.501   0.072  0.3126  0.3281  2.8189
  307MOL   H10643558   3.965   5.685   7.473  1.7412 -1.7866  0.8665
  307MOL   C10743559   3.834   5.638   0.183  0.4538  0.1873  0.4113
  307MOL   C10843560   3.709   5.722   0.167  0.6193 -0.6056  1.0181
  307MOL   O10943561   3.600   5.663   0.239 -0.5601 -0.6571  0.0260
  307MOL   H11043562   3.822   5.565   0.263  1.6078 -0.0186  0.4024
  307MOL   H11143563   3.917   5.703   0.211 -1.0827  2.7482 -0.7429
  307MOL   H11243564   3.667   5.741   0.068  0.3274 -1.1226  1.0412
  307MOL   H11343565   3.525   5.718   0.223  0.9527  1.2046 -0.9449
  307MOL   C11443566   3.733   5.862   0.220  0.6088 -0.4725 -0.2452
  307MOL   C11543567   3.848   5.935   0.136 -0.1906  0.4532  0.1723
  307MOL   O11643568   3.781   6.008   0.034 -0.2079 -0.3902  0.1775
  307MOL   H11743569   3.645   5.926   0.223  0.9088 -0.1110  1.3181
  307MOL   H11843570   3.759   5.855   0.326 -1.4432  0.6787  0.3517
  307MOL   H11943571   3.909   5.863   0.082  0.3001  1.5242 -0.7302
  307MOL   H12043572   3.762   5.952   7.480 -0.6490 -0.0430  0.0212
  307MOL   C12143573   3.937   6.039   0.218 -0.4204  0.1566  0.5709
  307MOL   C12243574   4.037   5.970   0.316  0.1335 -0.2008 -0.2448
  307MOL   O12343575   4.141   5.911   0.248  0.0659 -0.2700 -0.0617
  307MOL   H12443576   3.977   6.102   0.139  0.8525 -1.9596 -0.5036
  307MOL   H12543577   3.871   6.096   0.284 -0.9473  1.6454 -1.2069
  307MOL   H12643578   3.971   5.905   0.373  0.4752 -0.6047 -0.3091
  307MOL   H12743579   4.200   5.881   0.316 -0.1113  1.2010  0.7588
  307MOL   C12843580   4.085   6.081   0.419 -0.1152  0.1240 -1.2465
  307MOL   C12943581   4.148   6.031   0.556 -0.4578 -0.7721 -0.5846
  307MOL   O13043582   4.281   5.982   0.546 -0.3397 -0.1482  0.1430
  307MOL   H13143583   4.155   6.152   0.375 -1.0191  1.5923 -0.3390
  307MOL   H13243584   3.995   6.140   0.434  0.5148  0.7131  0.2896
  307MOL   H13343585   4.082   5.962   0.608 -1.6514 -0.6247 -1.8774
  307MOL   H13443586   4.348   6.043   0.520  1.2694 -2.1215 -0.4377
  307MOL   C13543587   4.150   6.162   0.644 -0.0982 -0.4938  0.4073
  307MOL   C13643588   4.148   6.134   0.801  0.5045  0.0425  1.0794
  307MOL   O13743589   4.116   6.256   0.875 -0.4207 -0.0601 -0.1082
  307MOL   H13843590   4.235   6.228   0.622 -0.0304 -1.1920 -1.5109
  307MOL   H13943591   4.063   6.223   0.620  0.1023 -0.1867  0.4523
  307MOL   H14043592   4.246   6.108   0.841  0.9496  0.1611  0.0925
  307MOL   H14143593   4.201   6.295   0.885 -0.2398 -0.3781 -0.3769
  307MOL   H14243594   4.079   6.052   0.823 -0.8782  0.3621 -1.7680
  308MOL     C143595   1.238   6.439   0.897 -0.7650 -1.1672 -0.1521
  308MOL     C243596   1.337   6.549   0.848  0.1627 -0.2990 -0.0051
  308MOL     O343597   1.459   6.482   0.814  0.4421  0.0456 -0.0969
  308MOL     H443598   1.142   6.476   0.936 -0.9751 -1.6472 -0.2075
  308MOL     H543599   1.280   6.385   0.982  1.1785 -0.2801 -0.5245
  308MOL     H643600   1.354   6.612   0.935  1.6785 -1.5024  0.6037
  308MOL     H743601   1.447   6.401   0.767 -2.0113  0.2787  0.0423
  308MOL     H843602   1.203   6.374   0.817 -2.8917 -2.1222  1.4620
  308MOL     C943603   1.289   6.643   0.738 -0.8789  0.8750  0.4245
  308MOL    C1043604   1.359   6.781   0.748 -0.1171 -0.1880 -0.6651
  308MOL    O1143605   1.306   6.852   0.644 -0.3946  0.1998  0.3901
  308MOL    H1243606   1.303   6.593   0.642  1.1136  0.3545  0.9725
  308MOL    H1343607   1.180   6.650   0.741 -1.0201 -1.1360  0.7016
  308MOL    H1443608   1.467   6.767   0.746 -0.0670  0.2823 -1.5113
  308MOL    H1543609   1.342   6.819   0.563 -2.3468 -0.5214 -0.2250
  308MOL    C1643610   1.313   6.857   0.877 -0.3133  0.0569  0.4359
  308MOL    C1743611   1.302   7.012   0.882 -0.1060 -0.1276 -0.6346
  308MOL    O1843612   1.226   7.046   0.995  0.3470 -0.1759 -0.0936
  308MOL    H1943613   1.218   6.814   0.908 -0.2524 -1.3943 -1.2806
  308MOL    H2043614   1.384   6.824   0.953 -0.5555  1.0314  1.0939
  308MOL    H2143615   1.250   7.043   0.792  0.0558 -1.0022 -1.0278
  308MOL    H2243616   1.139   7.024   0.965  0.1307 -2.4146  2.0375
  308MOL    C2343617   1.442   7.079   0.883  0.4890  0.2010  0.4012
  308MOL    C2443618   1.445   7.227   0.841 -0.4304  0.3174  0.2666
  308MOL    O2543619   1.562   7.290   0.880 -0.2916 -0.0936  0.3830
  308MOL    H2643620   1.489   7.060   0.980 -1.9659  1.7573  1.9595
  308MOL    H2743621   1.509   7.019   0.822  3.4119  1.4226  2.2950
  308MOL    H2843622   1.359   7.279   0.884 -2.5646 -1.9463 -1.1361
  308MOL    H2943623   1.557   7.295   0.974  3.6141  2.0870  0.5582
  308MOL    C3043624   1.435   7.243   0.688  0.0499 -0.1062  0.3172
  308MOL    C3143625   1.389   7.380   0.631 -0.7796  0.7608 -0.4306
  308MOL    O3243626   1.494   7.436   0.548  0.0298  0.0147 -0.0142
  308MOL    H3343627   1.524   7.206   0.637  0.9061 -0.0426  1.7297
  308MOL    H3443628   1.353   7.177   0.659 -0.8641  1.0553  0.2431
  308MOL    H3543629   1.386   7.453   0.712  1.2331 -0.3400  0.6743
  308MOL    H3643630   1.559   7.454   0.614 -0.3591 -1.5446  0.8137
  308MOL    C3743631   1.265   7.403   0.549 -0.6615  0.3430 -0.7741
  308MOL    C3843632   1.126   7.413   0.628 -0.0282  0.3151  0.0779
  308MOL    O3943633   1.028   7.436   0.523  0.3326 -0.1984 -0.1667
  308MOL    H4043634   1.291   7.498   0.500 -1.1309  0.3623 -0.9846
  308MOL    H4143635   1.263   7.321   0.478 -0.6703 -0.2973 -0.0371
  308MOL    H4243636   1.119   7.497   0.697 -2.5823  0.0958  0.1353
  308MOL    H4343637   1.050   7.380   0.450 -1.8759 -1.7594  0.3131
  308MOL    C4443638   1.085   7.284   0.703 -0.4997  0.2939 -0.6786
  308MOL    C4543639   0.937   7.273   0.751  0.0032 -0.2870  0.5067
  308MOL    O4643640   0.903   7.137   0.739  0.5012  0.2776 -0.5319
  308MOL    H4743641   1.127   7.211   0.634  1.3342  0.8298 -0.1748
  308MOL    H4843642   1.148   7.280   0.792 -1.4530  0.0224 -0.0083
  308MOL    H4943643   0.866   7.339   0.701  0.8692  0.5560  0.3542
  308MOL    H5043644   0.876   7.121   0.650 -0.5142  0.3195 -0.2432
  308MOL    C5143645   0.916   7.298   0.904 -0.2755  0.5805  0.7563
  308MOL    C5243646   0.958   7.441   0.963  1.1062 -0.8418 -1.0457
  308MOL    O5343647   0.845   0.007   0.973 -0.2572 -0.4239 -0.6219
  308MOL    H5443648   0.820   7.270   0.946  1.2511 -4.4139  1.2753
  308MOL    H5543649   0.977   7.226   0.959 -1.5995 -0.1960  1.2232
  308MOL    H5643650   1.017   7.503   0.895 -0.8165  0.4117 -1.6210
  308MOL    H5743651   0.856   0.076   0.909 -0.7933  2.5666  2.3569
  308MOL    C5843652   1.024   7.427   1.106 -0.6481  0.1778 -0.0760
  308MOL    C5943653   1.036   0.043   1.177  0.2890  0.2435 -0.3209
  308MOL    O6043654   0.905   0.083   1.215 -0.2403  0.0206  0.3127
  308MOL    H6143655   0.987   7.345   1.168  1.2498 -1.5219 -1.1408
  308MOL    H6243656   1.127   7.401   1.083 -0.9300  0.0552 -1.2769
  308MOL    H6343657   1.077   0.117   1.108 -0.7392  1.2757  0.1615
  308MOL    H6443658   0.858   0.057   1.137 -0.3031 -2.4849  1.1439
  308MOL    C6543659   1.130   0.041   1.308 -0.0032  0.2673 -0.5930
  308MOL    C6643660   1.159   0.183   1.364  0.8874 -0.2049  0.6329
  308MOL    O6743661   1.212   0.166   1.493  0.2143 -0.4041 -0.3985
  308MOL    H6843662   1.072   7.504   1.380 -1.2230  2.0455 -0.1375
  308MOL    H6943663   1.225   7.512   1.283 -1.4261 -1.6165 -2.5789
  308MOL    H7043664   1.068   0.244   1.364  0.1528 -1.2793 -0.2269
  308MOL    H7143665   1.143   0.131   1.547  0.6411  3.2134  2.6531
  308MOL    C7243666   1.267   0.247   1.274  0.6812  0.3872  0.3601
  308MOL    C7343667   1.270   0.398   1.276  0.2886 -0.3621 -0.9942
  308MOL    O7443668   1.389   0.434   1.208  0.1052  0.0502  0.1802
  308MOL    H7543669   1.366   0.205   1.292 -0.2962 -1.6920  1.0112
  308MOL    H7643670   1.243   0.231   1.169 -4.7002 -0.3409  1.5637
  308MOL    H7743671   1.280   0.432   1.379 -0.0962 -0.9119 -0.7790
  308MOL    H7843672   1.456   0.444   1.274  1.7614 -0.9876 -1.2963
  308MOL    C7943673   1.144   0.478   1.227  0.2170  0.3017  0.6020
  308MOL    C8043674   1.166   0.630   1.207  0.0025 -0.2625 -0.4126
  308MOL    O8143675   1.049   0.695   1.155  0.5678 -0.0090  0.1666
  308MOL    H8243676   1.135   0.433   1.128 -2.7884  2.8255 -0.3551
  308MOL    H8343677   1.054   0.466   1.287 -1.2068 -0.0310 -1.5407
  308MOL    H8443678   1.249   0.642   1.138 -1.4489  0.9209 -1.9739
  308MOL    H8543679   1.019   0.634   1.089 -0.3185  1.7971 -1.1375
  308MOL    C8643680   1.198   0.701   1.345 -0.4232 -0.3262  0.0629
  308MOL    C8743681   1.240   0.846   1.316  0.4860 -0.1464  0.3224
  308MOL    O8843682   1.246   0.919   1.437 -0.1333  0.2925 -0.2647
  308MOL    H8943683   1.121   0.694   1.422  1.1663  0.3346  1.7730
  308MOL    H9043684   1.290   0.662   1.390  0.7920 -0.4903 -2.4457
  308MOL    H9143685   1.171   0.899   1.251  0.1220 -0.3144  0.5677
  308MOL    H9243686   1.243   1.012   1.419 -0.7477  0.2177 -0.5931
  308MOL    C9343687   1.379   0.856   1.248 -0.2866  0.2250 -0.8534
  308MOL    C9443688   1.396   0.944   1.127  0.2560 -0.8141  0.9835
  308MOL    O9543689   1.534   0.955   1.099 -0.1097  0.1243  0.1914
  308MOL    H9643690   1.446   0.883   1.329  1.4851 -1.0141 -1.8939
  308MOL    H9743691   1.419   0.758   1.220 -0.7460 -0.8721  2.1639
  308MOL    H9843692   1.356   1.042   1.151 -1.2829 -0.6494 -2.0434
  308MOL    H9943693   1.539   0.966   1.005  0.8377  0.5876  0.2899
  308MOL   C10043694   1.325   0.892   1.006 -0.5143  0.2126 -0.4919
  308MOL   C10143695   1.343   0.969   0.880  0.1832  0.3098  0.8416
  308MOL   O10243696   1.476   0.994   0.852  0.4922 -0.1663 -0.3136
  308MOL   H10343697   1.354   0.790   0.983  2.2917  0.8508  0.0654
  308MOL   H10443698   1.220   0.874   1.030 -0.3397 -0.6712 -0.3950
  308MOL   H10543699   1.306   1.071   0.872  1.6727  0.6922 -2.3156
  308MOL   H10643700   1.486   1.083   0.823 -1.5115  0.5052  0.9741
  308MOL   C10743701   1.287   0.890   0.757  0.1202 -0.0552 -1.0806
  308MOL   C10843702   1.137   0.879   0.749  0.0172  0.1626  0.2123
  308MOL   O10943703   1.090   1.006   0.695 -0.1240 -0.0067 -0.1502
  308MOL   H11043704   1.321   0.937   0.665 -2.3993  1.7615 -1.1248
  308MOL   H11143705   1.329   0.790   0.756 -0.3716 -0.2646 -1.1497
  308MOL   H11243706   1.089   0.856   0.844 -2.6450  0.4685 -1.0284
  308MOL   H11343707   1.016   1.025   0.751 -0.1359 -0.2494 -0.0804
  308MOL   C11443708   1.093   0.769   0.652 -0.1314  0.3425 -0.4820
  308MOL   C11543709   1.149   0.621   0.672 -0.1288 -0.6174  0.1916
  308MOL   O11643710   1.122   0.579   0.801 -0.6384 -0.0541 -0.4385
  308MOL   H11743711   0.986   0.758   0.637  0.0413 -1.3856 -0.5601
  308MOL   H11843712   1.114   0.806   0.552  0.1626  1.7694  0.1002
  308MOL   H11943713   1.257   0.619   0.659 -0.2446 -1.0301 -0.6922
  308MOL   H12043714   1.031   0.597   0.819 -1.0442 -1.1275 -1.3866
  308MOL   C12143715   1.088   0.517   0.572 -0.3394  0.3453 -0.0841
  308MOL   C12243716   1.100   0.548   0.420 -0.1774  0.2332  0.6638
  308MOL   O12343717   1.234   0.564   0.377 -0.4025 -0.1309  0.4487
  308MOL   H12443718   1.125   0.417   0.597  0.1331  0.2651 -1.0880
  308MOL   H12543719   0.981   0.525   0.589 -0.0367  0.5687  1.8205
  308MOL   H12643720   1.053   0.644   0.399  1.9228  0.8993 -1.2388
  308MOL   H12743721   1.230   0.617   0.299 -1.9395  1.3779  1.5190
  308MOL   C12843722   1.029   0.451   0.318  0.0242 -0.3798 -0.1439
  308MOL   C12943723   0.873   0.460   0.319 -0.1910 -0.4624  0.2752
  308MOL   O13043724   0.836   0.376   0.427 -0.0110  0.1060 -0.2495
  308MOL   H13143725   1.056   0.473   0.215 -0.3915 -0.0078 -0.1730
  308MOL   H13243726   1.066   0.350   0.336  1.7531  0.1867 -0.4133
  308MOL   H13343727   0.852   0.404   0.227 -1.3310  2.0815 -1.0808
  308MOL   H13443728   0.856   0.291   0.392  0.0230  0.1917 -0.4374
  308MOL   C13543729   0.807   0.603   0.342 -0.3845  0.1111  1.1714
  308MOL   C13643730   0.676   0.620   0.260 -0.7654 -0.2013  0.4895
  308MOL   O13743731   0.628   0.751   0.289  0.2570  0.2000  0.3799
  308MOL   H13843732   0.791   0.614   0.449 -0.0271 -1.7513  1.4324
  308MOL   H13943733   0.880   0.679   0.313  0.3797 -1.7744 -2.1308
  308MOL   H14043734   0.619   0.531   0.287  2.0658 -2.4537 -0.7089
  308MOL   H14143735   0.603   0.749   0.380  0.0563 -1.8426  0.2963
  308MOL   H14243736   0.700   0.619   0.154  0.8418  2.2912  0.7884
  309MOL     C143737   5.505   1.376   4.947 -0.6223 -0.3629 -0.2751
  309MOL     C243738   5.568   1.492   4.881  0.0168 -0.5782 -0.3371
  309MOL     O343739   5.466   1.549   4.801  0.6940  0.7544 -0.0022
  309MOL     H443740   5.409   1.410   4.986 -0.6178  0.6317 -1.1032
  309MOL     H543741   5.565   1.333   5.027 -0.8833 -1.0195 -0.4285
  309MOL     H643742   5.643   1.442   4.821 -0.6668 -0.8734 -0.9564
  309MOL     H743743   5.498   1.626   4.758  0.9391  0.1875 -0.8575
  309MOL     H843744   5.484   1.295   4.876  0.1105 -0.4050 -0.4461
  309MOL     C943745   5.640   1.582   4.977 -0.1317  0.1109  0.5750
  309MOL    C1043746   5.715   1.703   4.909  0.9216  0.1979 -0.2731
  309MOL    O1143747   5.766   1.778   5.020  1.2165 -0.0138  0.4619
  309MOL    H1243748   5.569   1.625   5.048  1.2369  2.4793  0.5670
  309MOL    H1343749   5.706   1.522   5.040 -1.1244  0.0503  1.5709
  309MOL    H1443750   5.644   1.770   4.860  1.2019  0.2462 -0.6175
  309MOL    H1543751   5.684   1.801   5.062  0.7256  0.4085 -0.7208
  309MOL    C1643752   5.819   1.652   4.808 -0.4238 -0.9002 -0.0192
  309MOL    C1743753   5.932   1.756   4.777  0.8385 -0.4341 -0.0890
  309MOL    O1843754   6.018   1.764   4.892  0.2030 -0.5757  0.2436
  309MOL    H1943755   5.871   1.562   4.839  1.0006  0.9787  3.2761
  309MOL    H2043756   5.771   1.639   4.711  0.8008 -3.1062 -0.3553
  309MOL    H2143757   5.888   1.851   4.748  0.1571 -0.3920  1.0692
  309MOL    H2243758   5.956   1.784   4.961 -1.9231 -3.1624 -0.8460
  309MOL    C2343759   6.025   1.712   4.664 -0.4078 -0.4270 -0.3086
  309MOL    C2443760   5.979   1.685   4.515 -0.3021  0.0219  0.1559
  309MOL    O2543761   5.941   1.813   4.458 -0.7183 -0.3664 -0.1734
  309MOL    H2643762   6.109   1.780   4.666 -0.1890 -0.7236  0.7129
  309MOL    H2743763   6.060   1.614   4.696  1.5562  0.1781 -0.5356
  309MOL    H2843764   5.891   1.620   4.519  0.3665 -0.8715  0.7848
  309MOL    H2943765   6.016   1.852   4.415 -0.7533 -1.2391 -1.0391
  309MOL    C3043766   6.092   1.625   4.430 -0.2756  0.1367 -0.7291
  309MOL    C3143767   6.105   1.468   4.436 -0.4947 -0.2541  0.1055
  309MOL    O3243768   6.023   1.401   4.341 -0.7979  0.1976 -0.2084
  309MOL    H3343769   6.085   1.650   4.324 -0.5362  3.4832  0.0466
  309MOL    H3443770   6.187   1.671   4.455 -0.4498  0.5776 -0.8804
  309MOL    H3543771   6.091   1.424   4.534 -0.7776  0.1659  0.2554
  309MOL    H3643772   5.936   1.412   4.376 -0.7790 -4.5509  1.5977
  309MOL    C3743773   6.248   1.438   4.402 -0.2117 -0.6769  0.3989
  309MOL    C3843774   6.282   1.290   4.373 -0.1809  0.2301 -0.3705
  309MOL    O3943775   6.229   1.270   4.246  0.4223 -0.2681 -0.4097
  309MOL    H4043776   6.279   1.494   4.313 -1.4707 -1.4601 -0.5481
  309MOL    H4143777   6.310   1.486   4.478 -0.2161  0.5006 -0.3127
  309MOL    H4243778   6.242   1.227   4.453  1.9810 -0.4942  0.1819
  309MOL    H4343779   6.147   1.318   4.244 -0.3038 -1.4898 -0.2650
  309MOL    C4443780   6.437   1.274   4.359 -0.0274 -0.2056  0.3147
  309MOL    C4543781   6.511   1.302   4.500  0.0511  0.0709  0.1329
  309MOL    O4643782   6.458   1.214   4.596 -0.0799 -0.5118  0.0366
  309MOL    H4743783   6.462   1.177   4.317  1.6561  0.5035 -0.3387
  309MOL    H4843784   6.473   1.341   4.281 -1.2884 -1.0276 -1.0001
  309MOL    H4943785   6.488   1.404   4.532  0.5750  0.6656 -1.3512
  309MOL    H5043786   6.475   1.125   4.567  1.7098 -0.3142  0.3818
  309MOL    C5143787   6.659   1.264   4.482  0.0974 -0.1517  0.9314
  309MOL    C5243788   6.768   1.365   4.440 -0.2282 -0.0032  0.1997
  309MOL    O5343789   6.893   1.294   4.463  0.5983 -0.4266  0.0846
  309MOL    H5443790   6.691   1.245   4.585 -2.8900 -2.0904  1.5726
  309MOL    H5543791   6.673   1.170   4.428 -0.5247  1.6786 -2.5887
  309MOL    H5643792   6.758   1.454   4.502 -0.0346 -0.4946  0.9347
  309MOL    H5743793   6.896   1.214   4.412  1.9170 -0.1884 -0.2325
  309MOL    C5843794   6.772   1.395   4.293  0.2710 -1.0239 -0.3052
  309MOL    C5943795   6.724   1.530   4.241  0.0474 -0.7191  0.0095
  309MOL    O6043796   6.586   1.554   4.266  0.0851  0.1408  0.0775
  309MOL    H6143797   6.871   1.378   4.252  0.4934 -1.4355  0.3969
  309MOL    H6243798   6.715   1.312   4.250 -2.3780 -0.0143  1.1612
  309MOL    H6343799   6.741   1.529   4.133 -1.3239  3.1683 -0.3463
  309MOL    H6443800   6.580   1.584   4.355  4.1968  0.0866  0.4642
  309MOL    C6543801   6.814   1.650   4.294 -0.3624 -0.3689  0.3793
  309MOL    C6643802   6.804   1.783   4.219  0.1508  0.3299 -0.6810
  309MOL    O6743803   6.696   1.855   4.273 -0.0383  0.7017  0.1325
  309MOL    H6843804   6.809   1.652   4.403  1.4953 -0.7549  0.4841
  309MOL    H6943805   6.914   1.611   4.278  0.0828 -0.0143  2.2019
  309MOL    H7043806   6.781   1.766   4.114  1.7642  0.3950 -1.0628
  309MOL    H7143807   6.712   1.867   4.365 -0.2669 -1.1361  0.4346
  309MOL    C7243808   6.930   1.874   4.216 -0.1778  0.4514  0.0155
  309MOL    C7343809   6.984   1.944   4.344 -0.2935  0.2695 -0.4345
  309MOL    O7443810   7.013   1.846   4.441 -0.1442 -0.0556  0.1707
  309MOL    H7543811   7.010   1.817   4.170 -0.0450 -0.3203  1.1698
  309MOL    H7643812   6.906   1.952   4.144 -0.8446  0.2232 -0.0170
  309MOL    H7743813   6.911   2.012   4.388  0.1998  0.7977 -0.4225
  309MOL    H7843814   7.036   1.900   4.515  0.7939  1.9214 -1.4740
  309MOL    C7943815   7.114   2.028   4.330  0.6164  0.2441  0.7073
  309MOL    C8043816   7.096   2.170   4.283  0.2168 -0.5962  0.4144
  309MOL    O8143817   7.015   2.237   4.377 -0.1344  0.1628  0.3874
  309MOL    H8243818   7.169   2.026   4.425  0.0058  2.8413  1.1513
  309MOL    H8343819   7.175   1.965   4.265 -1.7225  0.8885 -2.1943
  309MOL    H8443820   7.053   2.161   4.183 -2.2667 -1.3701  1.5307
  309MOL    H8543821   7.060   2.318   4.394 -0.1466  0.1485  0.4853
  309MOL    C8643822   7.229   2.252   4.267  0.3845 -0.6325 -0.0239
  309MOL    C8743823   7.202   2.400   4.228 -0.0970 -0.3173 -0.7518
  309MOL    O8843824   7.153   2.460   4.349  0.9719  0.1824 -0.0736
  309MOL    H8943825   7.282   2.235   4.361  1.2603  0.2429 -0.3519
  309MOL    H9043826   7.286   2.211   4.183  1.7088 -2.2894  1.6287
  309MOL    H9143827   7.124   2.414   4.154 -2.5245 -1.5445  1.4925
  309MOL    H9243828   7.111   2.544   4.337  1.6133  0.5290  0.0774
  309MOL    C9343829   7.332   2.480   4.195 -0.3686  0.0339  0.3876
  309MOL    C9443830   7.370   2.477   4.048  0.0547  0.8454  0.0225
  309MOL    O9543831   7.267   2.549   3.990  0.4575  0.1740 -0.2432
  309MOL    H9643832   7.320   2.585   4.223  0.4137  0.3069 -0.2810
  309MOL    H9743833   7.411   2.435   4.255 -0.7187 -0.3930  0.5256
  309MOL    H9843834   7.352   2.375   4.012  1.1005  1.4859 -2.3658
  309MOL    H9943835   7.287   2.641   3.991  0.7553  0.1088  1.8294
  309MOL   C10043836   7.504   2.533   3.999  0.1514  0.3012  0.3312
  309MOL   C10143837   0.093   2.419   3.999 -0.0511  0.6087 -0.4142
  309MOL   O10243838   0.189   2.462   3.904 -0.4954 -0.1418  0.3220
  309MOL   H10343839   7.487   2.552   3.893  4.2636 -1.8442 -0.8096
  309MOL   H10443840   0.021   2.622   4.050 -0.2504  1.1082 -0.7624
  309MOL   H10543841   0.055   2.319   3.977  2.2781 -0.2405 -0.8231
  309MOL   H10643842   0.261   2.402   3.915  1.1703  1.2701 -2.3547
  309MOL   C10743843   0.174   2.396   4.131  0.3071  0.0191  0.6087
  309MOL   C10843844   0.237   2.255   4.137 -0.0108  0.1235  0.6762
  309MOL   O10943845   0.313   2.224   4.014  0.0412 -0.5611  0.2131
  309MOL   H11043846   0.253   2.471   4.137  0.1408  0.3852 -1.3359
  309MOL   H11143847   0.104   2.404   4.215 -1.1943 -0.1999 -0.6031
  309MOL   H11243848   0.151   2.188   4.128 -0.7809  1.2227 -0.3711
  309MOL   H11343849   0.343   2.134   4.023  2.0074 -0.0978 -1.3841
  309MOL   C11443850   0.319   2.215   4.263 -0.4752 -0.3014  0.2660
  309MOL   C11543851   0.241   2.207   4.391  0.0820  0.9080 -0.8646
  309MOL   O11643852   0.190   2.080   4.380  0.0711  0.0435  0.2119
  309MOL   H11743853   0.373   2.124   4.239 -1.5051 -1.2411  1.4917
  309MOL   H11843854   0.397   2.291   4.263 -0.0729 -0.6923  1.8632
  309MOL   H11943855   0.161   2.281   4.399  0.7981  1.4516  1.8097
  309MOL   H12043856   0.117   2.068   4.439  0.1296  0.3810  0.3550
  309MOL   C12143857   0.323   2.208   4.522 -0.7199 -0.1212 -0.2059
  309MOL   C12243858   0.348   2.344   4.587 -0.0806  0.8238  0.0814
  309MOL   O12343859   0.409   2.311   4.709  0.2615  0.5457  0.1495
  309MOL   H12443860   0.272   2.143   4.594 -1.0511  0.2548 -0.1024
  309MOL   H12543861   0.418   2.160   4.498  0.6917  0.9637  2.9289
  309MOL   H12643862   0.250   2.390   4.606 -0.6607 -1.0127  1.6377
  309MOL   H12743863   0.343   2.281   4.769 -1.1066  0.2985 -1.4438
  309MOL   C12843864   0.434   2.441   4.500  0.8961 -0.3927  0.1172
  309MOL   C12943865   0.447   2.579   4.566 -0.6026  0.4325 -0.4114
  309MOL   O13043866   0.536   2.641   4.474 -0.1424  0.3185  0.3944
  309MOL   H13143867   0.533   2.395   4.492  2.8881  3.0402  3.1383
  309MOL   H13243868   0.393   2.455   4.401  0.6856 -0.9120  0.1287
  309MOL   H13343869   0.497   2.584   4.663  1.2880  0.0873 -1.3430
  309MOL   H13443870   0.498   2.649   4.388  3.0846  3.0454 -0.9285
  309MOL   C13543871   0.311   2.658   4.569 -0.3196  0.2342  0.6377
  309MOL   C13643872   0.323   2.798   4.631  0.2844 -0.2022  0.0689
  309MOL   O13743873   0.187   2.832   4.670  0.2856 -1.1272  0.3400
  309MOL   H13843874   0.260   2.659   4.473  2.2489 -0.6432 -0.7906
  309MOL   H13943875   0.237   2.606   4.631 -2.5715 -1.3146 -3.1671
  309MOL   H14043876   0.367   2.874   4.567  1.6207 -2.1443 -1.3723
  309MOL   H14143877   0.151   2.762   4.724  1.4116 -3.4198 -1.7803
  309MOL   H14243878   0.374   2.792   4.727  1.6807 -1.3630 -0.7205
  310MOL     C143879   1.363   0.857   0.334 -0.3080 -0.1176 -0.3124
  310MOL     C243880   1.258   0.883   0.228 -0.1403  0.5413 -1.0456
  310MOL     O343881   1.234   0.757   0.156  0.0336 -0.5363 -0.1490
  310MOL     H443882   1.313   0.800   0.413  0.3400 -0.7316 -0.3393
  310MOL     H543883   1.395   0.953   0.376  0.0264  0.9203 -2.8760
  310MOL     H643884   1.309   0.954   0.163  0.2580  0.5006 -0.7812
  310MOL     H743885   1.219   0.779   0.066 -0.6578 -0.8391 -0.1101
  310MOL     H843886   1.452   0.800   0.309  0.4642  1.0578 -0.2813
  310MOL     C943887   1.129   0.953   0.278  0.2387  0.1340 -0.1438
  310MOL    C1043888   1.158   1.100   0.334 -0.1437  0.2154 -0.0217
  310MOL    O1143889   1.182   1.174   0.218  0.0737  0.0798  0.0230
  310MOL    H1243890   1.051   0.944   0.203  0.9823 -0.5677 -0.8479
  310MOL    H1343891   1.092   0.893   0.361  1.8007 -1.0371 -0.2718
  310MOL    H1443892   1.247   1.110   0.397  0.2056  2.0017 -0.7797
  310MOL    H1543893   1.276   1.183   0.222  0.0220  0.1897  0.9950
  310MOL    C1643894   1.032   1.173   0.392  0.1583  0.0408 -0.2192
  310MOL    C1743895   1.067   1.310   0.451  0.9387 -0.1104 -0.0375
  310MOL    O1843896   0.947   1.367   0.490 -0.0989 -0.2302  0.1315
  310MOL    H1943897   0.959   1.194   0.314  0.4515 -1.6547 -0.9685
  310MOL    H2043898   0.982   1.112   0.468  2.1481 -0.3322  0.8200
  310MOL    H2143899   1.113   1.373   0.376  1.4682 -1.0928 -0.5491
  310MOL    H2243900   0.887   1.365   0.418 -2.4241  0.7706  1.9514
  310MOL    C2343901   1.157   1.308   0.578  0.3736  0.6024  0.5634
  310MOL    C2443902   1.263   1.423   0.603 -0.0882  0.8898  1.0496
  310MOL    O2543903   1.366   1.411   0.508  0.3246 -0.1784  0.3891
  310MOL    H2643904   1.091   1.303   0.665  0.3901 -2.0992  0.4603
  310MOL    H2743905   1.216   1.217   0.584 -0.9411 -0.1178  3.3207
  310MOL    H2843906   1.316   1.413   0.699 -0.2097 -0.7899  0.9610
  310MOL    H2943907   1.423   1.486   0.499  2.0360 -1.4209  0.8100
  310MOL    C3043908   1.210   1.564   0.613 -0.9277  0.3995  0.1072
  310MOL    C3143909   1.111   1.591   0.725 -0.2530 -0.6807 -0.0749
  310MOL    O3243910   1.178   1.599   0.849  0.1658  0.4037  0.0090
  310MOL    H3343911   1.291   1.636   0.625  0.5588 -1.1446 -0.5871
  310MOL    H3443912   1.166   1.590   0.517 -1.7183  0.5442  0.5036
  310MOL    H3543913   1.038   1.510   0.731 -0.6333 -0.4427 -1.3301
  310MOL    H3643914   1.250   1.660   0.846  1.6141 -1.1727  1.2363
  310MOL    C3743915   1.027   1.725   0.716  0.9129 -0.5175  0.4099
  310MOL    C3843916   0.943   1.740   0.585  0.0888  0.5565  0.0154
  310MOL    O3943917   0.841   1.643   0.588 -0.1346 -0.4482 -0.4089
  310MOL    H4043918   0.951   1.738   0.794 -1.0645 -0.9533 -1.3973
  310MOL    H4143919   1.096   1.809   0.726 -0.0939 -0.0481  4.2875
  310MOL    H4243920   0.999   1.725   0.492  0.5851  2.3092  0.0176
  310MOL    H4343921   0.887   1.561   0.576 -0.8973 -1.0356  0.6009
  310MOL    C4443922   0.871   1.878   0.590 -0.2052  0.7267  0.9713
  310MOL    C4543923   0.958   2.003   0.593  0.3169 -0.2854 -0.4516
  310MOL    O4643924   1.049   1.992   0.483 -0.1503  0.1737  0.5607
  310MOL    H4743925   0.809   1.879   0.501  1.9281  0.3382 -0.5616
  310MOL    H4843926   0.822   1.865   0.687  0.6464 -1.4786  1.1499
  310MOL    H4943927   1.014   2.004   0.686 -1.3482  0.1876  0.5547
  310MOL    H5043928   0.997   1.981   0.405  0.4729 -0.1290  0.1801
  310MOL    C5143929   0.866   2.131   0.599 -0.1153 -0.2212 -0.5508
  310MOL    C5243930   0.770   2.147   0.720  0.8112 -0.1585 -0.6940
  310MOL    O5343931   0.845   2.133   0.840  0.5314 -0.0552  0.2939
  310MOL    H5443932   0.932   2.218   0.600  0.2279 -0.4739 -0.8096
  310MOL    H5543933   0.805   2.138   0.509 -0.9975  1.3032  0.1546
  310MOL    H5643934   0.694   2.070   0.728 -1.3189  2.0548  1.4049
  310MOL    H5743935   0.780   2.145   0.908 -3.3402 -1.4235 -2.9368
  310MOL    C5843936   0.695   2.284   0.720 -0.3574 -0.4541 -0.2936
  310MOL    C5943937   0.579   2.294   0.814 -0.2448  0.1716 -0.3873
  310MOL    O6043938   0.620   2.372   0.929 -0.6455 -0.3303  0.2731
  310MOL    H6143939   0.769   2.364   0.732 -0.0347 -0.4394 -2.2062
  310MOL    H6243940   0.657   2.303   0.619  2.6388 -0.1601 -1.4411
  310MOL    H6343941   0.541   2.196   0.841  0.4354 -0.3654 -1.3795
  310MOL    H6443942   0.631   2.316   1.005  0.9680  0.9534  1.0235
  310MOL    C6543943   0.458   2.371   0.762 -0.1291 -0.1758 -0.5543
  310MOL    C6643944   0.361   2.297   0.661  0.3717 -0.0621  0.2328
  310MOL    O6743945   0.299   2.191   0.729  0.1574  0.5617 -0.3024
  310MOL    H6843946   0.405   2.410   0.849  0.2325 -0.1148 -0.3572
  310MOL    H6943947   0.500   2.462   0.719 -0.7021  0.0964 -0.5403
  310MOL    H7043948   0.428   2.251   0.588  3.8269  1.7226  2.1497
  310MOL    H7143949   0.360   2.119   0.733  0.3791  0.7410 -0.4876
  310MOL    C7243950   0.247   2.384   0.596 -0.2995 -0.0519 -0.1822
  310MOL    C7343951   0.307   2.512   0.537  0.1982 -0.3964  0.2485
  310MOL    O7443952   0.375   2.453   0.429  0.0552 -0.2326  0.2250
  310MOL    H7543953   0.200   2.331   0.514 -0.5831 -0.1827  0.0651
  310MOL    H7643954   0.171   2.398   0.673  0.3514 -0.5242  0.5603
  310MOL    H7743955   0.377   2.569   0.598 -0.2629 -1.3042  1.6632
  310MOL    H7843956   0.405   2.521   0.371 -2.7737 -0.3868 -1.5176
  310MOL    C7943957   0.204   2.620   0.492  0.6933  0.1157  0.2440
  310MOL    C8043958   0.165   2.734   0.596  0.0177 -0.0694  0.2091
  310MOL    O8143959   0.062   2.810   0.539 -0.3389  0.0932  0.3328
  310MOL    H8243960   0.230   2.661   0.394 -0.1509  0.6758  0.2490
  310MOL    H8343961   0.113   2.567   0.464 -0.2919  2.5271 -1.3098
  310MOL    H8443962   0.250   2.802   0.584  0.9934 -1.3815 -0.5833
  310MOL    H8543963   7.509   2.749   0.533 -1.8848  2.0020 -0.8654
  310MOL    C8643964   0.147   2.686   0.743  0.8994 -0.1981 -0.2236
  310MOL    C8743965   0.094   2.788   0.845  0.5489 -0.0817  0.3202
  310MOL    O8843966   0.034   2.725   0.955  0.0751 -0.2584 -0.6134
  310MOL    H8943967   0.081   2.600   0.736  0.6973 -0.1944  1.4522
  310MOL    H9043968   0.244   2.655   0.779  1.1392  0.1991 -0.5174
  310MOL    H9143969   0.007   2.834   0.798 -0.3105 -3.3143 -1.4162
  310MOL    H9243970   7.471   2.694   0.921 -1.1737  1.7328  0.4791
  310MOL    C9343971   0.179   2.910   0.890  0.7119  0.2595  0.1671
  310MOL    C9443972   0.332   2.889   0.919  0.3725  0.5001 -0.1593
  310MOL    O9543973   0.392   3.022   0.912  0.2454 -0.3354 -0.0880
  310MOL    H9643974   0.169   2.985   0.812 -0.4060  0.8517  0.8642
  310MOL    H9743975   0.129   2.952   0.977 -2.9102  0.7597 -2.0686
  310MOL    H9843976   0.367   2.836   0.830  0.5217 -1.2772  0.9318
  310MOL    H9943977   0.480   3.016   0.945 -0.3334 -1.0548  1.3772
  310MOL   C10043978   0.372   2.823   1.050 -0.0634 -0.0577  0.4238
  310MOL   C10143979   0.396   2.669   1.037  0.2440  0.1901  0.1994
  310MOL   O10243980   0.504   2.625   0.956 -0.3274  0.0985  0.2239
  310MOL   H10343981   0.464   2.861   1.095  1.1643 -1.5980 -0.7200
  310MOL   H10443982   0.303   2.843   1.131  1.8106  0.2894  1.9577
  310MOL   H10543983   0.306   2.644   0.981  0.9170 -1.6967 -0.0775
  310MOL   H10643984   0.510   2.531   0.966 -0.0553  0.0526 -0.3568
  310MOL   C10743985   0.397   2.576   1.161  0.2637  0.1063 -0.1916
  310MOL   C10843986   0.251   2.536   1.204  0.6447 -0.0728 -0.0944
  310MOL   O10943987   0.244   2.390   1.217 -0.1941  0.4398  0.3206
  310MOL   H11043988   0.444   2.482   1.130  0.4929  0.1886 -0.0933
  310MOL   H11143989   0.442   2.629   1.244  2.9377 -1.4094 -0.6148
  310MOL   H11243990   0.180   2.553   1.123 -1.1397  0.0130  1.4516
  310MOL   H11343991   0.236   2.358   1.128  0.4909  1.0571  0.0317
  310MOL   C11443992   0.205   2.596   1.340  0.5953 -0.2305 -0.7567
  310MOL   C11543993   0.049   2.586   1.359 -0.3002 -0.1531  0.6607
  310MOL   O11643994   0.023   2.577   1.499  0.0356  0.1041  0.0289
  310MOL   H11743995   0.256   2.546   1.421 -1.4057  0.6105  1.0797
  310MOL   H11843996   0.245   2.698   1.346 -0.8878  0.2391  2.5593
  310MOL   H11943997   7.514   2.505   1.310  0.1611 -0.3522  0.4778
  310MOL   H12043998   7.455   2.609   1.516  0.4270  0.2482  1.7840
  310MOL   C12143999   7.495   2.715   1.317  0.2217 -0.5343 -0.3742
  310MOL   C12244000   7.340   2.698   1.293 -0.2966 -0.6082  0.1459
  310MOL   O12344001   7.278   2.643   1.417 -0.0094  0.2779  0.7483
  310MOL   H12444002   7.501   2.790   1.396 -0.8847 -1.0734  0.2361
  310MOL   H12544003   0.023   2.754   1.227  0.6539 -1.8086 -0.7079
  310MOL   H12644004   7.323   2.617   1.222 -0.5581 -1.4711  1.1927
  310MOL   H12744005   7.210   2.703   1.444 -1.1211 -0.7944  0.3540
  310MOL   C12844006   7.274   2.839   1.261  0.7004  0.0529  1.5543
  310MOL   C12944007   7.138   2.840   1.186 -0.1189  0.2175  0.0081
  310MOL   O13044008   7.039   2.738   1.231 -0.2668  0.0061  0.1898
  310MOL   H13144009   7.272   2.914   1.339 -0.5132  3.5443 -1.6619
  310MOL   H13244010   7.347   2.887   1.196 -1.8761  0.6035 -1.0404
  310MOL   H13344011   7.158   2.808   1.084  0.8418  0.4405  0.1221
  310MOL   H13444012   7.035   2.756   1.324  1.3764 -0.5713  0.3862
  310MOL   C13544013   7.069   2.977   1.188 -0.0392  0.0266 -0.0110
  310MOL   C13644014   6.948   2.981   1.104 -0.1772  0.2885 -0.0343
  310MOL   O13744015   6.906   3.116   1.095 -0.0417 -0.0040  0.3827
  310MOL   H13844016   7.043   3.008   1.289  0.1243 -0.7348  0.2687
  310MOL   H13944017   7.144   3.047   1.151 -0.4624 -0.0848 -1.0880
  310MOL   H14044018   6.869   2.919   1.148  0.8022 -0.0755  1.2398
  310MOL   H14144019   6.955   3.158   1.026 -2.4378 -1.5947 -2.4220
  310MOL   H14244020   6.976   2.945   1.005  1.1462 -1.2589  0.8803
  311MOL     C144021   5.752   0.847   0.272 -0.1254 -0.1847  1.1569
  311MOL     C244022   5.795   0.749   0.163 -0.7701 -0.2728  0.2404
  311MOL     O344023   5.798   0.621   0.216 -0.5522 -0.0436 -0.4184
  311MOL     H444024   5.813   0.831   0.361  0.5838  0.7038  0.8411
  311MOL     H544025   5.645   0.840   0.291 -0.1816 -1.1585  0.5598
  311MOL     H644026   5.898   0.774   0.136 -1.2735 -0.4045 -1.8661
  311MOL     H744027   5.710   0.587   0.216 -0.8031  0.5671 -2.1243
  311MOL     H844028   5.768   0.947   0.232 -1.6367 -0.5058 -0.3162
  311MOL     C944029   5.705   0.750   0.032 -0.8790 -0.6648 -0.1795
  311MOL    C1044030   5.699   0.882   7.468 -0.5752  0.3409 -0.9616
  311MOL    O1144031   5.825   0.909   7.418 -0.3390  0.7261 -0.2612
  311MOL    H1244032   5.731   0.668   7.485 -1.2689  0.7634 -2.1272
  311MOL    H1344033   5.605   0.720   0.063  0.7734 -2.5401  3.7600
  311MOL    H1444034   5.670   0.968   0.009  1.2554  0.1883  0.1717
  311MOL    H1544035   5.890   0.909   7.487 -0.7251  4.2808  0.2045
  311MOL    C1644036   5.602   0.873   7.349 -0.2035  0.5847  0.0527
  311MOL    C1744037   5.450   0.872   7.356 -0.3239  0.4064 -0.1920
  311MOL    O1844038   5.407   0.737   7.370  0.1149 -0.0421 -0.3548
  311MOL    H1944039   5.630   0.960   7.290 -1.9083  0.5995 -0.7636
  311MOL    H2044040   5.623   0.795   7.276 -0.2692  0.9909 -0.4037
  311MOL    H2144041   5.420   0.923   7.264  0.0572 -0.4391 -0.8011
  311MOL    H2244042   5.451   0.698   7.444  1.5453  0.9974 -0.6177
  311MOL    C2344043   5.400   0.966   7.469  0.6831 -1.1814 -0.4038
  311MOL    C2444044   5.407   1.118   7.435 -0.4096  0.5653  0.4382
  311MOL    O2544045   5.295   1.125   7.358 -0.0495 -0.1677  0.3178
  311MOL    H2644046   5.294   0.944   7.484 -0.0269  1.1915 -1.8485
  311MOL    H2744047   5.441   0.943   0.049  0.8404 -1.1468 -0.4614
  311MOL    H2844048   5.488   1.137   7.365 -0.8164 -0.1247 -0.2297
  311MOL    H2944049   5.264   1.213   7.342  1.5694  0.7486  2.0831
  311MOL    C3044050   5.418   1.222   0.029 -0.3939  0.4019  0.0757
  311MOL    C3144051   5.530   1.210   0.139 -0.5637  0.9734  0.3009
  311MOL    O3244052   5.665   1.216   0.094  0.2480  0.1792 -0.3660
  311MOL    H3344053   5.441   1.317   7.499 -0.3926  0.1748 -0.3704
  311MOL    H3444054   5.324   1.221   0.083  0.5521  0.1271  1.7579
  311MOL    H3544055   5.496   1.115   0.180 -0.6433  0.5978 -0.6418
  311MOL    H3644056   5.681   1.209   0.001 -0.8043 -0.4919 -0.5012
  311MOL    C3744057   5.517   1.311   0.251  0.6913  0.1080  0.5525
  311MOL    C3844058   5.574   1.255   0.384 -0.1612  0.1596 -0.0566
  311MOL    O3944059   5.581   1.359   0.488 -0.3695 -0.0498  0.1317
  311MOL    H4044060   5.578   1.400   0.233  0.3133  0.0887 -0.8634
  311MOL    H4144061   5.414   1.338   0.273  0.5890  1.0668 -1.0577
  311MOL    H4244062   5.677   1.227   0.362 -0.1898  0.2388 -0.2872
  311MOL    H4344063   5.671   1.387   0.497 -0.0654 -0.8289 -0.4423
  311MOL    C4444064   5.490   1.143   0.446  0.3699  0.8184  0.2155
  311MOL    C4544065   5.559   1.080   0.566  0.2826  0.0469  0.2426
  311MOL    O4644066   5.530   1.163   0.678  0.2758 -0.0269  0.1765
  311MOL    H4744067   5.390   1.182   0.470 -0.2646 -0.5294 -0.2201
  311MOL    H4844068   5.462   1.066   0.376 -0.5193  0.9075  0.4641
  311MOL    H4944069   5.667   1.085   0.554  0.5008 -1.2041  1.4923
  311MOL    H5044070   5.558   1.247   0.644  1.2164 -0.1665  0.5784
  311MOL    C5144071   5.515   0.932   0.587 -0.4066  0.4238  0.1788
  311MOL    C5244072   5.570   0.856   0.709 -0.2215 -0.3984  0.1461
  311MOL    O5344073   5.500   0.734   0.713 -0.1005  0.1723 -0.4234
  311MOL    H5444074   5.407   0.937   0.600 -0.4830 -1.2662  0.3793
  311MOL    H5544075   5.542   0.875   0.499  0.9700  2.4454 -0.7388
  311MOL    H5644076   5.540   0.916   0.794 -0.9576  1.7279 -1.5895
  311MOL    H5744077   5.479   0.711   0.802 -0.2554  2.0024  0.0393
  311MOL    C5844078   5.727   0.818   0.721 -0.4994 -0.5542 -0.1411
  311MOL    C5944079   5.777   0.774   0.864 -0.7556 -0.1076  0.3243
  311MOL    O6044080   5.916   0.750   0.875  0.1938  0.2122 -0.3508
  311MOL    H6144081   5.745   0.734   0.654  1.3865  0.7708 -1.3434
  311MOL    H6244082   5.788   0.906   0.702 -2.1031  0.3651 -1.0727
  311MOL    H6344083   5.732   0.677   0.887 -0.4970 -0.2876  0.0814
  311MOL    H6444084   5.933   0.661   0.846 -1.7864 -0.6897  1.1550
  311MOL    C6544085   5.747   0.880   0.973 -0.2112 -0.3169  0.1393
  311MOL    C6644086   5.784   1.032   0.950  0.3124  0.9875 -0.1074
  311MOL    O6744087   5.747   1.108   1.062  0.3170  0.4594  0.0237
  311MOL    H6844088   5.643   0.878   1.005 -0.3309 -2.3386 -0.2916
  311MOL    H6944089   5.794   0.844   1.065 -1.6868  0.1903  1.1157
  311MOL    H7044090   5.720   1.063   0.868 -1.6862  0.1402  1.0766
  311MOL    H7144091   5.785   1.075   1.142  1.3892  0.1859 -0.5785
  311MOL    C7244092   5.934   1.063   0.918  0.3879 -0.0142 -0.5669
  311MOL    C7344093   5.965   1.201   0.866 -0.4226 -0.4871 -0.5692
  311MOL    O7444094   6.103   1.218   0.860  0.2875 -0.3879 -0.3742
  311MOL    H7544095   5.999   1.044   1.004 -0.4385 -0.1510  0.0347
  311MOL    H7644096   5.969   0.994   0.840 -2.6789 -0.5341 -1.5554
  311MOL    H7744097   5.927   1.272   0.939  1.5228  1.2520 -1.2272
  311MOL    H7844098   6.143   1.167   0.928 -1.7101 -1.7586 -0.1972
  311MOL    C7944099   5.898   1.228   0.724  0.4717  0.0544  0.3830
  311MOL    C8044100   5.930   1.362   0.654 -0.7011  0.4560 -0.3666
  311MOL    O8144101   5.869   1.365   0.525 -0.1244  0.1683 -0.3121
  311MOL    H8244102   5.939   1.155   0.655 -0.7122 -1.1410  0.9212
  311MOL    H8344103   5.790   1.214   0.721  0.1998  2.2577 -2.1998
  311MOL    H8444104   6.037   1.379   0.643 -0.6632  0.8551  0.6534
  311MOL    H8544105   5.927   1.320   0.466  0.0004  0.3632 -0.3377
  311MOL    C8644106   5.866   1.471   0.737 -0.3338  0.1731  0.2559
  311MOL    C8744107   5.883   1.614   0.677  0.8516  0.3179  0.7734
  311MOL    O8844108   5.793   1.627   0.568  0.1007 -0.3879 -0.4003
  311MOL    H8944109   5.760   1.452   0.757 -0.3363  0.9458  1.0100
  311MOL    H9044110   5.911   1.480   0.836 -1.2151  1.3578  0.5644
  311MOL    H9144111   5.984   1.616   0.636  0.3937 -0.5453 -0.3997
  311MOL    H9244112   5.824   1.552   0.520  2.7752 -0.8706  1.9432
  311MOL    C9344113   5.875   1.734   0.776 -0.1946  0.0365 -0.1847
  311MOL    C9444114   5.945   1.872   0.742  0.0900  0.6903  0.0762
  311MOL    O9544115   5.878   1.930   0.635  0.1912  0.1998  0.1575
  311MOL    H9644116   5.772   1.750   0.808 -0.5119 -0.6683 -0.8316
  311MOL    H9744117   5.925   1.698   0.865 -3.3480  0.7380  1.9450
  311MOL    H9844118   6.044   1.846   0.703  0.8746  1.1853  1.6585
  311MOL    H9944119   5.883   1.872   0.561 -0.6571  1.6517 -1.0764
  311MOL   C10044120   5.955   1.976   0.866 -0.2677 -0.8332  0.6071
  311MOL   C10144121   6.043   1.941   0.990 -0.1377  0.0080 -0.0016
  311MOL   O10244122   6.179   1.949   0.950  0.5664  0.0632 -0.1980
  311MOL   H10344123   5.991   2.068   0.822 -0.8303 -1.5873 -1.4742
  311MOL   H10444124   5.852   1.998   0.895 -0.2692 -1.5082  1.1408
  311MOL   H10544125   6.023   1.841   1.028  0.7459  0.1459  0.8598
  311MOL   H10644126   6.215   1.864   0.965 -1.1396 -1.0157 -1.9016
  311MOL   C10744127   6.019   2.042   1.110 -0.1030  0.1782  0.0167
  311MOL   C10844128   6.124   2.040   1.223 -0.9772 -0.8219  0.1825
  311MOL   O10944129   6.098   2.149   1.307  0.3209 -0.3500 -0.0032
  311MOL   H11044130   6.016   2.144   1.072 -1.8940 -0.0308 -0.4765
  311MOL   H11144131   5.918   2.031   1.151  0.0099  1.7594  0.7405
  311MOL   H11244132   6.223   2.041   1.177 -0.3651  1.2054  1.4426
  311MOL   H11344133   6.008   2.143   1.336  0.3790 -1.8265 -0.1109
  311MOL   C11444134   6.117   1.910   1.298  0.4236 -0.0102  0.2358
  311MOL   C11544135   6.247   1.863   1.368  0.6753  0.1744  0.0227
  311MOL   O11644136   6.213   1.756   1.455 -0.1504 -0.1580 -0.4953
  311MOL   H11744137   6.047   1.904   1.381  0.7149 -0.1150  0.4747
  311MOL   H11844138   6.096   1.828   1.229  1.3813  1.3406 -1.6877
  311MOL   H11944139   6.287   1.948   1.423 -0.7887  0.9191 -0.0262
  311MOL   H12044140   6.168   1.686   1.410  2.7315 -2.5517  0.1884
  311MOL   C12144141   6.355   1.805   1.266 -0.0417 -0.8396  0.3650
  311MOL   C12244142   6.487   1.745   1.320 -0.6686  0.5245  0.1974
  311MOL   O12344143   6.539   1.683   1.206  0.2567 -0.2355  0.1421
  311MOL   H12444144   6.306   1.718   1.220 -1.0251  0.0761 -0.3415
  311MOL   H12544145   6.378   1.885   1.196  0.7203 -0.6443  0.8399
  311MOL   H12644146   6.463   1.670   1.396 -0.2832 -0.1775 -0.3676
  311MOL   H12744147   6.568   1.598   1.236 -0.3280 -0.3971  0.2506
  311MOL   C12844148   6.591   1.840   1.375 -0.6392 -0.5365 -0.1775
  311MOL   C12944149   6.562   1.893   1.512 -0.6344  0.1236  0.3476
  311MOL   O13044150   6.567   1.778   1.596  0.6891  0.0836  0.3753
  311MOL   H13144151   6.692   1.804   1.356 -0.1634 -0.2147  1.6832
  311MOL   H13244152   6.574   1.920   1.303 -0.3770 -0.9852 -0.7402
  311MOL   H13344153   6.462   1.935   1.523 -1.3589 -0.9694 -1.9000
  311MOL   H13444154   6.525   1.796   1.679  1.6396  0.4014  0.7881
  311MOL   C13544155   6.670   1.985   1.577 -0.2761  0.2236  0.2091
  311MOL   C13644156   6.669   2.127   1.517  0.3175 -0.2348  0.5824
  311MOL   O13744157   6.558   2.199   1.560 -0.5738 -0.0068  0.5200
  311MOL   H13844158   6.652   1.995   1.684  0.7364  2.0255  0.2278
  311MOL   H13944159   6.768   1.937   1.586  0.2534  1.2693  0.1597
  311MOL   H14044160   6.681   2.109   1.410  2.8827  0.4900  0.7120
  311MOL   H14144161   6.487   2.180   1.501  0.8925 -1.8328 -0.7334
  311MOL   H14244162   6.749   2.197   1.542  0.9217 -0.4500 -0.6877
  312MOL     C144163   4.447   4.344   3.913  0.4822 -0.6584  0.2877
  312MOL     C244164   4.363   4.215   3.920  0.1796  0.2616  0.0980
  312MOL     O344165   4.233   4.254   3.928  0.3538  0.0255 -0.5317
  312MOL     H444166   4.552   4.313   3.910  0.1497 -1.9772  1.6285
  312MOL     H544167   4.432   4.398   4.007 -0.9914 -0.6452  0.0545
  312MOL     H644168   4.396   4.163   4.010  0.2314 -1.2696 -0.7925
  312MOL     H744169   4.194   4.177   3.965 -0.0031 -0.6047 -2.1595
  312MOL     H844170   4.430   4.403   3.824  0.6954  0.4950  1.0035
  312MOL     C944171   4.384   4.126   3.800  0.6063 -0.1432  0.3855
  312MOL    C1044172   4.488   4.018   3.810  0.3081 -0.3251  0.0305
  312MOL    O1144173   4.451   3.932   3.913 -0.0751  0.4915  0.0294
  312MOL    H1244174   4.292   4.079   3.765 -0.1502 -0.1496  2.3125
  312MOL    H1344175   4.432   4.184   3.721  2.8522  2.3215  3.4327
  312MOL    H1444176   4.592   4.049   3.809 -0.0715  1.0101 -0.5804
  312MOL    H1544177   4.461   3.980   3.994  0.5597 -0.2988  0.4316
  312MOL    C1644178   4.481   3.917   3.687  0.8853  0.5023  0.5045
  312MOL    C1744179   4.517   3.983   3.544  0.1810  0.5432 -0.4493
  312MOL    O1844180   4.646   4.040   3.563  0.1163 -0.2680  0.2834
  312MOL    H1944181   4.554   3.837   3.700  0.4628  0.0814  0.2999
  312MOL    H2044182   4.382   3.871   3.687  0.0711  2.1428 -1.7551
  312MOL    H2144183   4.448   4.066   3.526 -0.8357  0.4125  2.4825
  312MOL    H2244184   4.696   4.034   3.483 -2.6501 -0.5269 -1.4975
  312MOL    C2344185   4.510   3.893   3.423  0.0301  0.5469  0.1116
  312MOL    C2444186   4.370   3.859   3.383  0.6245  0.3907 -0.3062
  312MOL    O2544187   4.340   3.921   3.260 -0.1326  0.4628  0.1803
  312MOL    H2644188   4.552   3.953   3.343  2.4481 -1.7136 -0.3704
  312MOL    H2744189   4.561   3.797   3.434  0.4541  0.4785 -2.2531
  312MOL    H2844190   4.289   3.887   3.451  1.1983 -2.3177  1.5717
  312MOL    H2944191   4.258   3.890   3.225 -0.8041  2.3505 -0.0185
  312MOL    C3044192   4.347   3.705   3.367  0.3866 -0.1093  0.1645
  312MOL    C3144193   4.335   3.631   3.498 -0.0159  0.4492 -0.5257
  312MOL    O3244194   4.222   3.672   3.575 -0.0303 -0.2210  0.1380
  312MOL    H3344195   4.254   3.689   3.311  0.3973  1.7011 -0.4263
  312MOL    H3444196   4.434   3.673   3.310  1.0503  1.3565  0.3418
  312MOL    H3544197   4.424   3.665   3.551  0.3896 -1.1469 -0.1532
  312MOL    H3644198   4.144   3.627   3.545 -0.2338 -0.6000  1.1974
  312MOL    C3744199   4.338   3.474   3.487  0.6047 -0.4831  0.4804
  312MOL    C3844200   4.476   3.410   3.450  0.5094 -0.5237 -0.6095
  312MOL    O3944201   4.553   3.412   3.571 -0.2322 -0.1670  0.2112
  312MOL    H4044202   4.307   3.450   3.588  2.0316  1.4597  1.4183
  312MOL    H4144203   4.262   3.447   3.413  0.7807  3.1694 -1.1297
  312MOL    H4244204   4.523   3.464   3.367 -1.0980 -0.4122 -1.4704
  312MOL    H4344205   4.501   3.357   3.628 -0.6519  1.1908  1.1672
  312MOL    C4444206   4.467   3.267   3.396 -0.2146 -0.6505 -0.4850
  312MOL    C4544207   4.598   3.205   3.353  0.1617 -0.3843  0.2436
  312MOL    O4644208   4.603   3.064   3.370  0.1657  0.5455 -0.0600
  312MOL    H4744209   4.416   3.200   3.466 -1.5205  1.1384  0.3231
  312MOL    H4844210   4.398   3.268   3.312 -1.8845 -1.0542  0.8564
  312MOL    H4944211   4.665   3.242   3.430 -1.1039 -0.5337  1.4513
  312MOL    H5044212   4.646   3.042   3.451  0.4244 -0.0478 -0.3595
  312MOL    C5144213   4.650   3.247   3.214  0.4956  0.2894  0.6061
  312MOL    C5244214   4.558   3.225   3.094  0.2884 -0.0605  0.2417
  312MOL    O5344215   4.474   3.337   3.070 -0.1403 -0.7049 -0.2106
  312MOL    H5444216   4.678   3.352   3.220 -1.5423  0.9537 -0.8714
  312MOL    H5544217   4.747   3.196   3.211  1.4112  2.0144  0.2505
  312MOL    H5644218   4.497   3.136   3.112  0.6672 -0.6108 -1.1149
  312MOL    H5744219   4.390   3.310   3.038  0.4887 -2.5355 -0.3822
  312MOL    C5844220   4.644   3.192   2.968 -0.2334 -0.2945 -0.9006
  312MOL    C5944221   4.562   3.160   2.839  0.0247 -0.0577 -0.3002
  312MOL    O6044222   4.637   3.228   2.735 -0.2673  0.2449 -0.0994
  312MOL    H6144223   4.702   3.284   2.959  1.2931 -0.9423  1.7377
  312MOL    H6244224   4.718   3.117   2.995  0.4263  0.7452  0.2333
  312MOL    H6344225   4.465   3.210   2.844  0.6895  1.6356 -3.1402
  312MOL    H6444226   4.619   3.320   2.733  0.6490  0.4415  0.5511
  312MOL    C6544227   4.555   3.015   2.799 -0.5672  0.1075 -0.4835
  312MOL    C6644228   4.436   2.969   2.709  0.3543  0.6683  0.7310
  312MOL    O6744229   4.308   2.991   2.779  0.8909 -0.0849  0.2155
  312MOL    H6844230   4.650   2.990   2.752 -0.0712 -2.0073  1.5261
  312MOL    H6944231   4.551   2.953   2.888 -1.7210 -0.0643 -0.6417
  312MOL    H7044232   4.461   2.866   2.685  1.0781  0.9857  0.1202
  312MOL    H7144233   4.249   2.920   2.760  1.1470 -0.0454 -0.7732
  312MOL    C7244234   4.412   3.045   2.580 -0.4570  0.1175 -0.0797
  312MOL    C7344235   4.520   3.031   2.475 -0.6355 -0.0428  0.4652
  312MOL    O7444236   4.542   2.896   2.430 -0.6402  0.5792  0.3072
  312MOL    H7544237   4.319   3.023   2.528 -1.2502  1.9918  0.5149
  312MOL    H7644238   4.405   3.149   2.612  1.1294 -0.8167  3.6411
  312MOL    H7744239   4.608   3.072   2.524  1.2470 -2.7495 -0.5579
  312MOL    H7844240   4.456   2.871   2.401 -0.7598  0.5824  0.6508
  312MOL    C7944241   4.485   3.117   2.354 -0.8443  0.3982  0.4103
  312MOL    C8044242   4.599   3.122   2.247  0.2350 -0.0407  1.0742
  312MOL    O8144243   4.643   3.004   2.191 -0.7227  0.5012  0.4366
  312MOL    H8244244   4.387   3.091   2.315 -0.3662  0.4993 -0.8964
  312MOL    H8344245   4.465   3.216   2.394 -0.6760  0.5187  0.2026
  312MOL    H8444246   4.679   3.172   2.301  1.1147 -0.5266  0.2437
  312MOL    H8544247   4.649   2.941   2.262 -0.1429  0.3092  0.2215
  312MOL    C8644248   4.544   3.214   2.131 -0.4833  0.2680  0.0984
  312MOL    C8744249   4.646   3.313   2.070  0.5391 -0.2012  0.0830
  312MOL    O8844250   4.599   3.356   1.948 -0.2163 -0.5826  0.3436
  312MOL    H8944251   4.497   3.158   2.050  2.1473 -2.4195  0.3443
  312MOL    H9044252   4.470   3.285   2.166 -0.4605  0.7060 -0.7143
  312MOL    H9144253   4.747   3.273   2.059  0.5456 -0.2250  0.2249
  312MOL    H9244254   4.507   3.370   1.963 -0.4477  0.1968 -1.6962
  312MOL    C9344255   4.671   3.434   2.157 -0.2806  0.0681  0.4398
  312MOL    C9444256   4.780   3.520   2.096 -1.0052  0.5084 -0.2838
  312MOL    O9544257   4.796   3.627   2.186 -0.0791 -0.4238  0.0544
  312MOL    H9644258   4.574   3.483   2.170  0.3462  1.1300  1.0848
  312MOL    H9744259   4.694   3.397   2.257 -3.2944 -1.7452  0.5321
  312MOL    H9844260   4.738   3.562   2.005 -1.4969 -0.1102 -0.3490
  312MOL    H9944261   4.801   3.603   2.277 -0.3887  0.4285  0.3072
  312MOL   C10044262   4.921   3.456   2.070 -0.5627 -0.0414  0.3116
  312MOL   C10144263   4.987   3.367   2.190 -0.2611 -0.2549 -0.8075
  312MOL   O10244264   5.086   3.289   2.124  0.2361  0.3647 -0.5739
  312MOL   H10344265   4.916   3.397   1.978  0.7730  1.1839 -0.5620
  312MOL   H10444266   4.990   3.536   2.043 -2.5894  1.3481 -0.8464
  312MOL   H10544267   4.927   3.286   2.231  1.1920 -0.2155  1.5103
  312MOL   H10644268   5.036   3.229   2.071 -2.9673  2.3468  0.0899
  312MOL   C10744269   5.049   3.458   2.313 -0.6234 -0.3499  0.1975
  312MOL   C10844270   5.105   3.377   2.428  0.1022 -0.3033 -0.1386
  312MOL   O10944271   5.232   3.430   2.454 -0.3904  0.2787  0.2446
  312MOL   H11044272   5.128   3.518   2.267 -1.2235  2.4607  2.6958
  312MOL   H11144273   4.978   3.531   2.352  1.4081  0.5036  2.3990
  312MOL   H11244274   5.122   3.276   2.392 -0.9975  0.2388 -2.2789
  312MOL   H11344275   5.279   3.412   2.374  0.5889  0.3401  0.8050
  312MOL   C11444276   5.021   3.365   2.556 -0.4666 -0.2303 -0.3695
  312MOL   C11544277   4.897   3.272   2.549 -0.3042 -0.3217  0.4524
  312MOL   O11644278   4.784   3.330   2.472 -0.2631 -0.4281 -0.1376
  312MOL   H11744279   5.092   3.318   2.624 -0.5007 -0.6929 -0.6490
  312MOL   H11844280   5.009   3.455   2.616  0.7776  0.7662 -1.5818
  312MOL   H11944281   4.871   3.266   2.655  0.5404  0.0653  0.6790
  312MOL   H12044282   4.765   3.417   2.502  1.1199  0.7536 -2.5592
  312MOL   C12144283   4.920   3.125   2.500  0.0168 -0.2929 -0.1568
  312MOL   C12244284   5.012   3.027   2.577  0.0315 -0.4106  0.1133
  312MOL   O12344285   4.983   3.028   2.717 -0.4427 -0.7807 -0.2293
  312MOL   H12444286   4.824   3.078   2.481 -1.1350  2.2140 -0.6659
  312MOL   H12544287   4.954   3.140   2.398 -1.2330  1.2094 -0.3602
  312MOL   H12644288   5.117   3.051   2.557  0.0094 -0.5339 -0.1505
  312MOL   H12744289   4.893   3.049   2.731 -0.6295 -2.9530  2.3362
  312MOL   C12844290   5.012   2.883   2.522 -1.1203  0.2134  0.0761
  312MOL   C12944291   5.128   2.787   2.568  0.0376 -0.0072  0.4739
  312MOL   O13044292   5.128   2.776   2.709  0.4882 -0.2391  0.7671
  312MOL   H13144293   4.914   2.840   2.542 -1.3197  0.4212 -0.4440
  312MOL   H13244294   5.017   2.888   2.413  1.3508 -1.9707  0.0465
  312MOL   H13344295   5.215   2.850   2.549 -1.6158  2.7721  1.7639
  312MOL   H13444296   5.085   2.854   2.741  1.6368  0.4415  0.6867
  312MOL   C13544297   5.149   2.649   2.498  0.2253 -0.2057  0.3836
  312MOL   C13644298   5.260   2.656   2.390  0.0538 -0.1704 -0.3352
  312MOL   O13744299   5.304   2.522   2.364  0.1757 -0.3877 -0.6427
  312MOL   H13844300   5.161   2.569   2.570 -0.3181 -0.8506 -0.2431
  312MOL   H13944301   5.058   2.621   2.445  1.9132 -0.0423 -2.7625
  312MOL   H14044302   5.344   2.716   2.424 -0.8093  2.0388 -2.0060
  312MOL   H14144303   5.380   2.530   2.310  0.1765  2.3633 -0.2934
  312MOL   H14244304   5.218   2.708   2.303  2.0571 -1.4519 -2.1185
  313MOL     C144305   5.467   6.182   1.364 -0.0755  0.5271  0.3799
  313MOL     C244306   5.544   6.299   1.422  0.5525 -0.2437 -0.9165
  313MOL     O344307   5.498   6.419   1.364  0.3332 -0.1559 -0.1188
  313MOL     H444308   5.358   6.191   1.362 -0.2777 -1.6886  0.4858
  313MOL     H544309   5.488   6.099   1.430  0.1013  0.9662  0.8802
  313MOL     H644310   5.648   6.292   1.391  0.7474 -0.5101 -0.2188
  313MOL     H744311   5.549   6.432   1.286  1.5686 -2.7461  0.1888
  313MOL     H844312   5.486   6.155   1.260 -1.0722  2.8821 -0.4446
  313MOL     C944313   5.548   6.310   1.574 -0.0590  0.6523  0.6850
  313MOL    C1044314   5.637   6.413   1.637 -0.4073  0.0913  0.2078
  313MOL    O1144315   5.593   6.539   1.604 -0.3979 -0.4512 -0.7095
  313MOL    H1244316   5.448   6.337   1.606 -0.7737  0.3856 -1.2386
  313MOL    H1344317   5.576   6.215   1.620 -2.6431  1.2706  3.6517
  313MOL    H1444318   5.733   6.403   1.587 -0.4994 -2.4324  0.4953
  313MOL    H1544319   5.536   6.526   1.530 -2.0769 -0.7605  0.6105
  313MOL    C1644320   5.644   6.401   1.788  0.0652  0.4900  0.1936
  313MOL    C1744321   5.696   6.273   1.855 -0.2347  0.5399  0.9327
  313MOL    O1844322   5.836   6.266   1.810  0.2190 -0.0338 -0.1727
  313MOL    H1944323   5.705   6.489   1.808 -0.5478  0.3160  3.0090
  313MOL    H2044324   5.544   6.406   1.831 -0.0661  0.4327 -0.1048
  313MOL    H2144325   5.643   6.185   1.817 -1.7198  0.8725  2.1602
  313MOL    H2244326   5.828   6.201   1.741 -3.0414 -0.6849  0.7380
  313MOL    C2344327   5.678   6.266   2.009  0.9477 -0.2244 -0.4629
  313MOL    C2444328   5.761   6.361   2.091 -0.2914 -0.2243 -0.5984
  313MOL    O2544329   5.706   6.391   2.215 -0.0658 -0.1553  0.3487
  313MOL    H2644330   5.575   6.295   2.033  0.6363 -2.0337  0.4656
  313MOL    H2744331   5.683   6.161   2.036  0.3117 -0.4858 -1.3323
  313MOL    H2844332   5.756   6.455   2.036 -1.2768 -0.6802 -1.3027
  313MOL    H2944333   5.615   6.409   2.199  0.4018  1.7783 -0.1926
  313MOL    C3044334   5.900   6.299   2.118  0.7868 -0.9855 -0.0325
  313MOL    C3144335   6.020   6.386   2.080  0.0189  0.7843 -0.9365
  313MOL    O3244336   6.022   6.413   1.939 -0.3671  1.2791 -0.2546
  313MOL    H3344337   5.909   6.237   2.207  3.6293 -0.3688  0.1504
  313MOL    H3444338   5.918   6.224   2.041  0.9616  1.5698 -2.5779
  313MOL    H3544339   6.115   6.336   2.103 -0.8447 -1.2508 -1.7094
  313MOL    H3644340   5.954   6.360   1.901 -1.0523  2.2462 -0.3910
  313MOL    C3744341   6.020   6.522   2.151 -0.4926  0.6981  0.1846
  313MOL    C3844342   6.050   6.519   2.300 -0.4587  0.0215  0.2542
  313MOL    O3944343   6.174   6.458   2.325  0.1254  0.4154 -0.2031
  313MOL    H4044344   6.093   6.589   2.105 -0.0270  1.0389  1.3954
  313MOL    H4144345   5.923   6.570   2.139 -0.3555  0.5757 -1.5161
  313MOL    H4244346   5.972   6.452   2.336 -1.6915  1.4111  0.2166
  313MOL    H4344347   6.175   6.451   2.420 -0.3412 -0.3484 -0.2477
  313MOL    C4444348   6.032   6.656   2.363 -0.9480  0.1349  0.3488
  313MOL    C4544349   5.895   6.723   2.339  0.3271 -0.2047  0.2841
  313MOL    O4644350   5.792   6.634   2.384  0.1227  0.2577 -0.1724
  313MOL    H4744351   6.038   6.645   2.471  1.0678  2.6691  0.5535
  313MOL    H4844352   6.109   6.726   2.331  1.4507 -2.9903 -0.9947
  313MOL    H4944353   5.883   6.760   2.237 -0.8238  1.2062  0.9180
  313MOL    H5044354   5.778   6.572   2.314  1.2063 -2.6113  1.9969
  313MOL    C5144355   5.889   6.841   2.438  0.1474  0.7478 -0.4558
  313MOL    C5244356   5.776   6.938   2.424  0.5523 -0.7330 -0.3242
  313MOL    O5344357   5.769   7.040   2.531 -0.2279  0.4462 -0.7044
  313MOL    H5444358   5.902   6.811   2.542 -0.3629  2.5959  0.1755
  313MOL    H5544359   5.983   6.890   2.413  1.3867 -1.7661 -0.7586
  313MOL    H5644360   5.684   6.880   2.432 -0.4425  0.7521 -0.9661
  313MOL    H5744361   5.859   7.054   2.554 -0.0402  0.4137 -1.3939
  313MOL    C5844362   5.776   7.012   2.289  0.2106 -0.1149 -0.0455
  313MOL    C5944363   5.664   7.103   2.254 -0.2189 -0.0507 -0.3661
  313MOL    O6044364   5.688   7.133   2.115 -0.4460  0.0980  0.2015
  313MOL    H6144365   5.871   7.063   2.272  0.8617 -1.3802 -0.2410
  313MOL    H6244366   5.771   6.932   2.214 -1.7589 -0.5052  0.4895
  313MOL    H6344367   5.658   7.194   2.314  2.0616 -0.1426  0.0296
  313MOL    H6444368   5.715   7.058   2.065  1.1590  0.2772  0.7458
  313MOL    C6544369   5.527   7.032   2.262  0.7972 -0.6200  0.4801
  313MOL    C6644370   5.456   7.057   2.396  0.5038  0.0388  0.2149
  313MOL    O6744371   5.362   7.164   2.393  0.1829  0.5792 -0.4836
  313MOL    H6844372   5.454   7.061   2.187  0.0615 -1.1189  0.9921
  313MOL    H6944373   5.537   6.926   2.238 -2.5852 -0.9351  0.1084
  313MOL    H7044374   5.530   7.091   2.469 -0.6367 -1.7085  2.2591
  313MOL    H7144375   5.389   7.241   2.441 -0.0660  0.1354  0.3766
  313MOL    C7244376   5.398   6.926   2.457  0.5880  0.3052 -0.1342
  313MOL    C7344377   5.267   6.880   2.394 -0.3194  0.0564  0.4327
  313MOL    O7444378   5.284   6.822   2.263  0.5661 -0.4027 -0.2136
  313MOL    H7544379   5.473   6.846   2.454  2.6552  2.1285  1.3993
  313MOL    H7644380   5.383   6.939   2.564  0.4963 -1.4600  0.0782
  313MOL    H7744381   5.203   6.967   2.386 -1.6518 -0.9674 -0.3736
  313MOL    H7844382   5.208   6.768   2.245  0.8052 -0.6563 -0.4767
  313MOL    C7944383   5.201   6.769   2.472  0.0922 -0.1692  0.0478
  313MOL    C8044384   5.144   6.807   2.614 -0.1212 -0.3476  0.4572
  313MOL    O8144385   5.051   6.905   2.601  0.2992 -0.0769 -0.0182
  313MOL    H8244386   5.115   6.728   2.419 -1.9760 -0.2730  3.3083
  313MOL    H8344387   5.275   6.691   2.486 -0.0983 -0.9390 -3.0247
  313MOL    H8444388   5.220   6.849   2.680 -2.0137  0.4411  2.1999
  313MOL    H8544389   5.015   6.902   2.514  1.7020 -2.6706 -0.5538
  313MOL    C8644390   5.078   6.690   2.681  0.0621 -0.0592 -0.0114
  313MOL    C8744391   5.146   6.621   2.797  0.2030  0.0468  0.6094
  313MOL    O8844392   5.184   6.720   2.894 -0.0020  0.0167  0.7399
  313MOL    H8944393   4.981   6.723   2.719  0.4723  1.5628 -0.3111
  313MOL    H9044394   5.047   6.614   2.609 -0.7797  1.2829 -1.1068
  313MOL    H9144395   5.242   6.577   2.770 -0.1381  0.9856 -2.2539
  313MOL    H9244396   5.258   6.762   2.853  1.8072 -2.5038  1.3066
  313MOL    C9344397   5.062   6.507   2.861 -0.4584  0.0527 -0.1084
  313MOL    C9444398   5.014   6.387   2.774 -0.2553 -0.3714 -0.0048
  313MOL    O9544399   5.126   6.299   2.756 -0.1889 -0.0484 -0.2249
  313MOL    H9644400   5.107   6.477   2.956 -1.9512  2.0120  1.2532
  313MOL    H9744401   4.971   6.559   2.889  0.6972  2.3920 -0.5880
  313MOL    H9844402   4.995   6.432   2.676  0.4481  1.4113  0.6441
  313MOL    H9944403   5.156   6.313   2.668  0.3359  0.3450  0.0192
  313MOL   C10044404   4.896   6.309   2.816 -0.0405  0.1174  0.3128
  313MOL   C10144405   4.817   6.241   2.700  0.0952 -0.1992 -0.0871
  313MOL   O10244406   4.784   6.112   2.745 -0.0783  0.2862  0.6611
  313MOL   H10344407   4.918   6.234   2.893 -0.3695  1.6044  1.8887
  313MOL   H10444408   4.826   6.381   2.858 -0.7833  0.8179 -2.0681
  313MOL   H10544409   4.877   6.209   2.615  0.7827 -2.7300  1.2989
  313MOL   H10644410   4.724   6.111   2.818 -1.3183 -1.1674 -0.3455
  313MOL   C10744411   4.688   6.308   2.658  0.0275 -0.4565  0.0951
  313MOL   C10844412   4.697   6.436   2.565 -0.1506  0.2102 -0.1573
  313MOL   O10944413   4.768   6.548   2.626  0.2332 -0.0101 -0.3224
  313MOL   H11044414   4.626   6.241   2.598 -2.2231  1.1371  0.6121
  313MOL   H11144415   4.623   6.336   2.740 -0.8117 -3.7293  0.6341
  313MOL   H11244416   4.601   6.481   2.541 -0.2643 -0.2256 -0.5052
  313MOL   H11344417   4.714   6.624   2.614  0.1950 -0.0175 -0.1988
  313MOL   C11444418   4.748   6.403   2.421 -0.0098  0.4992 -0.3920
  313MOL   C11544419   4.715   6.524   2.322 -0.7124  0.4767 -0.0225
  313MOL   O11644420   4.834   6.593   2.319  0.1374 -0.0301 -0.1556
  313MOL   H11744421   4.854   6.381   2.426  0.3213  1.6783 -1.6911
  313MOL   H11844422   4.724   6.303   2.385  3.6839 -1.0634  1.3096
  313MOL   H11944423   4.639   6.586   2.369 -0.1115  0.2670  1.2524
  313MOL   H12044424   4.822   6.656   2.389 -0.3332  1.0164 -1.1611
  313MOL   C12144425   4.675   6.472   2.178 -0.2925  0.0570 -0.4473
  313MOL   C12244426   4.527   6.413   2.161  0.1793 -0.9182 -0.2890
  313MOL   O12344427   4.450   6.528   2.167 -0.2091  0.4501 -0.1159
  313MOL   H12444428   4.702   6.548   2.105 -0.3088  1.2442  0.7495
  313MOL   H12544429   4.748   6.393   2.163 -0.6141 -1.0035  3.0486
  313MOL   H12644430   4.489   6.353   2.243 -0.0860  1.2688  1.2231
  313MOL   H12744431   4.365   6.513   2.129 -0.4544  2.1739 -0.2848
  313MOL   C12844432   4.511   6.328   2.032  0.8477  0.1759 -0.8221
  313MOL   C12944433   4.586   6.198   2.016  0.5692  0.1337 -0.4464
  313MOL   O13044434   4.540   6.110   2.118 -0.1149  0.3084 -0.2584
  313MOL   H13144435   4.404   6.308   2.033  0.4949  1.9853  1.8193
  313MOL   H13244436   4.527   6.400   1.952  0.3006 -0.9088 -1.9206
  313MOL   H13344437   4.694   6.209   2.019  1.0477 -3.9488  1.9256
  313MOL   H13444438   4.614   6.105   2.176  1.8270  0.0444 -2.6589
  313MOL   C13544439   4.544   6.135   1.877  0.2374  0.1317 -0.1069
  313MOL   C13644440   4.627   6.192   1.766 -0.4529  0.2374 -0.8409
  313MOL   O13744441   4.560   6.174   1.639  0.1151 -0.1686  0.0196
  313MOL   H13844442   4.538   6.027   1.866 -1.2205  0.4193 -2.3080
  313MOL   H13944443   4.440   6.148   1.848  0.2187 -0.8865 -0.5155
  313MOL   H14044444   4.717   6.134   1.745 -1.7635 -2.2371  0.2027
  313MOL   H14144445   4.603   6.226   1.573 -0.0515 -1.7891 -1.3998
  313MOL   H14244446   4.645   6.299   1.780  1.1568 -0.3683  1.9908
  314MOL     C144447   7.315   5.537   0.945 -0.2082 -0.2612  0.3727
  314MOL     C244448   7.417   5.539   1.060  0.2502 -0.0385 -0.5706
  314MOL     O344449   7.424   5.409   1.113  0.1051  0.3957 -0.6196
  314MOL     H444450   7.221   5.487   0.965  1.9477 -3.2936  3.6680
  314MOL     H544451   7.354   5.505   0.848 -2.4047 -1.2991 -0.2014
  314MOL     H644452   7.383   5.609   1.137 -1.2716 -1.5466  0.1837
  314MOL     H744453   7.345   5.401   1.165 -0.1656 -0.3378 -1.1284
  314MOL     H844454   7.274   5.637   0.933  0.6868 -0.0551 -1.1417
  314MOL     C944455   0.029   5.582   0.997 -0.2249  1.1755 -0.9640
  314MOL    C1044456   0.040   5.736   0.966  0.1806 -0.1958 -0.2206
  314MOL    O1144457   0.014   5.808   1.090 -0.3075 -0.0924  0.1556
  314MOL    H1244458   0.112   5.549   1.061 -1.4948 -0.0446  0.1076
  314MOL    H1344459   0.060   5.534   0.904 -0.7934  0.9725 -1.0494
  314MOL    H1444460   7.483   5.757   0.891  0.4160  1.4596 -0.0155
  314MOL    H1544461   0.085   5.795   1.150  0.1153 -1.4464 -0.6163
  314MOL    C1644462   0.166   5.777   0.896 -0.5540 -0.0767 -0.3894
  314MOL    C1744463   0.198   5.934   0.885 -0.2526 -0.0681 -0.0295
  314MOL    O1844464   0.327   5.936   0.823 -0.8767 -0.6262 -0.2937
  314MOL    H1944465   0.249   5.714   0.929 -1.7100 -1.0758  0.6440
  314MOL    H2044466   0.154   5.732   0.797  1.5929 -1.5602 -0.0408
  314MOL    H2144467   0.208   5.970   0.987  3.4018  3.0184 -1.3631
  314MOL    H2244468   0.400   5.915   0.880  1.1684  3.2026 -1.2921
  314MOL    C2344469   0.094   6.020   0.804 -0.1292 -0.3007 -0.8610
  314MOL    C2444470   0.105   6.174   0.825 -0.1561 -0.1087 -0.6377
  314MOL    O2544471   0.059   6.245   0.706  0.3911  0.1464 -0.3620
  314MOL    H2644472   0.090   5.991   0.699  3.4600 -1.4122 -0.7337
  314MOL    H2744473   7.515   5.987   0.838  0.6952 -1.3372  0.5838
  314MOL    H2844474   0.212   6.189   0.835  0.0469 -1.4756 -0.6812
  314MOL    H2944475   7.492   6.212   0.686  0.2095  0.3461  0.0986
  314MOL    C3044476   0.022   6.231   0.950  0.6971  0.0259 -0.0109
  314MOL    C3144477   0.052   6.176   1.089 -0.5637  0.1667  0.1033
  314MOL    O3244478   0.182   6.205   1.133 -0.2797  0.3560  0.1141
  314MOL    H3344479   0.033   6.340   0.952  1.3883 -0.0626  1.9378
  314MOL    H3444480   7.437   6.208   0.930  1.1747 -2.4676  0.2712
  314MOL    H3544481   0.055   6.067   1.090 -1.1758  0.1172 -1.1725
  314MOL    H3644482   0.178   6.188   1.226 -0.4748 -0.6799 -0.0749
  314MOL    C3744483   7.463   6.226   1.193 -0.4739 -0.8695 -0.2608
  314MOL    C3844484   7.311   6.196   1.176  0.4635 -0.5023 -0.3275
  314MOL    O3944485   7.295   6.056   1.195  0.3637 -0.0666  0.0195
  314MOL    H4044486   7.486   6.183   1.291  0.2216  0.6097  0.2542
  314MOL    H4144487   7.479   6.334   1.196 -1.5974 -0.6593 -1.6044
  314MOL    H4244488   7.281   6.226   1.076 -0.2958 -0.7682 -0.1873
  314MOL    H4344489   7.341   6.014   1.124 -0.9270 -0.1760 -0.7764
  314MOL    C4444490   7.214   6.275   1.271  0.0017 -0.5529 -0.6629
  314MOL    C4544491   7.241   6.424   1.313  1.1085 -0.3301 -0.4641
  314MOL    O4644492   7.241   6.498   1.192 -0.1001 -0.0186  0.2066
  314MOL    H4744493   7.110   6.274   1.241 -0.9313  1.9677  2.3396
  314MOL    H4844494   7.208   6.220   1.365  0.4828 -2.1622 -1.5538
  314MOL    H4944495   7.339   6.426   1.362  1.0938  1.7130 -0.4840
  314MOL    H5044496   7.154   6.492   1.156 -0.9006  0.2413  2.0074
  314MOL    C5144497   7.131   6.481   1.408 -0.3250 -0.1913  0.2365
  314MOL    C5244498   7.145   6.621   1.462  0.8133 -0.9228 -0.4115
  314MOL    O5344499   7.013   6.651   1.514  0.4282  0.5372  0.3484
  314MOL    H5444500   7.032   6.465   1.365 -0.3709 -0.0671  0.2955
  314MOL    H5544501   7.133   6.414   1.494  1.6047 -0.5674 -0.0896
  314MOL    H5644502   7.161   6.695   1.384  0.0459 -0.8082 -0.4584
  314MOL    H5744503   6.964   6.579   1.478 -0.8178  1.3503  0.3695
  314MOL    C5844504   7.259   6.634   1.562 -0.2767 -0.2998 -0.0708
  314MOL    C5944505   7.389   6.694   1.502  0.1024 -0.1735 -0.1148
  314MOL    O6044506   7.362   6.839   1.501 -0.4654  0.2405  0.1220
  314MOL    H6144507   7.228   6.699   1.643 -0.1635 -1.2647  0.7677
  314MOL    H6244508   7.275   6.536   1.607  0.0170 -0.8378 -1.3020
  314MOL    H6344509   7.404   6.668   1.397 -0.4357 -1.4134  0.1147
  314MOL    H6444510   7.371   6.883   1.584  1.6821 -0.0100  0.0407
  314MOL    C6544511   7.510   6.672   1.592  0.4177 -0.4008 -0.3869
  314MOL    C6644512   0.023   6.521   1.617 -0.3806 -0.6377  0.2120
  314MOL    O6744513   0.029   6.458   1.491 -0.5327  0.5164  0.5050
  314MOL    H6844514   0.081   6.715   1.548  1.0998 -1.4158 -0.0046
  314MOL    H6944515   7.487   6.727   1.684 -0.1560 -0.7021 -0.3486
  314MOL    H7044516   7.468   6.484   1.687  1.6556 -1.7182  1.8855
  314MOL    H7144517   0.105   6.479   1.439 -1.2429 -1.8253 -1.5559
  314MOL    C7244518   0.157   6.497   1.685 -0.4331  0.1520  0.4749
  314MOL    C7344519   0.172   6.558   1.829  0.1238 -0.2429  0.1662
  314MOL    O7444520   0.087   6.498   1.925  0.3625  0.3175 -0.7880
  314MOL    H7544521   0.171   6.389   1.685 -0.5617  0.1114  2.3680
  314MOL    H7644522   0.236   6.538   1.622 -1.3035  0.8180 -0.1859
  314MOL    H7744523   0.142   6.662   1.820  1.8309  0.3472  1.0610
  314MOL    H7844524   0.122   6.522   2.009  0.7060 -2.3188 -0.1223
  314MOL    C7944525   0.314   6.533   1.885 -0.2955 -0.6146  0.0489
  314MOL    C8044526   0.439   6.604   1.821  0.2559 -0.2644 -0.0552
  314MOL    O8144527   0.505   6.670   1.925  0.0228  0.0947 -0.1976
  314MOL    H8244528   0.304   6.561   1.990 -0.6447 -1.2626  0.1941
  314MOL    H8344529   0.319   6.424   1.882 -2.2263 -0.7650  1.0346
  314MOL    H8444530   0.393   6.673   1.750 -4.1977 -1.4099  1.5210
  314MOL    H8544531   0.581   6.719   1.899 -2.5081  3.1567 -2.2280
  314MOL    C8644532   0.536   6.513   1.738  0.3915  0.0663 -0.5139
  314MOL    C8744533   0.630   6.583   1.649  0.0155  0.3881 -0.0127
  314MOL    O8844534   0.761   6.526   1.678  0.2894 -0.5537 -0.0072
  314MOL    H8944535   0.591   6.448   1.805 -2.4721 -0.4071  1.5048
  314MOL    H9044536   0.473   6.438   1.690 -3.3809  1.5453  1.8813
  314MOL    H9144537   0.620   6.689   1.672 -0.5200  0.4110 -0.3420
  314MOL    H9244538   0.813   6.596   1.714  0.9203 -0.5350 -0.9264
  314MOL    C9344539   0.597   6.570   1.500 -0.7020 -0.2912  0.5967
  314MOL    C9444540   0.508   6.673   1.431  0.3407 -0.2644 -0.0002
  314MOL    O9544541   0.571   6.799   1.408 -0.6469  0.3712 -0.2604
  314MOL    H9644542   0.690   6.572   1.444 -2.6306  0.9203 -2.7199
  314MOL    H9744543   0.549   6.474   1.484  0.5514 -0.5437 -1.6801
  314MOL    H9844544   0.429   6.695   1.504  1.4992 -2.1700  1.8874
  314MOL    H9944545   0.508   6.861   1.374 -0.5097  0.3895 -0.4832
  314MOL   C10044546   0.466   6.636   1.287 -0.2123  0.3297 -0.6436
  314MOL   C10144547   0.351   6.533   1.274 -0.7731 -0.0167  0.0954
  314MOL   O10244548   0.238   6.591   1.335 -0.1541 -0.5042  0.0576
  314MOL   H10344549   0.415   6.723   1.246 -0.6535  1.0439  1.3657
  314MOL   H10444550   0.543   6.631   1.211  0.6340  3.6939 -0.0695
  314MOL   H10544551   0.379   6.439   1.322  1.6214 -0.6328 -2.3665
  314MOL   H10644552   0.180   6.622   1.266 -0.2457 -0.2521  0.2474
  314MOL   C10744553   0.324   6.514   1.122  0.0554 -0.0927  0.1059
  314MOL   C10844554   0.422   6.429   1.036  0.6609 -0.4186  0.4499
  314MOL   O10944555   0.416   6.293   1.082 -0.6006  0.4707  0.3936
  314MOL   H11044556   0.227   6.465   1.117  1.1636 -2.4678  0.6269
  314MOL   H11144557   0.314   6.612   1.078  0.4870  0.1022  0.4327
  314MOL   H11244558   0.524   6.465   1.038  0.2657  0.8101 -0.7452
  314MOL   H11344559   0.328   6.258   1.085 -0.5410  0.4161  2.1147
  314MOL   C11444560   0.381   6.404   0.889  0.3242 -0.3451  0.7540
  314MOL   C11544561   0.445   6.515   0.794  0.7036  0.1524  0.0922
  314MOL   O11644562   0.576   6.482   0.762  0.4631  0.0440 -0.0532
  314MOL   H11744563   0.421   6.311   0.850  1.5345  1.7179 -3.2301
  314MOL   H11844564   0.272   6.404   0.878  0.4428  1.6922 -0.7000
  314MOL   H11944565   0.441   6.608   0.851  1.6510 -0.4230  1.1010
  314MOL   H12044566   0.610   6.569   0.746  1.4170 -0.5992 -1.5322
  314MOL   C12144567   0.372   6.544   0.657 -0.0703  0.9955  0.5682
  314MOL   C12244568   0.223   6.594   0.660 -0.3353  0.2445 -0.0881
  314MOL   O12344569   0.223   6.718   0.724  0.0493 -0.3597  0.3566
  314MOL   H12444570   0.423   6.623   0.603 -0.3627 -0.1765 -1.4999
  314MOL   H12544571   0.378   6.455   0.593  1.1379 -0.0695  2.1458
  314MOL   H12644572   0.161   6.531   0.723 -1.4227  0.5267 -0.8616
  314MOL   H12744573   0.147   6.768   0.696  0.2433 -0.4055 -0.2611
  314MOL   C12844574   0.158   6.602   0.513  0.8696 -0.1698 -0.4319
  314MOL   C12944575   0.126   6.472   0.435 -0.3067 -0.3237 -0.2481
  314MOL   O13044576   0.017   6.413   0.504 -0.1611  0.3962 -0.0769
  314MOL   H13144577   0.069   6.665   0.513  1.1539  0.2332  0.2817
  314MOL   H13244578   0.232   6.658   0.455  1.0878 -0.7858 -0.7473
  314MOL   H13344579   0.211   6.405   0.429 -0.8384 -0.9547 -0.8665
  314MOL   H13444580   0.051   6.373   0.583  2.3892 -2.2888 -2.4225
  314MOL   C13544581   0.080   6.508   0.288 -0.3915 -0.5706 -0.6751
  314MOL   C13644582   0.015   6.392   0.210 -0.3176  0.3297 -0.4718
  314MOL   O13744583   7.401   6.375   0.262 -0.2705  0.1332  0.3742
  314MOL   H13844584   0.022   6.601   0.292 -0.6818 -0.8315  1.8765
  314MOL   H13944585   0.165   6.536   0.226  0.6570  1.7364  1.6688
  314MOL   H14044586   0.065   6.298   0.233  3.8051  2.4890 -0.1721
  314MOL   H14144587   7.408   6.366   0.355 -0.7067  1.1109  0.5082
  314MOL   H14244588   0.015   6.408   0.102  1.0713  3.1547 -0.1149
  315MOL     C144589   6.071   0.184   3.112  0.8779 -0.2099  0.4326
  315MOL     C244590   6.003   0.303   3.044  0.4532 -0.7158  0.1119
  315MOL     O344591   6.099   0.367   2.967  0.2261  0.0919  0.4268
  315MOL     H444592   6.126   0.235   3.190 -0.6948  1.5937  0.4072
  315MOL     H544593   6.141   0.123   3.056 -0.3837 -0.0719 -1.3439
  315MOL     H644594   5.978   0.381   3.116 -2.7036 -1.4463 -0.1284
  315MOL     H744595   6.126   0.308   2.898  1.7447 -0.3847  1.3976
  315MOL     H844596   6.000   0.114   3.157 -0.6287 -0.3705 -2.0701
  315MOL     C944597   5.877   0.279   2.956  0.2120 -0.4262  0.2055
  315MOL    C1044598   5.742   0.277   3.026  0.9812 -0.1237  0.2344
  315MOL    O1144599   5.646   0.250   2.921  0.3084 -0.5593  0.5074
  315MOL    H1244600   5.866   0.350   2.874  0.4471 -1.8282 -1.0842
  315MOL    H1344601   5.888   0.181   2.909  2.9038 -0.8744  1.7142
  315MOL    H1444602   5.726   0.373   3.075 -1.8072 -1.0776  1.2853
  315MOL    H1544603   5.649   0.319   2.858 -1.0925  0.0902  1.1354
  315MOL    C1644604   5.732   0.165   3.134 -0.0283 -0.6876  0.6845
  315MOL    C1744605   5.597   0.136   3.199  0.3396  0.0008 -0.3821
  315MOL    O1844606   5.628   0.039   3.302  0.0505 -0.1239  0.4017
  315MOL    H1944607   5.766   0.072   3.088  1.2493  0.0339  0.1564
  315MOL    H2044608   5.797   0.190   3.217  1.0203 -0.3530 -0.2219
  315MOL    H2144609   5.522   0.090   3.134  0.3036  2.6320 -2.2540
  315MOL    H2244610   5.547   7.513   3.321  0.0480  0.5025  1.9791
  315MOL    C2344611   5.531   0.248   3.271  0.3788 -0.4552 -0.4907
  315MOL    C2444612   5.456   0.359   3.192  0.2651  0.0762 -0.0550
  315MOL    O2544613   5.327   0.305   3.152  0.2640  0.2220  0.4883
  315MOL    H2644614   5.456   0.204   3.337 -2.5996 -0.3856 -3.7490
  315MOL    H2744615   5.613   0.293   3.328 -0.3979  0.7183 -0.2716
  315MOL    H2844616   5.515   0.383   3.104  3.1896 -1.3813  1.4266
  315MOL    H2944617   5.340   0.235   3.090  0.2225  0.6738 -0.0482
  315MOL    C3044618   5.430   0.482   3.273  0.2655 -0.3201 -0.2514
  315MOL    C3144619   5.554   0.563   3.324 -0.3556  0.1219  0.6839
  315MOL    O3244620   5.645   0.583   3.220  0.8339 -0.1728 -0.1126
  315MOL    H3344621   5.370   0.550   3.213  0.8012 -0.4800 -0.9884
  315MOL    H3444622   5.370   0.451   3.358 -0.2120  1.9716  0.2881
  315MOL    H3544623   5.604   0.520   3.410 -1.7264  0.4279  1.6476
  315MOL    H3644624   5.729   0.577   3.263  1.0194  2.0867 -0.1032
  315MOL    C3744625   5.507   0.701   3.375 -0.9745 -0.9227 -0.4178
  315MOL    C3844626   5.423   0.712   3.512 -0.0300  0.0862  0.1732
  315MOL    O3944627   5.492   0.683   3.629  0.2873 -0.3364  0.5869
  315MOL    H4044628   5.596   0.760   3.395 -1.5582  0.4713 -1.8184
  315MOL    H4144629   5.458   0.754   3.294  0.0426  1.4082  0.4645
  315MOL    H4244630   5.339   0.643   3.512  0.6189 -0.7187 -0.8768
  315MOL    H4344631   5.431   0.667   3.700 -0.1476 -5.2117 -0.7121
  315MOL    C4444632   5.364   0.857   3.522  0.2007  1.0146 -0.3278
  315MOL    C4544633   5.469   0.974   3.531  0.0732 -0.0798 -0.6659
  315MOL    O4644634   5.417   1.082   3.456  0.2265 -0.1397 -0.2753
  315MOL    H4744635   5.297   0.873   3.438  1.3709  0.8673 -1.3105
  315MOL    H4844636   5.295   0.861   3.606  0.4453 -0.3322 -0.0404
  315MOL    H4944637   5.562   0.953   3.479  0.3174 -0.2990 -0.1434
  315MOL    H5044638   5.400   1.040   3.372 -1.2706 -0.3070  0.0948
  315MOL    C5144639   5.491   1.023   3.677 -0.3284 -0.3450  0.6049
  315MOL    C5244640   5.521   0.932   3.793 -0.1557  0.3063  0.6443
  315MOL    O5344641   5.638   0.860   3.776 -0.4397 -0.4109  0.3853
  315MOL    H5444642   5.563   1.105   3.683  1.0557 -1.2289 -3.1459
  315MOL    H5544643   5.398   1.075   3.700 -1.6589 -2.5715  0.4045
  315MOL    H5644644   5.439   0.860   3.790  0.6511 -0.5733 -2.5131
  315MOL    H5744645   5.616   0.813   3.697  0.3132 -1.6368  0.8928
  315MOL    C5844646   5.529   1.002   3.926 -0.0110 -0.0010  0.0762
  315MOL    C5944647   5.518   0.907   4.047  0.3121 -0.5542 -0.1447
  315MOL    O6044648   5.568   0.980   4.161 -0.1815  0.0212  0.1576
  315MOL    H6144649   5.618   1.062   3.946 -0.7847  0.9717  0.6658
  315MOL    H6244650   5.443   1.068   3.934  1.0475  1.5640 -1.1704
  315MOL    H6344651   5.586   0.823   4.039 -0.7305 -1.4811  0.4841
  315MOL    H6444652   5.660   0.958   4.170 -0.1148 -0.4560 -1.5509
  315MOL    C6544653   5.372   0.848   4.075 -0.7233  0.2560 -0.3189
  315MOL    C6644654   5.280   0.929   4.167  0.4091  0.0857 -0.1414
  315MOL    O6744655   5.274   1.059   4.115 -0.3933 -0.2860  0.6540
  315MOL    H6844656   5.322   0.819   3.983 -3.8670  1.5891  0.9142
  315MOL    H6944657   5.387   0.755   4.130  0.9508  1.2845  1.0186
  315MOL    H7044658   5.334   0.925   4.261  1.4468 -0.5008 -0.7538
  315MOL    H7144659   5.361   1.095   4.104 -1.2095  1.6665  0.2976
  315MOL    C7244660   5.139   0.864   4.165  0.3476  0.3481  0.6936
  315MOL    C7344661   5.044   0.901   4.284  0.8331  0.6348  0.1568
  315MOL    O7444662   5.101   0.869   4.411 -0.1758 -0.1030  0.2431
  315MOL    H7544663   5.096   0.875   4.065 -1.7110 -1.7130  1.3006
  315MOL    H7644664   5.157   0.756   4.158 -2.4529 -0.0186 -1.8866
  315MOL    H7744665   4.944   0.856   4.284  1.1108  0.0102 -0.9377
  315MOL    H7844666   5.040   0.885   4.481  0.3193  0.7459  0.4799
  315MOL    C7944667   5.018   1.054   4.287  0.0804 -0.8787  0.4765
  315MOL    C8044668   4.935   1.101   4.164  0.2445 -0.5462  0.3817
  315MOL    O8144669   4.802   1.048   4.171  0.2799  0.0586  0.1415
  315MOL    H8244670   4.960   1.096   4.369 -1.8308 -0.6063 -0.9741
  315MOL    H8344671   5.110   1.111   4.290 -1.1311  1.0574  2.3089
  315MOL    H8444672   4.983   1.079   4.069 -1.2510 -3.8775  0.3609
  315MOL    H8544673   4.764   1.054   4.084 -0.6698  1.5243  0.6471
  315MOL    C8644674   4.930   1.261   4.158  0.2921 -0.3486  0.9950
  315MOL    C8744675   5.056   1.323   4.107 -0.1602  0.0980 -0.1468
  315MOL    O8844676   5.063   1.295   3.969  0.4147 -0.1110  0.3858
  315MOL    H8944677   4.852   1.291   4.088  0.0428 -1.2373  0.8792
  315MOL    H9044678   4.901   1.302   4.255  0.7719 -0.9146  1.3755
  315MOL    H9144679   5.143   1.274   4.150  0.4812  1.2924 -0.0544
  315MOL    H9244680   5.155   1.303   3.948  0.4742  1.9223  1.3378
  315MOL    C9344681   5.065   1.476   4.136  0.1917  0.1937  0.3900
  315MOL    C9444682   5.091   1.513   4.291  0.4475  0.2714 -0.2980
  315MOL    O9544683   5.232   1.512   4.324 -0.9493 -0.0646 -0.0467
  315MOL    H9644684   5.146   1.519   4.076 -0.1247 -1.5345 -1.3159
  315MOL    H9744685   4.976   1.518   4.089  0.2857  0.8220  0.7611
  315MOL    H9844686   5.040   1.444   4.358 -0.8199  1.0727 -0.4306
  315MOL    H9944687   5.257   1.422   4.335 -2.3175 -0.6247 -1.3527
  315MOL   C10044688   5.026   1.649   4.335  0.3578 -0.1370 -0.5871
  315MOL   C10144689   4.872   1.645   4.320 -0.5242  0.3942  0.4845
  315MOL   O10244690   4.802   1.644   4.447 -0.6962  0.6369 -0.1312
  315MOL   H10344691   5.058   1.677   4.435 -0.3557  0.3997 -0.5040
  315MOL   H10444692   5.085   1.719   4.277  0.3447 -1.2761 -2.0119
  315MOL   H10544693   4.845   1.556   4.263 -0.7971 -1.0361  2.7558
  315MOL   H10644694   4.843   1.582   4.506  0.1450  0.1829 -1.1919
  315MOL   C10744695   4.830   1.772   4.242 -0.5903  0.4169  0.2518
  315MOL   C10844696   4.685   1.802   4.226  0.2824  0.1825  0.0612
  315MOL   O10944697   4.678   1.927   4.167  0.0352 -0.3436  0.2957
  315MOL   H11044698   4.882   1.854   4.292  0.6312 -0.0802 -0.1811
  315MOL   H11144699   4.885   1.774   4.148 -2.3807  0.8917 -0.8132
  315MOL   H11244700   4.641   1.808   4.325 -2.8213 -2.7156 -1.0025
  315MOL   H11344701   4.685   1.994   4.234 -0.9619 -0.1320  0.1935
  315MOL   C11444702   4.605   1.701   4.141  0.1892  0.3753 -0.1478
  315MOL   C11544703   4.547   1.575   4.214 -0.1923 -0.5831 -0.3671
  315MOL   O11644704   4.459   1.617   4.315 -0.2749 -0.7508 -0.0240
  315MOL   H11744705   4.518   1.755   4.103 -0.7077 -2.0062 -1.5755
  315MOL   H11844706   4.658   1.660   4.056  1.1194  1.2845 -0.0109
  315MOL   H11944707   4.624   1.516   4.262  0.7391  0.0045 -1.1235
  315MOL   H12044708   4.514   1.646   4.386 -0.4019  0.9623 -0.6022
  315MOL   C12144709   4.468   1.493   4.108  0.4062  0.4094  0.2719
  315MOL   C12244710   4.386   1.381   4.171  0.1219  0.2978  0.0127
  315MOL   O12344711   4.269   1.440   4.225 -0.5491  0.1215 -0.2695
  315MOL   H12444712   4.403   1.560   4.051  0.7913  0.3548 -0.2346
  315MOL   H12544713   4.527   1.455   4.025  0.8601 -0.2017  0.8632
  315MOL   H12644714   4.443   1.344   4.257 -1.6349  1.0329  1.5342
  315MOL   H12744715   4.300   1.517   4.270 -2.1021  0.6452 -0.0889
  315MOL   C12844716   4.346   1.263   4.080 -0.4130 -0.2254  0.9367
  315MOL   C12944717   4.462   1.170   4.041 -0.6350 -0.1019 -0.4872
  315MOL   O13044718   4.466   1.059   4.127  0.1374 -0.1933  0.0950
  315MOL   H13144719   4.259   1.208   4.116 -1.6502  1.9185  1.2796
  315MOL   H13244720   4.317   1.299   3.981  0.4307 -2.2876 -0.1135
  315MOL   H13344721   4.550   1.232   4.058 -1.3441  0.5676  0.8238
  315MOL   H13444722   4.549   1.016   4.111  0.6738  0.1992  1.7151
  315MOL   C13544723   4.456   1.113   3.901 -0.2942  0.2202 -0.1106
  315MOL   C13644724   4.593   1.091   3.835 -0.1456  1.2454  0.1523
  315MOL   O13744725   4.665   1.014   3.928  0.4114 -0.0642 -0.1841
  315MOL   H13844726   4.411   1.014   3.911  0.8742 -0.3441 -0.3561
  315MOL   H13944727   4.399   1.179   3.835  1.9882  3.2051  0.7899
  315MOL   H14044728   4.632   1.189   3.809 -1.6116  2.7190  3.1584
  315MOL   H14144729   4.674   0.928   3.891  0.5936  0.4907 -1.4522
  315MOL   H14244730   4.582   1.039   3.740  0.0388  0.0295  0.7926
  316MOL     C144731   0.203   7.394   0.022 -0.7789 -0.0297 -0.1937
  316MOL     C244732   0.287   7.360   7.415 -0.6624  0.1630 -0.0370
  316MOL     O344733   0.401   7.449   7.414  0.2214  0.1525  0.2060
  316MOL     H444734   0.268   7.378   0.108 -0.3636  1.2913 -0.2517
  316MOL     H544735   0.117   7.327   0.027 -1.2111  0.4443 -1.1800
  316MOL     H644736   0.228   7.380   7.325  1.1354 -1.7704 -1.6865
  316MOL     H744737   0.443   7.461   7.330  0.0513  2.2969  0.4170
  316MOL     H844738   0.167   7.496   0.024 -0.1613  0.2085 -0.8093
  316MOL     C944739   0.344   7.215   7.407 -0.0878 -0.4183  0.1526
  316MOL    C1044740   0.242   7.096   7.418  0.5434  0.2361 -0.4782
  316MOL    O1144741   0.288   6.987   7.338 -0.5513 -0.3465  0.1515
  316MOL    H1244742   0.399   7.202   7.313  0.3084  2.8766 -0.1634
  316MOL    H1344743   0.416   7.195   7.486  0.6272 -0.1211 -0.4150
  316MOL    H1444744   0.147   7.127   7.374  0.9345 -1.5357 -2.6814
  316MOL    H1544745   0.234   6.991   7.261  1.8964  1.7067 -1.5205
  316MOL    C1644746   0.231   7.041   0.047  0.1356 -1.2966  0.0507
  316MOL    C1744747   0.119   6.941   0.080 -0.2739 -0.5707  0.4193
  316MOL    O1844748   0.156   6.891   0.213  0.4451 -0.5591 -0.1017
  316MOL    H1944749   0.328   6.997   0.071 -0.2220 -1.9980  0.2426
  316MOL    H2044750   0.220   7.128   0.112  0.8350 -1.9931  1.1215
  316MOL    H2144751   0.118   6.860   0.007 -0.6490  0.7522 -1.0588
  316MOL    H2244752   0.073   6.868   0.251  0.9732 -0.1390  1.3227
  316MOL    C2344753   7.503   7.015   0.072 -0.0783  0.8246  1.1612
  316MOL    C2444754   7.383   6.919   0.101  0.1723 -0.0312  0.1732
  316MOL    O2544755   7.401   6.886   0.242 -0.4980 -0.3035  0.1365
  316MOL    H2644756   7.499   7.106   0.132  1.3003  1.0315  0.9469
  316MOL    H2744757   7.485   7.061   7.494  1.6859  1.0802  0.9428
  316MOL    H2844758   7.392   6.819   0.059  0.0694 -0.4402  1.1155
  316MOL    H2944759   7.381   6.962   0.294 -0.1254  0.3403 -0.6394
  316MOL    C3044760   7.243   6.981   0.075  0.2587 -0.1633  0.0925
  316MOL    C3144761   7.196   6.977   7.452 -0.0063 -0.3149 -0.2928
  316MOL    O3244762   7.184   6.847   7.401 -0.1182  0.3779  0.6482
  316MOL    H3344763   7.171   6.921   0.130 -0.7179  1.3212  0.4766
  316MOL    H3444764   7.247   7.077   0.126  0.0200 -0.8575  1.4247
  316MOL    H3544765   7.266   7.037   7.394 -1.1599 -0.0515 -1.4211
  316MOL    H3644766   7.144   6.794   7.468  1.3933 -0.2822  1.0396
  316MOL    C3744767   7.049   7.048   7.444  0.2021  0.7028 -0.1549
  316MOL    C3844768   6.998   7.103   7.314  0.5746 -0.0199  0.2269
  316MOL    O3944769   7.067   7.223   7.290  0.2115  0.2594 -0.2788
  316MOL    H4044770   6.976   6.979   7.486 -0.7691  2.3776  0.9294
  316MOL    H4144771   7.053   7.136   7.508  2.7683  0.5746 -0.0811
  316MOL    H4244772   6.898   7.139   7.338  0.7623  0.4320  0.3276
  316MOL    H4344773   7.015   7.263   7.222 -0.1831  0.2365  0.0080
  316MOL    C4444774   6.992   7.002   7.200 -0.1381 -0.1373 -0.1121
  316MOL    C4544775   6.894   6.891   7.221  0.2992  0.1081  0.0395
  316MOL    O4644776   6.759   6.939   7.228  0.2749  0.2580  0.0116
  316MOL    H4744777   6.974   7.043   7.100 -1.7579  1.1881  0.7030
  316MOL    H4844778   7.089   6.952   7.203  0.7970  1.6315 -0.1323
  316MOL    H4944779   6.914   6.831   7.310  0.1584 -0.6027 -0.3982
  316MOL    H5044780   6.728   6.951   7.139 -0.9711 -2.6287  0.0293
  316MOL    C5144781   6.894   6.776   7.110  0.1995  0.5355 -0.1973
  316MOL    C5244782   7.034   6.700   7.086  0.4642  0.1919 -0.0429
  316MOL    O5344783   7.082   6.640   7.199  0.1945  0.3585 -0.5842
  316MOL    H5444784   6.818   6.705   7.141 -0.1493  0.7677 -0.5290
  316MOL    H5544785   6.872   6.821   7.013  3.4390 -2.1537 -2.3417
  316MOL    H5644786   7.106   6.781   7.072 -0.8583  1.5686  0.8564
  316MOL    H5744787   7.117   6.699   7.263  1.7169 -0.3485 -0.7408
  316MOL    C5844788   7.010   6.583   6.986 -0.2629  0.0592 -0.1125
  316MOL    C5944789   7.022   6.632   6.843 -0.0284 -0.3123 -0.3266
  316MOL    O6044790   7.149   6.687   6.836  0.6444  0.0791 -0.0392
  316MOL    H6144791   7.091   6.510   6.991  2.2770  2.8854  1.7242
  316MOL    H6244792   6.917   6.531   7.010 -0.7079  0.6155 -0.5972
  316MOL    H6344793   6.953   6.712   6.815 -1.8767 -2.1152 -1.0299
  316MOL    H6444794   7.207   6.628   6.791  0.6251 -0.0074  0.0509
  316MOL    C6544795   6.997   6.509   6.746  0.2899  0.1472 -0.1880
  316MOL    C6644796   6.855   6.511   6.684 -0.4362 -0.1990 -0.6416
  316MOL    O6744797   6.845   6.416   6.585 -0.1570 -0.7460 -0.4047
  316MOL    H6844798   7.069   6.519   6.665  1.1015  0.9314  0.6115
  316MOL    H6944799   7.021   6.412   6.790 -2.7439 -1.5892 -2.1977
  316MOL    H7044800   6.836   6.608   6.636 -1.8984 -0.9371 -1.6051
  316MOL    H7144801   6.856   6.336   6.634  1.0995  0.4659  1.3828
  316MOL    C7244802   6.737   6.485   6.781 -0.7776 -0.1442  0.6519
  316MOL    C7344803   6.598   6.523   6.732 -0.2111  0.2731 -0.5068
  316MOL    O7444804   6.505   6.465   6.829 -0.4090 -0.2912  0.7736
  316MOL    H7544805   6.740   6.380   6.809 -0.3833 -0.0039  1.1585
  316MOL    H7644806   6.749   6.539   6.875  1.2975 -0.2787  0.4850
  316MOL    H7744807   6.570   6.485   6.634  0.7985  0.4268 -0.8672
  316MOL    H7844808   6.498   6.375   6.803 -0.2729  0.4359 -2.0125
  316MOL    C7944809   6.570   6.675   6.735 -0.6989  0.3650 -0.6466
  316MOL    C8044810   6.464   6.722   6.636  0.1062  0.5540  0.0451
  316MOL    O8144811   6.416   6.851   6.661 -0.4870  0.6589  0.1954
  316MOL    H8244812   6.533   6.699   6.835 -0.4433 -2.7626  0.2475
  316MOL    H8344813   6.666   6.725   6.727  0.7974 -2.0857  1.3899
  316MOL    H8444814   6.378   6.655   6.635  0.1802  0.4609 -1.8474
  316MOL    H8544815   6.350   6.868   6.596  1.2265 -1.8226 -2.3086
  316MOL    C8644816   6.527   6.728   6.498  0.3945  0.2078 -0.3264
  316MOL    C8744817   6.458   6.672   6.370  0.7497  0.9243 -0.4221
  316MOL    O8844818   6.527   6.716   6.257  0.3300  0.3682 -0.2143
  316MOL    H8944819   6.552   6.829   6.467 -2.0714  0.9051 -0.1548
  316MOL    H9044820   6.614   6.662   6.502  0.1701 -0.2140 -1.9451
  316MOL    H9144821   6.358   6.714   6.354  0.9406  1.2316 -0.8395
  316MOL    H9244822   6.512   6.809   6.249  2.4751  0.6337 -1.5113
  316MOL    C9344823   6.457   6.517   6.360 -0.6473  0.2597 -0.2053
  316MOL    C9444824   6.378   6.445   6.253 -0.3332 -0.4981  0.2768
  316MOL    O9544825   6.413   6.305   6.251 -0.1971 -0.3114  0.0048
  316MOL    H9644826   6.559   6.480   6.351 -0.0145  0.8496  3.4456
  316MOL    H9744827   6.416   6.480   6.454 -2.0716  0.2724 -0.8090
  316MOL    H9844828   6.406   6.484   6.155 -0.1990 -2.3507 -0.4299
  316MOL    H9944829   6.503   6.307   6.222 -0.5761  1.3079 -1.1328
  316MOL   C10044830   6.223   6.454   6.269 -0.5387  0.0642 -0.6856
  316MOL   C10144831   6.139   6.403   6.151  0.6574 -0.2314  0.1251
  316MOL   O10244832   6.004   6.411   6.187 -0.3315 -0.0206 -0.4648
  316MOL   H10344833   6.194   6.385   6.348  1.4331 -1.4079 -1.1896
  316MOL   H10444834   6.194   6.557   6.289  0.0714  0.2395 -0.6847
  316MOL   H10544835   6.165   6.298   6.142 -0.6037 -0.3643 -2.3595
  316MOL   H10644836   6.002   6.446   6.275  0.0356 -3.5664  1.0544
  316MOL   C10744837   6.160   6.473   6.018 -0.9896  0.3309  0.9575
  316MOL   C10844838   6.066   6.444   5.906  0.2954  0.1224 -0.0826
  316MOL   O10944839   6.077   6.546   5.810 -0.1016  0.1289 -0.0260
  316MOL   H11044840   6.159   6.581   6.027 -0.8695  0.4812 -0.6818
  316MOL   H11144841   6.261   6.455   5.981 -1.2202  0.9040  0.0514
  316MOL   H11244842   5.964   6.453   5.945  1.2892  0.8133  2.4352
  316MOL   H11344843   5.999   6.541   5.757 -0.5774  1.5730  0.4853
  316MOL   C11444844   6.099   6.316   5.824 -0.2894  0.2639 -0.6114
  316MOL   C11544845   6.012   6.192   5.857  0.2770 -0.6331 -0.6267
  316MOL   O11644846   6.046   6.096   5.766 -0.7153 -0.2289  0.1486
  316MOL   H11744847   6.084   6.345   5.720 -1.3189  1.1019 -0.2479
  316MOL   H11844848   6.203   6.285   5.826 -0.2781  0.2574 -1.2896
  316MOL   H11944849   5.906   6.216   5.851  0.7934  2.1456  0.8741
  316MOL   H12044850   6.013   6.139   5.688 -2.5884  0.1936  1.1573
  316MOL   C12144851   6.022   6.131   5.999  0.2834 -0.3775 -0.0596
  316MOL   C12244852   6.012   5.971   6.014 -0.8411  0.9893 -0.2667
  316MOL   O12344853   6.068   5.937   6.147 -0.2544 -0.1738  0.3053
  316MOL   H12444854   6.122   6.159   6.032  0.2738 -2.2547  1.6885
  316MOL   H12544855   5.952   6.181   6.065  0.2067 -1.6470  0.8363
  316MOL   H12644856   6.069   5.925   5.933  0.3714 -0.2173  1.2533
  316MOL   H12744857   6.150   5.982   6.152  0.4444 -1.4770  0.6989
  316MOL   C12844858   5.864   5.927   6.012  0.2451 -0.2116 -0.1470
  316MOL   C12944859   5.837   5.783   6.053  0.0588 -0.0884  0.0854
  316MOL   O13044860   5.821   5.780   6.192  0.1896  0.4539  0.2976
  316MOL   H13144861   5.817   5.986   6.090 -1.6715 -1.9353  0.0439
  316MOL   H13244862   5.819   5.950   5.915  2.1472 -0.3425 -1.0914
  316MOL   H13344863   5.927   5.732   6.021 -0.9639 -3.0285  1.6914
  316MOL   H13444864   5.906   5.792   6.232  0.5137 -0.5903 -0.0658
  316MOL   C13544865   5.706   5.733   5.990  0.1582  0.6232 -0.4198
  316MOL   C13644866   5.665   5.585   6.003  0.2017 -0.1210  0.2013
  316MOL   O13744867   5.538   5.564   5.945 -0.2072  0.4568  0.0593
  316MOL   H13844868   5.627   5.795   6.032  1.3910  0.0826  2.9059
  316MOL   H13944869   5.709   5.760   5.885  0.6166 -0.0420 -0.5856
  316MOL   H14044870   5.650   5.544   6.103 -0.7125 -0.4772 -0.0794
  316MOL   H14144871   5.514   5.472   5.947  0.1571  0.3538 -0.3459
  316MOL   H14244872   5.729   5.513   5.951 -0.3577  0.0178 -0.6766
  317MOL     C144873   2.747   3.822   5.739  0.5312 -0.7417 -0.0490
  317MOL     C244874   2.662   3.698   5.702 -0.0874 -0.0259  0.4242
  317MOL     O344875   2.529   3.709   5.739 -0.6703  0.0173  0.1198
  317MOL     H444876   2.721   3.848   5.842  0.8250  0.6364 -0.3187
  317MOL     H544877   2.724   3.900   5.667 -0.3947 -0.7725  0.2006
  317MOL     H644878   2.707   3.621   5.765  1.6309  0.8555  0.3058
  317MOL     H744879   2.510   3.732   5.829 -4.8051 -0.6836 -0.4601
  317MOL     H844880   2.853   3.798   5.744  0.4917 -0.9985 -0.4045
  317MOL     C944881   2.658   3.655   5.559 -0.2213  0.2088 -0.4277
  317MOL    C1044882   2.780   3.566   5.511  0.5030  0.5479  0.3920
  317MOL    O1144883   2.736   3.493   5.399  0.1257 -0.3243 -0.0819
  317MOL    H1244884   2.561   3.613   5.533 -0.0383 -0.4637 -0.0468
  317MOL    H1344885   2.668   3.740   5.491  1.1074 -0.2950 -0.8951
  317MOL    H1444886   2.816   3.500   5.590 -1.0542  1.3828  1.8387
  317MOL    H1544887   2.708   3.551   5.329  0.2561 -1.3544 -1.0097
  317MOL    C1644888   2.900   3.651   5.465 -0.3241  0.4862 -0.3731
  317MOL    C1744889   3.025   3.560   5.425 -0.4713 -0.1659 -0.4059
  317MOL    O1844890   3.101   3.645   5.343 -0.2501  0.0761  0.7648
  317MOL    H1944891   2.869   3.719   5.386  0.2472 -0.2115 -1.2098
  317MOL    H2044892   2.920   3.724   5.544 -0.4901  0.2227 -0.0856
  317MOL    H2144893   2.995   3.470   5.371 -0.8922  0.4533 -1.2239
  317MOL    H2244894   3.153   3.585   5.291 -1.3508  1.3271 -1.8660
  317MOL    C2344895   3.098   3.514   5.552 -0.4002 -0.5435  0.0311
  317MOL    C2444896   3.242   3.443   5.531  0.6941  0.8134  0.0318
  317MOL    O2544897   3.322   3.451   5.645  0.4028 -0.4475  0.4221
  317MOL    H2644898   3.125   3.598   5.617  0.9346 -1.5549  0.7960
  317MOL    H2744899   3.028   3.455   5.610 -0.1519 -0.3990  0.4849
  317MOL    H2844900   3.300   3.488   5.451  2.2795 -0.3206  0.5272
  317MOL    H2944901   3.389   3.515   5.628  0.1359 -0.7219 -1.8869
  317MOL    C3044902   3.228   3.291   5.493  0.3818 -0.0568  0.4184
  317MOL    C3144903   3.357   3.216   5.476 -0.0010 -0.9362 -0.1774
  317MOL    O3244904   3.315   3.082   5.461 -0.0514 -0.1342 -0.0057
  317MOL    H3344905   3.162   3.241   5.564  1.4109 -0.2115  1.2725
  317MOL    H3444906   3.156   3.282   5.412 -1.0347  0.3922  1.6013
  317MOL    H3544907   3.414   3.227   5.569 -0.6061 -1.4686  0.2567
  317MOL    H3644908   3.358   3.021   5.519  1.3087  0.5509 -0.2748
  317MOL    C3744909   3.448   3.260   5.359  0.6778  0.1297 -0.6846
  317MOL    C3844910   3.567   3.169   5.344  0.3705 -0.3988 -0.0940
  317MOL    O3944911   3.621   3.214   5.222  0.0332 -0.1249  0.0341
  317MOL    H4044912   3.387   3.261   5.269  0.0327  0.6532 -0.2402
  317MOL    H4144913   3.475   3.362   5.384 -0.1807  0.2579 -0.2748
  317MOL    H4244914   3.540   3.063   5.335 -0.1464 -0.2578 -0.2026
  317MOL    H4344915   3.566   3.173   5.158 -2.0935  2.9972 -0.2463
  317MOL    C4444916   3.673   3.195   5.459  0.7434 -1.2750  0.4279
  317MOL    C4544917   3.804   3.121   5.438 -1.0221 -0.4134 -0.1668
  317MOL    O4644918   3.888   3.157   5.550 -0.1367  0.1126 -0.1463
  317MOL    H4744919   3.690   3.301   5.471 -2.3706 -0.5522 -0.8894
  317MOL    H4844920   3.622   3.160   5.549 -0.0898 -1.0246  0.0553
  317MOL    H4944921   3.846   3.149   5.341  0.4316  1.9642  1.1060
  317MOL    H5044922   3.919   3.245   5.532 -0.5801  0.2520 -0.2233
  317MOL    C5144923   3.794   2.967   5.445 -0.7845 -0.5908  0.6081
  317MOL    C5244924   3.928   2.898   5.400  0.3673  0.4276 -0.7822
  317MOL    O5344925   3.916   2.760   5.403 -0.2122  0.0911  0.2531
  317MOL    H5444926   3.769   2.943   5.549 -2.3690  0.3262  0.4471
  317MOL    H5544927   3.706   2.937   5.388  1.1752 -1.0880 -2.2246
  317MOL    H5644928   4.000   2.929   5.475 -0.1092  0.2701 -0.2585
  317MOL    H5744929   3.887   2.736   5.490 -2.6457  0.7997 -0.3253
  317MOL    C5844930   3.987   2.940   5.264  0.1472  0.3467  0.5952
  317MOL    C5944931   3.875   2.949   5.153  0.1954 -0.1041  0.0803
  317MOL    O6044932   3.930   3.035   5.056 -0.1387 -0.2243  0.2706
  317MOL    H6144933   4.047   3.030   5.276  3.6258 -1.1014 -4.2311
  317MOL    H6244934   4.058   2.863   5.235 -1.3954 -0.6471 -0.6087
  317MOL    H6344935   3.788   3.007   5.185  0.5977 -1.2775  3.4477
  317MOL    H6444936   3.911   3.006   4.968 -0.8671  0.2521  0.2622
  317MOL    C6544937   3.825   2.817   5.089 -0.1211 -0.2522  0.2767
  317MOL    C6644938   3.707   2.754   5.158  0.3031 -0.1123 -0.4260
  317MOL    O6744939   3.595   2.829   5.117 -0.2202  0.1629 -0.1167
  317MOL    H6844940   3.812   2.843   4.984 -2.4900  0.1192  0.6468
  317MOL    H6944941   3.913   2.753   5.091  0.0870  0.0465  0.8040
  317MOL    H7044942   3.721   2.770   5.265  1.4639  0.9680 -0.7330
  317MOL    H7144943   3.556   2.856   5.198  0.4697  0.5201  0.1090
  317MOL    C7244944   3.671   2.604   5.124 -0.1267 -0.5562 -0.2732
  317MOL    C7344945   3.569   2.544   5.213  1.0549  0.0380 -0.3721
  317MOL    O7444946   3.534   2.424   5.147 -0.0581 -0.9174  0.4423
  317MOL    H7544947   3.614   2.606   5.032 -0.1559 -1.7851 -0.2904
  317MOL    H7644948   3.772   2.563   5.121  0.1044 -0.0433  0.2562
  317MOL    H7744949   3.476   2.602   5.212  0.1242 -1.3860  1.9268
  317MOL    H7844950   3.611   2.371   5.134  0.0252 -0.2525 -2.0273
  317MOL    C7944951   3.611   2.510   5.360 -0.3086  0.0324 -0.6852
  317MOL    C8044952   3.503   2.555   5.462  0.1819  0.6042 -0.9366
  317MOL    O8144953   3.523   2.481   5.587 -0.7152  0.4740  0.0250
  317MOL    H8244954   3.627   2.404   5.381 -0.3136  0.5239  1.9740
  317MOL    H8344955   3.705   2.558   5.386 -0.5728 -1.1903  2.7926
  317MOL    H8444956   3.410   2.526   5.413 -0.8840  1.6969  0.3759
  317MOL    H8544957   3.440   2.447   5.618 -0.5567  0.2700  0.2161
  317MOL    C8644958   3.508   2.710   5.482 -0.0773  0.2854 -0.1549
  317MOL    C8744959   3.401   2.754   5.584 -0.2397 -0.6981  0.0344
  317MOL    O8844960   3.439   2.890   5.595  1.2107 -0.0421 -0.7810
  317MOL    H8944961   3.609   2.732   5.516 -0.1989  0.7602 -0.0956
  317MOL    H9044962   3.483   2.763   5.390  2.0522 -0.4704 -1.1783
  317MOL    H9144963   3.416   2.716   5.686 -0.2471  1.9993  1.0812
  317MOL    H9244964   3.503   2.896   5.664  0.5164  0.7947 -0.1914
  317MOL    C9344965   3.250   2.727   5.547  0.2076 -0.9775  0.2903
  317MOL    C9444966   3.166   2.811   5.652  0.0618  0.5153 -0.6862
  317MOL    O9544967   3.035   2.827   5.608 -0.2459 -0.1198  0.0396
  317MOL    H9644968   3.222   2.760   5.447 -0.0593  1.1322  1.0199
  317MOL    H9744969   3.226   2.621   5.549 -2.6125 -0.4206 -0.6814
  317MOL    H9844970   3.205   2.913   5.663 -1.5622  0.8751  2.3406
  317MOL    H9944971   3.035   2.909   5.561  0.1797 -1.3711 -2.2396
  317MOL   C10044972   3.153   2.738   5.789 -0.5133  0.4345 -0.5175
  317MOL   C10144973   3.167   2.837   5.902  0.0226  0.1374 -0.1033
  317MOL   O10244974   3.120   2.767   6.018 -0.1428 -0.5792  0.2474
  317MOL   H10344975   3.072   2.666   5.791  0.4787 -0.6838  0.4298
  317MOL   H10444976   3.241   2.674   5.794 -0.3531  0.7372  1.0161
  317MOL   H10544977   3.104   2.925   5.890  1.8925  1.6034  0.6190
  317MOL   H10644978   3.057   2.820   6.064  0.4497 -0.0637  0.4596
  317MOL   C10744979   3.318   2.884   5.925 -0.5929 -0.2976  0.7572
  317MOL   C10844980   3.318   2.982   6.044  1.0834 -0.4185 -0.5628
  317MOL   O10944981   3.458   2.974   6.096 -0.0705  0.4866  0.3591
  317MOL   H11044982   3.380   2.795   5.935 -0.9458 -0.8501 -1.5957
  317MOL   H11144983   3.354   2.940   5.838 -2.5411  2.9727  1.9527
  317MOL   H11244984   3.261   2.941   6.127  0.2475 -0.4141 -1.1336
  317MOL   H11344985   3.464   3.019   6.179  0.8157  0.0979  0.5111
  317MOL   C11444986   3.289   3.127   6.018  0.2184 -0.5508 -0.3953
  317MOL   C11544987   3.214   3.201   6.131  0.3354 -0.0873 -0.6477
  317MOL   O11644988   3.306   3.236   6.230  0.0708  0.1934 -0.3160
  317MOL   H11744989   3.378   3.176   5.980 -1.2264  0.0776 -3.0491
  317MOL   H11844990   3.228   3.122   5.928  0.2922  1.0274 -0.5315
  317MOL   H11944991   3.151   3.125   6.177  0.5787  0.4659  0.6110
  317MOL   H12044992   3.363   3.295   6.184  0.1213 -1.1425 -1.9796
  317MOL   C12144993   3.130   3.327   6.104 -0.3071 -0.5669 -0.4087
  317MOL   C12244994   3.022   3.311   5.987 -0.2833 -0.6401 -0.2964
  317MOL   O12344995   2.957   3.188   6.000 -0.3576 -0.1876 -0.2689
  317MOL   H12444996   3.088   3.372   6.194  2.8346  0.1087  0.7658
  317MOL   H12544997   3.188   3.415   6.076 -0.2931 -0.9344 -1.5369
  317MOL   H12644998   3.071   3.307   5.889 -1.6298 -1.2864 -0.9504
  317MOL   H12744999   2.897   3.181   5.928 -1.8699  0.2531  0.9302
  317MOL   C12845000   2.898   3.402   6.002  1.0617 -0.6453  0.0319
  317MOL   C12945001   2.933   3.548   6.003  0.5865  0.3569  0.2897
  317MOL   O13045002   2.979   3.599   5.883 -0.1627 -0.7703  0.3480
  317MOL   H13145003   2.815   3.385   5.933 -0.5729  2.2980  1.2132
  317MOL   H13245004   2.857   3.386   6.102  0.2259 -0.0466 -0.2180
  317MOL   H13345005   3.012   3.560   6.077  1.3340 -2.3512 -0.0292
  317MOL   H13445006   3.069   3.625   5.892 -0.0615 -0.4266 -1.4278
  317MOL   C13545007   2.810   3.636   6.053  0.2590  0.9657  0.1420
  317MOL   C13645008   2.846   3.772   6.106 -0.6579 -1.0262  0.0124
  317MOL   O13745009   2.898   3.752   6.237 -0.1050 -0.0176  0.2887
  317MOL   H13845010   2.736   3.640   5.973  0.9263  1.6872 -0.4540
  317MOL   H13945011   2.751   3.583   6.128  0.7677  1.5202  0.9354
  317MOL   H14045012   2.755   3.829   6.123 -1.9073 -3.4292  1.6735
  317MOL   H14145013   2.982   3.709   6.238 -0.3184 -0.4148  1.0266
  317MOL   H14245014   2.902   3.830   6.033  0.9362 -2.2811  0.2149
  318MOL     C145015   6.316   3.651   5.201  0.2598  0.3198 -0.6209
  318MOL     C245016   6.350   3.697   5.056  0.3144  0.3239  0.3083
  318MOL     O345017   6.225   3.690   4.984  0.2149  0.2025  0.1752
  318MOL     H445018   6.213   3.671   5.230 -0.0548 -0.9360 -0.8026
  318MOL     H545019   6.377   3.694   5.280  1.1325  2.0734 -2.2180
  318MOL     H645020   6.421   3.628   5.010 -0.6780  0.4743 -1.5032
  318MOL     H745021   6.224   3.721   4.895 -1.3018  1.9191  0.7546
  318MOL     H845022   6.319   3.543   5.218 -0.4837  0.6689  1.9910
  318MOL     C945023   6.414   3.832   5.050 -0.3261 -0.7912 -0.3718
  318MOL    C1045024   6.536   3.861   5.144  0.5503  0.2009  0.4196
  318MOL    O1145025   6.641   3.776   5.102 -0.0590 -0.1411 -0.5942
  318MOL    H1245026   6.442   3.847   4.946 -0.0809 -0.2083 -0.2231
  318MOL    H1345027   6.335   3.908   5.052 -0.6518 -1.1478  1.1286
  318MOL    H1445028   6.514   3.861   5.251  0.2509  1.0675  0.3647
  318MOL    H1545029   6.696   3.759   5.177  1.0253  0.0921 -1.3355
  318MOL    C1645030   6.599   4.002   5.131 -0.5391  0.8130  0.4159
  318MOL    C1745031   6.502   4.125   5.120 -0.3702  0.3125 -0.2326
  318MOL    O1845032   6.450   4.160   5.248 -0.0148 -0.4427  0.2658
  318MOL    H1945033   6.667   4.019   5.215  0.8348 -1.5143 -0.1865
  318MOL    H2045034   6.663   4.004   5.043 -2.0406 -1.4788 -0.7581
  318MOL    H2145035   6.415   4.101   5.058 -1.3845  0.7907  0.9645
  318MOL    H2245036   6.399   4.085   5.276 -0.9953  0.0262 -0.2367
  318MOL    C2345037   6.556   4.260   5.069 -0.1061  0.2291  0.1569
  318MOL    C2445038   6.627   4.254   4.938  0.3383 -0.6728  0.3832
  318MOL    O2545039   6.546   4.203   4.839  0.1107 -0.3014 -0.3058
  318MOL    H2645040   6.478   4.334   5.081  0.9125  1.3237  0.0836
  318MOL    H2745041   6.631   4.301   5.136 -1.1983  2.4791  0.0100
  318MOL    H2845042   6.709   4.184   4.947 -0.5386 -2.0598 -1.9374
  318MOL    H2945043   6.482   4.269   4.815  0.8044  0.3338 -0.4484
  318MOL    C3045044   6.695   4.390   4.896  0.5484  0.2539 -0.1448
  318MOL    C3145045   6.781   4.385   4.770 -0.5146  0.0249 -0.2464
  318MOL    O3245046   6.794   4.524   4.756  1.0967 -0.1476  0.0838
  318MOL    H3345047   6.619   4.468   4.901  0.9935  0.6085  1.6429
  318MOL    H3445048   6.759   4.418   4.980 -0.3256  1.5313  0.1177
  318MOL    H3545049   6.736   4.336   4.683  1.8035  1.1824 -2.1410
  318MOL    H3645050   6.793   4.570   4.838 -3.4545  0.5696 -0.2202
  318MOL    C3745051   6.921   4.324   4.791  0.1653 -0.6513  0.2285
  318MOL    C3845052   6.989   4.226   4.690  0.4937  0.7612 -0.4947
  318MOL    O3945053   7.124   4.229   4.717 -0.0035 -0.2595 -0.5792
  318MOL    H4045054   6.996   4.398   4.819  0.9319 -0.8483 -1.2553
  318MOL    H4145055   6.911   4.270   4.885  0.3037  1.0678  1.2593
  318MOL    H4245056   6.962   4.280   4.599  1.4493  1.6186 -0.2696
  318MOL    H4345057   7.150   4.138   4.716  0.5825 -0.1021 -0.0382
  318MOL    C4445058   6.937   4.079   4.690 -0.4794  0.4434  0.1440
  318MOL    C4545059   7.027   3.981   4.613  0.0942 -0.1349  0.2155
  318MOL    O4645060   7.157   3.964   4.671  0.7137 -0.3440 -0.3578
  318MOL    H4745061   6.922   4.048   4.793  0.0353 -1.0552 -0.2166
  318MOL    H4845062   6.848   4.088   4.628  0.6244  0.6088 -1.4620
  318MOL    H4945063   7.053   4.024   4.516  0.2813  1.4755  0.9597
  318MOL    H5045064   7.201   3.890   4.631 -0.1267  0.3202 -2.5469
  318MOL    C5145065   6.956   3.846   4.587 -0.4065  0.0577  0.3739
  318MOL    C5245066   6.822   3.860   4.513  0.4537 -0.5098  0.6573
  318MOL    O5345067   6.817   3.789   4.393  0.3468  0.1367 -0.3640
  318MOL    H5445068   7.028   3.798   4.521  0.7793  0.0094  1.6699
  318MOL    H5545069   6.941   3.789   4.679  2.7911  0.2475  1.0963
  318MOL    H5645070   6.808   3.959   4.471  0.8186  0.2930  2.3955
  318MOL    H5745071   6.727   3.792   4.367 -0.2851 -1.2161  1.5609
  318MOL    C5845072   6.710   3.815   4.597 -0.0856  0.1573  0.0417
  318MOL    C5945073   6.564   3.827   4.538 -0.4726  0.9325  0.0655
  318MOL    O6045074   6.558   3.768   4.408 -0.1133  0.3231 -0.8828
  318MOL    H6145075   6.716   3.712   4.631  1.3139  0.2007 -0.0499
  318MOL    H6245076   6.703   3.877   4.686  1.5121  0.2578  0.1233
  318MOL    H6345077   6.553   3.935   4.528  1.2595  1.2616  1.5158
  318MOL    H6445078   6.490   3.813   4.361  0.5565  1.1812 -1.0396
  318MOL    C6545079   6.456   3.763   4.630 -0.1550  0.4906  0.5812
  318MOL    C6645080   6.307   3.790   4.601 -0.1477  0.0806  0.0040
  318MOL    O6745081   6.228   3.682   4.657  0.0929  0.3312 -0.3684
  318MOL    H6845082   6.476   3.659   4.603 -0.8628 -0.7445  4.5009
  318MOL    H6945083   6.481   3.768   4.736  1.2461  1.9732  0.1968
  318MOL    H7045084   6.293   3.806   4.494  1.5412 -0.8753 -0.3759
  318MOL    H7145085   6.141   3.692   4.623 -0.6399  2.0546  1.8976
  318MOL    C7245086   6.267   3.917   4.674 -0.3303  0.0927 -0.7599
  318MOL    C7345087   6.120   3.962   4.631  0.1972  0.7218  0.4962
  318MOL    O7445088   6.028   3.862   4.673  0.4172 -0.2257  0.2769
  318MOL    H7545089   6.271   3.897   4.781 -0.5250  1.7842 -0.4258
  318MOL    H7645090   6.343   3.994   4.661  0.9723 -0.0551  4.6157
  318MOL    H7745091   6.113   3.979   4.523 -3.5419 -2.0735  0.2140
  318MOL    H7845092   6.004   3.871   4.764 -1.3047 -1.6931  0.0038
  318MOL    C7945093   6.087   4.095   4.702 -0.2710  0.0769 -0.5366
  318MOL    C8045094   6.164   4.229   4.654  0.0067 -0.0752 -0.5756
  318MOL    O8145095   6.134   4.239   4.514 -0.0960  0.6830  0.1018
  318MOL    H8245096   5.980   4.119   4.707 -0.0424  1.2170 -0.8371
  318MOL    H8345097   6.120   4.084   4.805  0.7881  2.9434 -0.5298
  318MOL    H8445098   6.270   4.208   4.652 -0.4250 -2.2607 -1.6056
  318MOL    H8545099   6.207   4.213   4.459 -1.0746 -0.1706 -0.7997
  318MOL    C8645100   6.132   4.361   4.723  0.0349 -0.1967  0.2682
  318MOL    C8745101   6.200   4.403   4.853  0.3325 -1.0938  0.6094
  318MOL    O8845102   6.341   4.412   4.827 -0.2286 -0.5117  0.0627
  318MOL    H8945103   6.166   4.437   4.652  1.1904 -2.0964 -1.2401
  318MOL    H9045104   6.024   4.372   4.734  0.0900 -0.7381  1.4662
  318MOL    H9145105   6.170   4.333   4.930 -1.4434  0.8803  1.7527
  318MOL    H9245106   6.376   4.477   4.886  0.9398 -0.8198 -0.2755
  318MOL    C9345107   6.150   4.540   4.903 -0.2331 -0.2053  0.4078
  318MOL    C9445108   6.176   4.566   5.053  0.7134 -1.1518  0.4449
  318MOL    O9545109   6.319   4.554   5.074  0.3411 -0.1809  0.2228
  318MOL    H9645110   6.186   4.609   4.827 -0.9700  2.1282  2.1044
  318MOL    H9745111   6.045   4.546   4.875  0.6159  0.5277 -2.7984
  318MOL    H9845112   6.125   4.488   5.111  1.1895 -0.8141  1.3360
  318MOL    H9945113   6.342   4.601   5.153  2.3885 -0.0634 -0.4120
  318MOL   C10045114   6.139   4.707   5.093  0.9772  0.1864  0.4358
  318MOL   C10145115   5.983   4.726   5.108  0.2880 -1.0748  0.1468
  318MOL   O10245116   5.943   4.696   5.238 -0.0953  0.0662 -0.1067
  318MOL   H10345117   6.182   4.747   5.185  0.0118 -0.3331  1.1271
  318MOL   H10445118   6.159   4.781   5.015 -1.9361  0.0346 -0.5183
  318MOL   H10545119   5.927   4.652   5.050 -0.3412  0.3011 -1.0296
  318MOL   H10645120   5.871   4.751   5.265 -0.1767  0.2003 -0.5931
  318MOL   C10745121   5.924   4.859   5.062  0.1172 -0.3296  0.2740
  318MOL   C10845122   5.930   4.897   4.908  0.6767 -0.0640 -0.0404
  318MOL   O10945123   5.858   4.804   4.828  0.2515 -0.5924  0.1783
  318MOL   H11045124   5.818   4.862   5.087 -0.1969 -2.2720 -0.7427
  318MOL   H11145125   5.963   4.940   5.123  1.3743 -1.4205  0.9308
  318MOL   H11245126   6.032   4.886   4.872  1.4088  1.2314  1.5578
  318MOL   H11345127   5.859   4.846   4.743  0.2737  0.8059  0.8605
  318MOL   C11445128   5.887   5.041   4.861  0.0154 -0.3069  0.1539
  318MOL   C11545129   5.963   5.159   4.932 -0.0627 -0.2795 -0.3471
  318MOL   O11645130   6.104   5.157   4.915 -0.4902 -0.0768 -0.3339
  318MOL   H11745131   5.887   5.059   4.753 -0.7418 -1.3873 -0.0308
  318MOL   H11845132   5.784   5.046   4.895 -0.6204 -0.1351 -1.7307
  318MOL   H11945133   5.953   5.151   5.040 -0.6465  1.5492 -0.2566
  318MOL   H12045134   6.131   5.191   4.831  0.9660 -0.3126  0.0165
  318MOL   C12145135   5.922   5.300   4.871  0.7111  0.5768 -0.3017
  318MOL   C12245136   5.785   5.349   4.921  0.2877 -0.0475 -1.3317
  318MOL   O12345137   5.778   5.371   5.065 -0.0847  0.1446  0.1027
  318MOL   H12445138   5.992   5.379   4.897  1.4423 -0.8616  2.2267
  318MOL   H12545139   5.910   5.295   4.763  2.2144  1.7223 -0.5422
  318MOL   H12645140   5.706   5.275   4.909 -1.8075  2.4318 -3.4932
  318MOL   H12745141   5.757   5.289   5.108  0.8501 -0.7890 -1.1960
  318MOL   C12845142   5.749   5.477   4.836 -0.7741 -0.2308  0.4271
  318MOL   C12945143   5.630   5.553   4.879 -0.2066  0.2521  0.2081
  318MOL   O13045144   5.640   5.687   4.838  0.3679  0.3216 -0.2709
  318MOL   H13145145   5.830   5.549   4.849 -1.4920  0.5648  0.5541
  318MOL   H13245146   5.738   5.450   4.732  1.6631 -1.3024  0.4132
  318MOL   H13345147   5.626   5.551   4.988 -1.7923  0.3677  0.1654
  318MOL   H13445148   5.552   5.721   4.843 -0.0245 -0.6801 -0.3328
  318MOL   C13545149   5.504   5.472   4.835  0.0585  0.0012 -0.5562
  318MOL   C13645150   5.403   5.466   4.950 -0.1311  0.8940  0.1686
  318MOL   O13745151   5.298   5.372   4.922  0.9316 -0.4427  0.0172
  318MOL   H13845152   5.467   5.506   4.739 -0.4036 -0.6493 -0.6137
  318MOL   H13945153   5.536   5.371   4.810  1.2414  0.0031  0.8387
  318MOL   H14045154   5.367   5.565   4.976 -1.3404  0.1275  1.4733
  318MOL   H14145155   5.245   5.409   4.853  2.8972  0.5293 -1.0289
  318MOL   H14245156   5.445   5.427   5.043 -0.0278 -1.4832 -0.8433
  319MOL     C145157   4.613   4.641   2.239  0.4591  0.1954  0.2187
  319MOL     C245158   4.580   4.502   2.286 -0.2490 -0.4934 -0.4371
  319MOL     O345159   4.521   4.442   2.174 -0.4305 -0.0742 -0.3135
  319MOL     H445160   4.663   4.708   2.310  1.8771 -0.0426 -0.5332
  319MOL     H545161   4.526   4.694   2.200  1.1299 -1.3091 -3.4971
  319MOL     H645162   4.505   4.499   2.364  0.0883  1.6654  0.0146
  319MOL     H745163   4.587   4.440   2.106  0.2901  0.6230  0.3556
  319MOL     H845164   4.677   4.645   2.151  1.9038  0.0075  1.2308
  319MOL     C945165   4.706   4.430   2.332  0.3285  0.3390 -0.9103
  319MOL    C1045166   4.684   4.288   2.382  0.0652 -0.2243 -0.7865
  319MOL    O1145167   4.815   4.232   2.410  0.0835 -0.6474  0.8232
  319MOL    H1245168   4.782   4.418   2.254  0.1864  1.2365 -1.1857
  319MOL    H1345169   4.754   4.493   2.407 -1.9392  0.3958  0.5266
  319MOL    H1445170   4.642   4.228   2.301 -2.5740  0.0999  0.3077
  319MOL    H1545171   4.873   4.250   2.338  0.4868 -1.2696  0.9839
  319MOL    C1645172   4.583   4.273   2.505  0.1338  0.1222  0.3827
  319MOL    C1745173   4.581   4.132   2.566 -0.6102 -0.0430  0.0125
  319MOL    O1845174   4.510   4.140   2.693 -0.2026 -0.3229 -0.0061
  319MOL    H1945175   4.619   4.338   2.585  1.4407  3.3191 -2.6897
  319MOL    H2045176   4.478   4.293   2.482  0.4780 -1.2803 -2.5312
  319MOL    H2145177   4.684   4.098   2.578 -0.7965 -0.2368  1.0931
  319MOL    H2245178   4.583   4.151   2.753  1.0934 -1.4478 -1.3314
  319MOL    C2345179   4.510   4.028   2.475  0.3739 -0.0145 -0.5367
  319MOL    C2445180   4.538   3.880   2.494 -0.0982  0.6872  0.4200
  319MOL    O2545181   4.448   3.808   2.408  0.5147  0.2402 -0.3599
  319MOL    H2645182   4.403   4.036   2.493  0.8564  1.3627  2.1129
  319MOL    H2745183   4.530   4.048   2.370 -0.0918 -1.2000 -0.8508
  319MOL    H2845184   4.509   3.864   2.598 -2.1169  1.5847  0.0182
  319MOL    H2945185   4.464   3.827   2.317  0.3936 -1.3942 -0.7390
  319MOL    C3045186   4.690   3.842   2.463  0.5093 -1.1644  0.0178
  319MOL    C3145187   4.721   3.699   2.506  0.9309 -0.6595 -1.0437
  319MOL    O3245188   4.854   3.682   2.472  0.0546 -0.7463  0.7348
  319MOL    H3345189   4.724   3.864   2.362  0.5096  0.0770  0.2825
  319MOL    H3445190   4.760   3.901   2.522 -0.2762 -1.5606  1.3776
  319MOL    H3545191   4.660   3.630   2.447 -0.9968  0.3690 -0.3089
  319MOL    H3645192   4.903   3.732   2.535 -1.8301 -0.4117  1.9538
  319MOL    C3745193   4.701   3.659   2.651  0.2814  0.2925 -0.1970
  319MOL    C3845194   4.562   3.592   2.677  0.4211  0.0893  0.3660
  319MOL    O3945195   4.546   3.472   2.601  0.5025  0.3961  0.1888
  319MOL    H4045196   4.779   3.592   2.686  2.3603  2.1093 -1.2577
  319MOL    H4145197   4.708   3.753   2.706  0.4888 -0.3167  0.8229
  319MOL    H4245198   4.477   3.659   2.663  1.4018  1.2068 -0.3363
  319MOL    H4345199   4.508   3.500   2.520  1.1573  0.0736 -0.2310
  319MOL    C4445200   4.535   3.550   2.829  0.1343 -0.1646  0.5154
  319MOL    C4545201   4.517   3.658   2.939 -0.0053  0.1585  0.4157
  319MOL    O4645202   4.410   3.631   3.026 -0.3242  0.2092 -0.5389
  319MOL    H4745203   4.448   3.485   2.836  0.8853 -1.2953 -0.4503
  319MOL    H4845204   4.615   3.480   2.851  1.6298  0.8591 -1.5210
  319MOL    H4945205   4.470   3.738   2.882 -0.4866 -0.2126  0.2895
  319MOL    H5045206   4.434   3.550   3.066 -1.9831 -0.7213 -1.3734
  319MOL    C5145207   4.654   3.698   3.010 -0.4513 -0.0484 -0.1281
  319MOL    C5245208   4.664   3.842   3.058  0.4561  0.2667  0.0405
  319MOL    O5345209   4.799   3.857   3.108 -0.0782  0.4778 -0.0178
  319MOL    H5445210   4.673   3.618   3.082  2.2830  1.0859  0.4570
  319MOL    H5545211   4.741   3.675   2.948 -0.1847 -0.9821  0.5798
  319MOL    H5645212   4.603   3.857   3.147  3.4705  1.3375  1.9867
  319MOL    H5745213   4.792   3.827   3.197  2.2432  0.9463  0.3503
  319MOL    C5845214   4.662   3.940   2.943  0.1205  0.2463 -0.1344
  319MOL    C5945215   4.678   4.088   2.986  0.0893 -0.0672  0.0741
  319MOL    O6045216   4.710   4.172   2.878  0.3248 -0.2342 -0.5319
  319MOL    H6145217   4.736   3.899   2.874 -0.0710 -1.5645  0.7207
  319MOL    H6245218   4.573   3.937   2.880  0.6137 -1.5355 -0.7821
  319MOL    H6345219   4.758   4.096   3.058  0.0646  0.3940  0.0518
  319MOL    H6445220   4.701   4.261   2.907 -0.9367 -0.4847 -0.1348
  319MOL    C6545221   4.538   4.129   3.032 -0.9609  0.5861 -1.0364
  319MOL    C6645222   4.523   4.271   3.099 -0.3556  1.0043 -0.1124
  319MOL    O6745223   4.498   4.367   3.004  0.1667  0.2812  0.0798
  319MOL    H6845224   4.461   4.110   2.957 -0.8251 -2.6985 -0.4314
  319MOL    H6945225   4.515   4.053   3.107  1.7626  1.8972  1.2207
  319MOL    H7045226   4.607   4.299   3.162  0.3451 -1.2870  0.0063
  319MOL    H7145227   4.440   4.341   2.934  0.6627  1.0446 -0.6274
  319MOL    C7245228   4.407   4.262   3.203  0.0671  0.1442  0.3510
  319MOL    C7345229   4.371   4.392   3.277  0.0162 -0.5063  0.3272
  319MOL    O7445230   4.240   4.375   3.336  0.4292 -0.1339 -0.3840
  319MOL    H7545231   4.322   4.223   3.148 -0.6082  2.7538 -0.5588
  319MOL    H7645232   4.425   4.179   3.270 -1.1755 -0.0833  0.3984
  319MOL    H7745233   4.376   4.473   3.203  2.2303  0.4972  1.5547
  319MOL    H7845234   4.254   4.349   3.426 -0.4901 -2.0010 -0.7468
  319MOL    C7945235   4.453   4.432   3.405 -0.2554 -0.2760  0.2254
  319MOL    C8045236   4.591   4.497   3.377  0.1154 -0.0284 -0.0565
  319MOL    O8145237   4.564   4.620   3.313  0.0789 -0.1304  0.2399
  319MOL    H8245238   4.404   4.505   3.468 -1.1149  0.4330 -1.2381
  319MOL    H8345239   4.479   4.351   3.473  1.6415  0.7124  0.7019
  319MOL    H8445240   4.659   4.439   3.314 -0.7520  0.2239 -1.2623
  319MOL    H8545241   4.506   4.667   3.371  0.7106  0.4804  0.3818
  319MOL    C8645242   4.659   4.518   3.518 -0.0363  0.1208 -0.2346
  319MOL    C8745243   4.808   4.553   3.523  0.4314  0.5204 -0.0266
  319MOL    O8845244   4.835   4.659   3.436 -0.3455 -0.0034 -0.4028
  319MOL    H8945245   4.605   4.590   3.579 -0.1291  1.8924 -2.3561
  319MOL    H9045246   4.654   4.422   3.570 -0.6208 -0.5434 -1.4872
  319MOL    H9145247   4.873   4.470   3.496  2.1863  1.9561 -0.2335
  319MOL    H9245248   4.771   4.644   3.368 -1.0145 -0.9397  0.4216
  319MOL    C9345249   4.842   4.591   3.670 -0.4006  0.0118  0.9484
  319MOL    C9445250   4.999   4.613   3.683 -0.4916  0.6119 -0.1092
  319MOL    O9545251   5.030   4.689   3.800  0.5116  0.1768  0.8209
  319MOL    H9645252   4.775   4.674   3.692  0.1210  0.3527  1.2492
  319MOL    H9745253   4.815   4.506   3.733 -2.6514 -0.1244 -0.1276
  319MOL    H9845254   5.032   4.674   3.599  0.4072 -0.9494 -0.9064
  319MOL    H9945255   4.982   4.647   3.870 -0.7610  0.0804 -0.0898
  319MOL   C10045256   5.067   4.477   3.705 -0.5881  0.2883 -0.5696
  319MOL   C10145257   5.222   4.485   3.698  0.3640  0.4882 -0.5941
  319MOL   O10245258   5.271   4.355   3.719 -0.0707 -0.6824  0.2203
  319MOL   H10345259   5.040   4.432   3.801  1.8562  0.2744  0.1343
  319MOL   H10445260   5.031   4.409   3.627 -1.2326 -0.3184  0.2336
  319MOL   H10545261   5.256   4.549   3.779  1.1233  1.3096 -1.5490
  319MOL   H10645262   5.362   4.359   3.743 -0.1988  1.0882  0.4848
  319MOL   C10745263   5.268   4.539   3.561  0.0521 -1.3201 -1.2025
  319MOL   C10845264   5.418   4.531   3.531  0.2952  0.1297  0.0882
  319MOL   O10945265   5.421   4.577   3.402  0.1431  0.4969 -0.3049
  319MOL   H11045266   5.222   4.465   3.495 -0.1522 -1.2675 -1.1196
  319MOL   H11145267   5.224   4.635   3.534 -1.4535 -1.5499  0.3138
  319MOL   H11245268   5.450   4.426   3.533 -0.8790 -0.2228  3.8739
  319MOL   H11345269   5.467   4.512   3.351 -1.0530  0.7613 -1.7439
  319MOL   C11445270   5.508   4.629   3.614  0.0632  0.5297 -0.2307
  319MOL   C11545271   5.674   4.622   3.596 -0.6269 -0.3118  0.4433
  319MOL   O11645272   5.710   4.493   3.644 -0.1862  0.5319 -0.0573
  319MOL   H11745273   5.481   4.731   3.589 -0.9741  0.6921  1.4871
  319MOL   H11845274   5.482   4.618   3.719 -0.2009 -0.4597 -0.3911
  319MOL   H11945275   5.721   4.695   3.662  1.5052 -1.5758  0.3480
  319MOL   H12045276   5.804   4.483   3.647 -0.2197 -1.0829 -2.4053
  319MOL   C12145277   5.735   4.624   3.453 -0.0635 -0.0541 -0.3760
  319MOL   C12245278   5.722   4.772   3.404  0.1283 -0.3608 -0.1470
  319MOL   O12345279   5.793   4.872   3.476  0.3239  0.2384 -0.1680
  319MOL   H12445280   5.839   4.591   3.465 -0.1258 -0.0815  0.0971
  319MOL   H12545281   5.684   4.551   3.389  1.5031 -3.4769  2.1178
  319MOL   H12645282   5.616   4.794   3.415 -0.4291 -3.1068  0.2756
  319MOL   H12745283   5.744   4.883   3.555  0.7589  3.1126 -0.2417
  319MOL   C12845284   5.774   4.778   3.259  0.0620 -0.2855 -0.3061
  319MOL   C12945285   5.678   4.720   3.150  0.1906  0.3169 -0.8194
  319MOL   O13045286   5.566   4.807   3.142 -0.6464 -0.0903  0.2070
  319MOL   H13145287   5.798   4.880   3.228 -0.2733 -0.2378 -0.4096
  319MOL   H13245288   5.872   4.731   3.251  0.1798 -0.2744  0.9459
  319MOL   H13345289   5.635   4.623   3.172 -0.0143 -0.2100 -3.4152
  319MOL   H13445290   5.525   4.812   3.226 -0.1258 -1.7272  0.5659
  319MOL   C13545291   5.734   4.700   3.012 -0.1130 -0.1109 -0.3912
  319MOL   C13645292   5.858   4.606   3.025  0.2845 -0.1425 -0.1774
  319MOL   O13745293   5.977   4.677   3.013  0.0683 -0.8803  0.4419
  319MOL   H13845294   5.653   4.660   2.950 -2.6365  0.9625  2.0745
  319MOL   H13945295   5.753   4.797   2.968 -0.6364  0.9760  1.7063
  319MOL   H14045296   5.850   4.540   2.938  1.4818  1.6636 -1.7114
  319MOL   H14145297   6.051   4.619   3.015 -0.0543 -1.1945 -2.2971
  319MOL   H14245298   5.851   4.538   3.110 -0.8376  0.9285  0.5972
  320MOL     C145299   7.019   3.261   2.167 -0.5738  0.1776 -0.0804
  320MOL     C245300   7.013   3.210   2.022 -0.0624 -0.0133 -0.3751
  320MOL     O345301   7.142   3.208   1.980  0.1320  0.4527 -1.0244
  320MOL     H445302   6.920   3.286   2.205 -0.2411  0.7874  0.3949
  320MOL     H545303   7.079   3.352   2.170  1.0082 -0.8618  0.3109
  320MOL     H645304   6.955   3.283   1.966  0.1145 -0.4132 -1.0867
  320MOL     H745305   7.173   3.296   1.974 -1.1136  0.8131 -2.5072
  320MOL     H845306   7.051   3.187   2.240 -2.0265  0.7975  1.2156
  320MOL     C945307   6.955   3.068   2.016  0.5240 -0.4616 -0.4468
  320MOL    C1045308   6.807   3.047   2.052 -0.4445  0.4095 -0.0744
  320MOL    O1145309   6.733   3.119   1.956 -0.2670  0.2077  0.0810
  320MOL    H1245310   6.962   3.022   1.917 -1.3070 -1.2788 -0.2141
  320MOL    H1345311   7.013   3.010   2.087  1.0833  0.9933  0.3130
  320MOL    H1445312   6.780   3.100   2.143 -0.4485  1.2048 -0.5297
  320MOL    H1545313   6.746   3.098   1.865  0.0099  0.9861 -0.0675
  320MOL    C1645314   6.770   2.901   2.030 -0.2981  0.0435 -0.4557
  320MOL    C1745315   6.635   2.856   2.101  0.4756  0.4654 -0.0623
  320MOL    O1845316   6.597   2.732   2.051 -0.3158 -0.5822 -0.1351
  320MOL    H1945317   6.767   2.874   1.925 -0.0608 -0.9200 -0.2198
  320MOL    H2045318   6.846   2.835   2.071  0.0148  0.8896  0.3423
  320MOL    H2145319   6.560   2.932   2.081 -0.5631 -0.5946 -0.2529
  320MOL    H2245320   6.558   2.743   1.965  1.7420  0.7079 -0.9457
  320MOL    C2345321   6.660   2.831   2.251 -0.1776  0.0679  1.0037
  320MOL    C2445322   6.536   2.839   2.343  0.4151 -0.6924 -0.3875
  320MOL    O2545323   6.573   2.767   2.463  0.3984 -0.1231  0.4061
  320MOL    H2645324   6.705   2.732   2.263 -1.8016 -0.7036  0.9047
  320MOL    H2745325   6.730   2.905   2.290 -1.9240  1.8363  0.8591
  320MOL    H2845326   6.460   2.786   2.286 -0.5318 -0.1776  0.3845
  320MOL    H2945327   6.578   2.674   2.447 -1.4555 -0.1785  0.0507
  320MOL    C3045328   6.484   2.980   2.366  0.2526 -0.5975 -0.0345
  320MOL    C3145329   6.374   2.987   2.471  0.4852 -0.5329 -0.1377
  320MOL    O3245330   6.333   3.121   2.478 -0.1675  0.2716 -0.3905
  320MOL    H3345331   6.562   3.055   2.382  1.1538 -1.2364 -1.3745
  320MOL    H3445332   6.439   3.017   2.275 -2.1183 -1.4619  0.7383
  320MOL    H3545333   6.420   2.946   2.561 -1.0469 -2.4376 -0.1959
  320MOL    H3645334   6.366   3.161   2.558  0.1915  0.6602 -0.7330
  320MOL    C3745335   6.247   2.920   2.423  0.1139  0.4392 -0.3312
  320MOL    C3845336   6.114   2.940   2.508 -0.0876 -0.1819  0.5664
  320MOL    O3945337   6.009   2.866   2.450  0.2633  0.1618  0.0726
  320MOL    H4045338   6.225   2.963   2.325 -1.1767 -0.3529 -0.3914
  320MOL    H4145339   6.268   2.814   2.409 -0.0139  0.1942  1.2704
  320MOL    H4245340   6.088   3.045   2.498  1.3489  0.1316 -0.0299
  320MOL    H4345341   6.037   2.778   2.429 -1.4986  0.1437 -2.4643
  320MOL    C4445342   6.132   2.912   2.664 -0.3681  0.0504  1.2858
  320MOL    C4545343   6.038   2.982   2.757 -0.4294 -0.1142  0.8596
  320MOL    O4645344   6.058   2.926   2.886  0.3075  0.4287  0.0075
  320MOL    H4745345   6.128   2.806   2.689 -0.5022 -0.3316 -0.2440
  320MOL    H4845346   6.233   2.948   2.682 -0.7385  1.3984  0.7266
  320MOL    H4945347   5.933   2.961   2.739 -0.4455  1.5931 -1.4315
  320MOL    H5045348   6.145   2.952   2.914  0.3347  1.8689 -1.3376
  320MOL    C5145349   6.062   3.133   2.757 -0.4342 -0.3894 -0.3130
  320MOL    C5245350   5.942   3.218   2.693 -0.3591  0.3078  0.6415
  320MOL    O5345351   5.824   3.198   2.765  0.5300  0.1397  0.9778
  320MOL    H5445352   6.066   3.164   2.862 -0.8903  1.3660 -0.7981
  320MOL    H5545353   6.157   3.171   2.718 -0.1611  0.7754  1.4051
  320MOL    H5645354   5.938   3.172   2.594 -1.2816 -1.3920  1.4460
  320MOL    H5745355   5.839   3.137   2.836 -0.9027 -1.2487  0.1192
  320MOL    C5845356   5.976   3.367   2.674 -0.2735 -0.8024 -0.6648
  320MOL    C5945357   5.914   3.439   2.549  0.2145 -0.4483  0.0600
  320MOL    O6045358   5.914   3.586   2.566  0.0489  0.3178 -0.3845
  320MOL    H6145359   5.943   3.427   2.758 -0.4283 -0.1512 -1.1858
  320MOL    H6245360   6.085   3.368   2.673 -0.2580  0.0532 -3.2606
  320MOL    H6345361   5.806   3.420   2.548 -0.2968  2.2335  0.5293
  320MOL    H6445362   6.004   3.615   2.566  1.0684 -2.6224 -0.1160
  320MOL    C6545363   5.985   3.403   2.419 -0.4590  0.3272  0.2570
  320MOL    C6645364   5.929   3.460   2.291 -0.0113 -0.2051  0.5707
  320MOL    O6745365   6.015   3.463   2.176  0.1647 -0.4020 -0.0737
  320MOL    H6845366   6.091   3.428   2.429 -0.3302 -0.1570  0.1063
  320MOL    H6945367   5.984   3.294   2.406  0.4832  0.3808 -0.2496
  320MOL    H7045368   5.887   3.559   2.305 -1.1578 -0.7115  0.7755
  320MOL    H7145369   5.957   3.481   2.104 -1.0061 -4.0915 -0.1509
  320MOL    C7245370   5.809   3.370   2.233 -0.4754 -0.2817 -0.9159
  320MOL    C7345371   5.712   3.458   2.153 -0.1825 -0.1179  0.3645
  320MOL    O7445372   5.779   3.494   2.029 -0.3420 -0.8009  0.1184
  320MOL    H7545373   5.831   3.270   2.196  0.3163 -0.2630 -0.5309
  320MOL    H7645374   5.757   3.351   2.327 -2.0574  2.9429 -1.0577
  320MOL    H7745375   5.692   3.551   2.207 -0.2985 -0.4348  0.8763
  320MOL    H7845376   5.795   3.587   2.032 -0.8399 -0.6617 -1.2567
  320MOL    C7945377   5.578   3.397   2.104 -0.5994  0.1439 -0.1646
  320MOL    C8045378   5.496   3.310   2.203 -0.0739  0.2897  0.4131
  320MOL    O8145379   5.362   3.360   2.216 -0.3877 -0.0503 -0.0192
  320MOL    H8245380   5.506   3.469   2.064 -0.5605  0.0243 -0.4555
  320MOL    H8345381   5.603   3.336   2.017  0.9096  0.9491 -0.3109
  320MOL    H8445382   5.542   3.308   2.302 -2.2167 -2.0547  1.4192
  320MOL    H8545383   5.312   3.325   2.144 -1.3639 -0.0345  0.6353
  320MOL    C8645384   5.470   3.162   2.162 -0.4893  0.9444 -0.1576
  320MOL    C8745385   5.596   3.065   2.139  0.2648  0.5620 -0.1003
  320MOL    O8845386   5.653   3.038   2.265  0.3177  0.0505  0.0472
  320MOL    H8945387   5.399   3.111   2.226 -0.1514  0.5473 -0.0965
  320MOL    H9045388   5.413   3.158   2.069 -3.0235  0.7982  1.3510
  320MOL    H9145389   5.669   3.118   2.079  0.8099  0.6753  0.6549
  320MOL    H9245390   5.744   3.019   2.249  0.0985 -0.3753 -0.7585
  320MOL    C9345391   5.551   2.938   2.060 -0.0191  0.3020 -0.2802
  320MOL    C9445392   5.531   2.968   1.910 -0.1380 -0.5309  0.5198
  320MOL    O9545393   5.648   3.006   1.847 -0.2714  0.3972  0.1095
  320MOL    H9645394   5.635   2.869   2.067  0.9703  1.5270  0.1289
  320MOL    H9745395   5.459   2.903   2.108 -0.7017 -0.1059 -1.8711
  320MOL    H9845396   5.462   3.051   1.898 -0.0038 -0.6678 -1.4368
  320MOL    H9945397   5.658   2.968   1.761 -1.7917 -0.2786  0.2265
  320MOL   C10045398   5.481   2.843   1.837 -0.2784  0.0909  1.0146
  320MOL   C10145399   5.469   2.860   1.684 -0.3940 -0.1170  0.2999
  320MOL   O10245400   5.603   2.847   1.632  0.0925 -0.0682  0.3649
  320MOL   H10345401   5.548   2.758   1.853  2.0416  1.7776  0.4826
  320MOL   H10445402   5.392   2.811   1.893 -1.2120  1.3703  0.2767
  320MOL   H10545403   5.439   2.959   1.649 -0.4035 -0.4276 -0.5815
  320MOL   H10645404   5.603   2.880   1.544  0.0620  1.5778  0.9596
  320MOL   C10745405   5.402   2.747   1.606  0.6476 -0.3255 -0.2793
  320MOL   C10845406   5.264   2.715   1.646 -0.2220  0.2967  0.0320
  320MOL   O10945407   5.173   2.818   1.622 -0.1448  0.3242  1.0186
  320MOL   H11045408   5.391   2.759   1.498  0.9173  2.1680 -0.0644
  320MOL   H11145409   5.462   2.657   1.613 -1.4751 -2.1041 -3.5294
  320MOL   H11245410   5.266   2.695   1.753  1.1588  1.0677  0.1726
  320MOL   H11345411   5.084   2.787   1.632  0.9188 -2.5214  2.0249
  320MOL   C11445412   5.209   2.593   1.570 -0.0566  0.7779  0.0782
  320MOL   C11545413   5.083   2.532   1.628 -0.9874 -0.2906 -0.2277
  320MOL   O11645414   4.985   2.625   1.614  0.4230 -0.0129  0.2307
  320MOL   H11745415   5.201   2.603   1.462  1.8621  1.3552 -0.0274
  320MOL   H11845416   5.280   2.510   1.574  0.9384  1.6318  0.2824
  320MOL   H11945417   5.083   2.526   1.737 -0.8491  2.1977 -0.0474
  320MOL   H12045418   4.958   2.599   1.527 -0.9213  0.4725  0.4924
  320MOL   C12145419   5.042   2.410   1.539 -0.6964  0.1290 -0.6240
  320MOL   C12245420   5.102   2.273   1.581  0.7217  0.0687  0.2249
  320MOL   O12345421   4.997   2.223   1.666  0.0829  0.3102  0.4540
  320MOL   H12445422   4.934   2.393   1.534 -0.4280 -1.5369 -1.0536
  320MOL   H12545423   5.071   2.424   1.435  0.2494 -2.0240 -0.6661
  320MOL   H12645424   5.192   2.305   1.633  1.3616 -0.9813 -0.2175
  320MOL   H12745425   5.026   2.247   1.753 -1.9354  1.6100  0.7786
  320MOL   C12845426   5.122   2.179   1.457 -0.7303 -0.3865  0.0115
  320MOL   C12945427   5.238   2.220   1.363 -0.0174  0.0244 -0.1919
  320MOL   O13045428   5.355   2.238   1.440 -0.0113  0.4649  0.4575
  320MOL   H13145429   5.137   2.077   1.492  0.6275 -0.0169  0.5071
  320MOL   H13245430   5.023   2.175   1.411 -0.9522 -1.7457  0.5970
  320MOL   H13345431   5.223   2.322   1.326 -1.7456  0.0693  0.5957
  320MOL   H13445432   5.369   2.159   1.490 -0.2887  0.7415  0.9685
  320MOL   C13545433   5.265   2.128   1.246  0.0390 -0.4073 -0.3568
  320MOL   C13645434   5.161   2.144   1.131  0.0195  0.7010  0.2206
  320MOL   O13745435   5.196   2.069   1.018  0.2697 -0.2265  0.2054
  320MOL   H13845436   5.364   2.145   1.204  0.9358 -1.3257  1.3266
  320MOL   H13945437   5.269   2.025   1.283  0.6378 -0.9014 -1.7594
  320MOL   H14045438   5.151   2.249   1.103  1.3303  0.8303  0.2088
  320MOL   H14145439   5.251   2.128   0.968 -1.1479  0.5944 -0.3888
  320MOL   H14245440   5.070   2.116   1.183  0.7532 -1.1737  0.5301
  321MOL     C145441   6.168   3.173   6.609  0.5542 -0.7054 -0.5483
  321MOL     C245442   6.191   3.233   6.474  0.4917 -0.1821  0.4312
  321MOL     O345443   6.242   3.359   6.491  0.4055 -0.0219 -0.0759
  321MOL     H445444   6.078   3.111   6.609 -0.6231  0.9892 -2.5252
  321MOL     H545445   6.158   3.241   6.694 -2.6186 -1.3272 -0.3818
  321MOL     H645446   6.098   3.267   6.429  1.7053  1.6286 -0.8021
  321MOL     H745447   6.288   3.388   6.413 -0.4584  0.9520 -0.2384
  321MOL     H845448   6.253   3.110   6.638 -0.0521 -1.5785 -0.6237
  321MOL     C945449   6.257   3.144   6.375 -0.5800  0.2287 -0.7564
  321MOL    C1045450   6.183   3.011   6.340 -0.4766 -0.0859 -0.1302
  321MOL    O1145451   6.073   3.030   6.256 -0.2246 -0.0248  0.9782
  321MOL    H1245452   6.272   3.201   6.283 -1.1674 -0.2836 -1.1745
  321MOL    H1345453   6.355   3.121   6.416 -0.9077 -0.2113 -0.2075
  321MOL    H1445454   6.141   2.969   6.431  1.9993  0.0670  1.1175
  321MOL    H1545455   6.042   2.944   6.233 -0.3155  0.9912 -3.1462
  321MOL    C1645456   6.267   2.907   6.271  0.0869 -0.2858 -0.4478
  321MOL    C1745457   6.389   2.848   6.349  0.5352 -0.2572  0.5904
  321MOL    O1845458   6.339   2.813   6.477 -0.1133  0.0798 -0.1473
  321MOL    H1945459   6.198   2.824   6.259  1.4223 -1.8722  2.4061
  321MOL    H2045460   6.304   2.926   6.170 -0.0608  2.0553 -0.0837
  321MOL    H2145461   6.457   2.929   6.376 -0.4502  1.3732 -1.6832
  321MOL    H2245462   6.268   2.749   6.480  0.7501 -0.8689  0.4058
  321MOL    C2345463   6.454   2.725   6.293 -0.2647 -0.4970 -0.6398
  321MOL    C2445464   6.442   2.702   6.144 -0.1003 -0.1007 -0.3772
  321MOL    O2545465   6.523   2.793   6.074 -0.0892 -0.3919 -0.6980
  321MOL    H2645466   6.559   2.735   6.318 -0.0234 -2.2399 -0.8945
  321MOL    H2745467   6.426   2.637   6.351  1.2742 -1.1414 -0.8522
  321MOL    H2845468   6.338   2.711   6.115 -0.4155  1.2761  1.1326
  321MOL    H2945469   6.520   2.886   6.092  0.4513 -0.1124 -1.9885
  321MOL    C3045470   6.477   2.552   6.110 -0.5288 -0.2875  0.1660
  321MOL    C3145471   6.350   2.456   6.123 -0.7222  0.7571 -0.6031
  321MOL    O3245472   6.280   2.475   6.001 -0.4042 -0.1675  0.0920
  321MOL    H3345473   6.515   2.553   6.008  1.2639 -0.7983  0.8119
  321MOL    H3445474   6.559   2.522   6.175 -0.2093  0.0549 -0.0728
  321MOL    H3545475   6.300   2.493   6.213 -0.6441  0.9745 -0.6483
  321MOL    H3645476   6.337   2.465   5.926 -1.2644 -1.9066 -0.3341
  321MOL    C3745477   6.382   2.306   6.142 -0.1762 -0.1400 -0.3958
  321MOL    C3845478   6.424   2.245   6.283  0.1279 -0.3452  0.1960
  321MOL    O3945479   6.332   2.294   6.382 -0.2415 -0.4378  0.5838
  321MOL    H4045480   6.302   2.241   6.108  0.6017 -1.8214  0.9256
  321MOL    H4145481   6.455   2.280   6.065  1.3842  0.7718  0.7442
  321MOL    H4245482   6.514   2.299   6.312  0.0874  0.5883 -1.3329
  321MOL    H4345483   6.378   2.295   6.464 -0.0598  1.0713  0.4801
  321MOL    C4445484   6.461   2.098   6.276  0.7236  0.1394 -0.3147
  321MOL    C4545485   6.516   2.029   6.397 -0.1574  0.3791  0.4081
  321MOL    O4645486   6.503   1.883   6.376 -0.1641  0.2416 -0.0446
  321MOL    H4745487   6.367   2.046   6.254  0.5621  0.5626 -0.6353
  321MOL    H4845488   6.532   2.083   6.194 -0.0591  0.5203 -1.0779
  321MOL    H4945489   6.454   2.053   6.483 -0.9049 -0.4946  0.1270
  321MOL    H5045490   6.415   1.866   6.346 -0.6607  0.2927  1.3396
  321MOL    C5145491   6.660   2.075   6.439  0.1452  0.1241 -0.0952
  321MOL    C5245492   6.776   2.015   6.352 -0.0714  0.3041 -0.1935
  321MOL    O5345493   6.862   2.124   6.312 -0.4007 -0.3735  0.0178
  321MOL    H5445494   6.658   2.184   6.446  0.1645  0.1322 -0.2144
  321MOL    H5545495   6.671   2.049   6.545  2.7235  1.7146  0.0821
  321MOL    H5645496   6.738   1.985   6.255  1.2915 -1.8254 -0.0961
  321MOL    H5745497   6.950   2.091   6.300 -1.1513 -2.4650  0.2485
  321MOL    C5845498   6.871   1.917   6.430  0.0932  0.3958  0.4721
  321MOL    C5945499   6.823   1.776   6.452 -0.0045 -0.4519 -0.2259
  321MOL    O6045500   6.933   1.690   6.456  0.0889 -0.1189 -0.6062
  321MOL    H6145501   6.957   1.909   6.364 -0.2463  0.1417  0.0515
  321MOL    H6245502   6.901   1.964   6.523 -0.5074 -0.0238  0.8794
  321MOL    H6345503   6.756   1.736   6.376 -1.3362 -0.6782  1.0468
  321MOL    H6445504   6.903   1.600   6.464  0.5503 -0.4407 -2.2714
  321MOL    C6545505   6.746   1.771   6.579  0.4384  0.1112  0.4925
  321MOL    C6645506   6.655   1.642   6.593 -0.3257  0.6483 -0.3597
  321MOL    O6745507   6.738   1.530   6.599 -0.0638 -0.6604 -0.2164
  321MOL    H6845508   6.817   1.779   6.662  1.2804 -1.1294 -0.0966
  321MOL    H6945509   6.678   1.854   6.598 -1.9846 -1.6444 -0.2944
  321MOL    H7045510   6.594   1.633   6.503 -0.6974 -1.3978  0.0743
  321MOL    H7145511   6.791   1.528   6.677 -0.7789 -0.1778  0.2933
  321MOL    C7245512   6.562   1.637   6.719  0.3496 -0.2665  0.2308
  321MOL    C7345513   6.456   1.756   6.732 -0.0168  0.1177  0.2856
  321MOL    O7445514   6.374   1.761   6.619  0.1693 -0.1864 -0.1436
  321MOL    H7545515   6.514   1.539   6.718 -0.3313  0.0677 -0.1714
  321MOL    H7645516   6.621   1.637   6.811  0.0740 -0.4817  0.4094
  321MOL    H7745517   6.520   1.841   6.757  1.6784 -1.1341  0.2743
  321MOL    H7845518   6.426   1.782   6.543 -0.2945 -0.9045 -0.6719
  321MOL    C7945519   6.356   1.733   6.841  0.9605  0.6705 -0.4890
  321MOL    C8045520   6.291   1.864   6.891  0.1503 -0.9041 -0.5216
  321MOL    O8145521   6.167   1.832   6.942  0.2650  0.8906 -0.2376
  321MOL    H8245522   6.287   1.653   6.812 -1.2209  2.2783  0.1351
  321MOL    H8345523   6.407   1.685   6.925 -0.3379  0.0178 -0.0675
  321MOL    H8445524   6.279   1.924   6.801 -0.0631 -1.7140 -1.0419
  321MOL    H8545525   6.169   1.842   7.036 -1.2077 -1.0692  0.0301
  321MOL    C8645526   6.384   1.936   6.997  0.1135  0.0600 -0.0642
  321MOL    C8745527   6.336   2.071   7.056  0.1635  0.0590  0.5348
  321MOL    O8845528   6.396   2.089   7.182 -0.1452 -0.5548  0.1869
  321MOL    H8945529   6.412   1.872   7.080  0.6969  0.7106  0.2356
  321MOL    H9045530   6.480   1.966   6.955 -0.6451  2.7967  0.0447
  321MOL    H9145531   6.230   2.065   7.080 -0.0255 -2.3426 -0.7128
  321MOL    H9245532   6.476   2.039   7.190  1.3112  1.7132 -0.0246
  321MOL    C9345533   6.373   2.191   6.975 -0.0997  0.5226  0.5866
  321MOL    C9445534   6.325   2.206   6.832 -0.2502  0.2550 -0.9329
  321MOL    O9545535   6.186   2.177   6.843 -0.3592 -0.4071  0.7198
  321MOL    H9645536   6.341   2.280   7.029 -2.6094 -1.4343  2.4680
  321MOL    H9745537   6.480   2.210   6.972 -0.4369  2.5677  0.5591
  321MOL    H9845538   6.361   2.127   6.767 -2.0471 -0.8900 -0.5595
  321MOL    H9945539   6.152   2.137   6.764  0.0235 -0.7062  0.7081
  321MOL   C10045540   6.344   2.346   6.781  0.5362  0.1501  0.3062
  321MOL   C10145541   6.488   2.366   6.730  0.5143 -0.2786  0.2973
  321MOL   O10245542   6.508   2.285   6.615  0.4638  0.3119 -0.4779
  321MOL   H10345543   6.277   2.373   6.700 -0.4895  0.9814  1.4115
  321MOL   H10445544   6.309   2.411   6.862 -1.5069 -1.5083  0.8179
  321MOL   H10545545   6.556   2.351   6.814  0.2585  1.5278  0.8400
  321MOL   H10645546   6.593   2.310   6.581  1.0797 -1.0919 -0.0346
  321MOL   C10745547   6.492   2.506   6.689 -0.0983 -0.4110 -0.3291
  321MOL   C10845548   6.631   2.571   6.657  0.2715  0.5224 -0.1301
  321MOL   O10945549   6.660   2.512   6.530 -0.2308 -0.2171  0.0390
  321MOL   H11045550   6.426   2.528   6.604 -1.5672  1.3218  1.2142
  321MOL   H11145551   6.465   2.566   6.776 -0.4850  1.7042 -1.8630
  321MOL   H11245552   6.704   2.541   6.733 -1.6860 -0.2911  1.4567
  321MOL   H11345553   6.600   2.557   6.472 -0.9417  0.4295  1.2649
  321MOL   C11445554   6.644   2.720   6.627 -0.0852  0.5838 -0.5469
  321MOL   C11545555   6.607   2.815   6.745 -0.4763  0.3321 -0.5391
  321MOL   O11645556   6.678   2.782   6.858 -0.6285  0.1501 -0.2177
  321MOL   H11745557   6.745   2.746   6.593 -0.4818  2.5438 -0.2887
  321MOL   H11845558   6.581   2.739   6.540 -0.1416  3.2052  0.0195
  321MOL   H11945559   6.502   2.800   6.771 -0.4109 -0.5905 -0.8070
  321MOL   H12045560   6.683   2.864   6.904  0.8193 -1.0339  1.7903
  321MOL   C12145561   6.638   2.964   6.710 -0.2475 -0.1521  0.1361
  321MOL   C12245562   6.596   3.081   6.816  0.1031 -0.3062  0.2412
  321MOL   O12345563   6.645   3.043   6.941 -0.7508  0.6770  0.4346
  321MOL   H12445564   6.744   2.982   6.695 -1.0886  4.2398 -1.1319
  321MOL   H12545565   6.585   2.981   6.616 -0.3146  1.5704  0.4802
  321MOL   H12645566   6.489   3.089   6.833 -0.0169  1.0920 -1.0603
  321MOL   H12745567   6.611   3.097   7.010  0.7818  0.3812  1.4371
  321MOL   C12845568   6.651   3.224   6.784 -0.4323  0.4547  0.2429
  321MOL   C12945569   6.559   3.298   6.676 -0.0329 -0.2598 -0.9700
  321MOL   O13045570   6.433   3.326   6.732  0.3470 -0.1147  0.1188
  321MOL   H13145571   6.662   3.281   6.877  0.4586 -1.9959  1.6848
  321MOL   H13245572   6.753   3.220   6.744 -0.1969  0.3651  0.8421
  321MOL   H13345573   6.557   3.243   6.582  1.6241 -0.7059 -0.7646
  321MOL   H13445574   6.368   3.349   6.668 -1.1592 -0.3728  1.4976
  321MOL   C13545575   6.621   3.437   6.660  0.0657 -0.1846  0.0610
  321MOL   C13645576   6.546   3.525   6.573 -0.5957  0.4759  0.5924
  321MOL   O13745577   6.617   3.640   6.548 -0.2584  0.1393  0.2619
  321MOL   H13845578   6.632   3.488   6.755 -0.7219  0.1911 -0.0378
  321MOL   H13945579   6.717   3.414   6.614  0.2097 -1.1596  0.8470
  321MOL   H14045580   6.452   3.554   6.621 -1.0720  0.5101 -0.3455
  321MOL   H14145581   6.548   3.704   6.545 -0.1506  0.2087 -1.2163
  321MOL   H14245582   6.529   3.480   6.475 -5.8354  1.0080  1.0792
  322MOL     C145583   7.429   4.992   1.726  0.0029  1.0121 -0.4230
  322MOL     C245584   0.050   4.969   1.655 -0.3231 -0.4871  0.1493
  322MOL     O345585   0.036   5.021   1.519 -0.3747  0.1661  0.1520
  322MOL     H445586   7.431   4.953   1.828  1.9693 -1.0499 -1.2078
  322MOL     H545587   7.354   4.939   1.668  0.3407  0.3042 -0.2122
  322MOL     H645588   0.077   4.865   1.666 -2.0568 -0.9728  0.0212
  322MOL     H745589   7.516   5.107   1.523  0.1841  0.5129 -1.4445
  322MOL     H845590   7.402   5.098   1.727 -0.8795  0.8036 -1.5065
  322MOL     C945591   0.156   5.054   1.728  0.0428  0.1067  0.6590
  322MOL    C1045592   0.299   5.058   1.675 -0.6986 -0.6234 -0.1158
  322MOL    O1145593   0.385   5.130   1.766  0.3373 -0.4182 -0.1060
  322MOL    H1245594   0.114   5.154   1.741  0.2096 -0.0227  2.3166
  322MOL    H1345595   0.173   5.016   1.828 -0.7195  0.6585  1.0043
  322MOL    H1445596   0.303   5.111   1.580  0.4887 -0.1165  0.2053
  322MOL    H1545597   0.378   5.096   1.854 -2.2698 -1.0338 -0.5064
  322MOL    C1645598   0.357   4.913   1.660 -0.0908  0.0602 -1.2212
  322MOL    C1745599   0.491   4.904   1.592  0.5774  0.2242 -0.2462
  322MOL    O1845600   0.585   4.971   1.666 -0.6857  0.0402 -0.3785
  322MOL    H1945601   0.340   4.849   1.747  1.6003  1.7780  0.4222
  322MOL    H2045602   0.296   4.871   1.579  2.8026 -0.5578 -3.1415
  322MOL    H2145603   0.482   4.939   1.489  0.1140  0.6548 -0.0570
  322MOL    H2245604   0.541   5.018   1.735  1.5984 -0.6525  1.6114
  322MOL    C2345605   0.544   4.757   1.588 -0.3998 -0.0957 -0.1456
  322MOL    C2445606   0.679   4.736   1.521 -0.3829  0.4305  0.0658
  322MOL    O2545607   0.723   4.607   1.555 -0.0105  0.3549 -0.5422
  322MOL    H2645608   0.545   4.705   1.683 -1.3993 -0.8053 -0.5143
  322MOL    H2745609   0.473   4.697   1.531 -1.1861 -1.1926  1.9338
  322MOL    H2845610   0.748   4.809   1.564  0.7531 -0.5308 -0.0985
  322MOL    H2945611   0.645   4.554   1.548  0.6861 -0.7308 -0.1844
  322MOL    C3045612   0.666   4.751   1.370  0.0577 -0.0307  0.8214
  322MOL    C3145613   0.801   4.812   1.311 -0.4082  0.4426  0.6780
  322MOL    O3245614   0.819   4.948   1.359 -0.2827 -0.2128 -0.3419
  322MOL    H3345615   0.657   4.651   1.327 -1.2584  0.8684 -1.0323
  322MOL    H3445616   0.580   4.813   1.346  0.1121 -0.2468  0.0603
  322MOL    H3545617   0.770   4.825   1.207 -0.7629  2.9925  1.0874
  322MOL    H3645618   0.731   4.983   1.358  0.0393  0.9227  3.9518
  322MOL    C3745619   0.927   4.729   1.315  0.0767  0.4077  0.1123
  322MOL    C3845620   1.045   4.799   1.233 -0.0685  0.4320 -0.4705
  322MOL    O3945621   1.099   4.895   1.320  0.1267  0.0638  0.1031
  322MOL    H4045622   0.964   4.699   1.413 -0.1925  1.1541  0.4479
  322MOL    H4145623   0.902   4.630   1.277 -1.4792  0.0008  2.1533
  322MOL    H4245624   1.000   4.845   1.145  0.0414 -0.1015 -0.8086
  322MOL    H4345625   1.023   4.932   1.361  0.1726  1.9456 -1.4120
  322MOL    C4445626   1.147   4.709   1.187 -0.1335 -0.2688 -0.0537
  322MOL    C4545627   1.247   4.769   1.081  0.3276 -0.7116  0.6493
  322MOL    O4645628   1.362   4.694   1.077 -0.4310  0.0269 -0.6000
  322MOL    H4745629   1.219   4.674   1.262  1.3744  0.3440 -1.1874
  322MOL    H4845630   1.099   4.615   1.160  0.3560  0.3471 -3.1890
  322MOL    H4945631   1.277   4.870   1.110  1.2613 -0.3586 -1.4371
  322MOL    H5045632   1.419   4.728   1.144 -1.3434  0.8470 -0.2263
  322MOL    C5145633   1.190   4.775   0.935 -0.3237 -0.2060  0.0677
  322MOL    C5245634   1.231   4.892   0.847 -0.6907  0.0232  0.2974
  322MOL    O5345635   1.209   4.845   0.718  0.4178  0.1616 -0.3792
  322MOL    H5445636   1.231   4.688   0.885  1.5210  1.6482 -1.7370
  322MOL    H5545637   1.082   4.767   0.945 -0.0663 -1.1182  2.5294
  322MOL    H5645638   1.339   4.904   0.862 -0.6866 -1.2036  1.2423
  322MOL    H5745639   1.287   4.797   0.695 -0.4651 -1.6493  0.3455
  322MOL    C5845640   1.138   5.013   0.879 -0.0881 -0.0711 -0.4725
  322MOL    C5945641   1.181   5.131   0.790 -0.5261  0.8005  0.3373
  322MOL    O6045642   1.077   5.144   0.692 -0.2973 -0.0008  0.4955
  322MOL    H6145643   1.032   4.992   0.871 -0.3952  0.8083  1.0896
  322MOL    H6245644   1.151   5.051   0.981  2.3912 -0.5416 -0.5664
  322MOL    H6345645   1.266   5.100   0.728  0.1399  1.8071  0.7293
  322MOL    H6445646   1.106   5.187   0.614 -2.3648 -2.8386 -1.9469
  322MOL    C6545647   1.211   5.268   0.860 -0.3733 -0.4944  0.1386
  322MOL    C6645648   1.346   5.280   0.932  0.0626  0.0593 -0.1105
  322MOL    O6745649   1.346   5.206   1.058  0.1841  0.1786  0.8810
  322MOL    H6845650   1.214   5.344   0.782 -2.4536 -1.2245 -0.6889
  322MOL    H6945651   1.130   5.296   0.928  1.1073 -0.2159  1.8188
  322MOL    H7045652   1.356   5.382   0.971  1.6601 -1.0575  2.5082
  322MOL    H7145653   1.317   5.259   1.131 -1.7838 -1.0132  0.9895
  322MOL    C7245654   1.467   5.251   0.836  0.3121  0.3335 -0.5526
  322MOL    C7345655   1.587   5.303   0.906  0.0958  0.5585 -0.1055
  322MOL    O7445656   1.690   5.211   0.871 -0.1684  0.6076 -0.1557
  322MOL    H7545657   1.473   5.145   0.813  1.1861  0.1287  0.5774
  322MOL    H7645658   1.455   5.302   0.740  0.8611 -1.7553 -1.7498
  322MOL    H7745659   1.569   5.306   1.013  0.5712 -0.0497 -0.0019
  322MOL    H7845660   1.775   5.243   0.898 -1.0788  2.4108  0.7303
  322MOL    C7945661   1.626   5.451   0.867  0.7247  0.1704  0.2649
  322MOL    C8045662   1.744   5.513   0.937  0.0740  0.5450  0.0963
  322MOL    O8145663   1.850   5.449   0.858  0.4705  0.0771  0.1155
  322MOL    H8245664   1.620   5.473   0.760 -4.6333 -0.6736  0.2150
  322MOL    H8345665   1.535   5.505   0.891 -1.0139 -3.4326  2.3251
  322MOL    H8445666   1.734   5.478   1.040  0.0332 -0.9848 -0.4071
  322MOL    H8545667   1.838   5.459   0.765  0.0934 -0.5125  0.0954
  322MOL    C8645668   1.743   5.668   0.929  0.2324  0.0555  0.2949
  322MOL    C8745669   1.864   5.729   1.002  0.4133 -0.6120  0.3561
  322MOL    O8845670   1.851   5.876   0.990  0.2899  0.4076  0.5665
  322MOL    H8945671   1.736   5.701   0.826 -0.8576 -1.0335  0.0065
  322MOL    H9045672   1.654   5.701   0.982 -0.9697  0.0615 -1.6850
  322MOL    H9145673   1.962   5.700   0.965  0.5373 -3.6411  2.8961
  322MOL    H9245674   1.833   5.906   0.902 -1.7344  0.3170  0.9200
  322MOL    C9345675   1.867   5.703   1.155  0.3170  0.0182  0.2037
  322MOL    C9445676   1.740   5.759   1.232 -0.0736  0.5152 -0.3412
  322MOL    O9545677   1.630   5.670   1.218  0.5314  0.1811  0.1554
  322MOL    H9645678   1.879   5.599   1.186  2.0393 -0.1093 -0.7955
  322MOL    H9745679   1.958   5.750   1.194  0.9027 -0.4945 -0.5269
  322MOL    H9845680   1.715   5.858   1.195  0.7756  0.7399 -0.3446
  322MOL    H9945681   1.652   5.594   1.270  1.0253 -0.7203 -1.3468
  322MOL   C10045682   1.766   5.786   1.385  0.2284 -0.0073 -0.4594
  322MOL   C10145683   1.854   5.906   1.421  0.0821  0.2492 -0.1356
  322MOL   O10245684   1.799   6.036   1.391 -0.0311 -0.2993  0.5207
  322MOL   H10345685   1.667   5.806   1.426  0.9087  3.0723 -0.1620
  322MOL   H10445686   1.800   5.692   1.428 -0.9076 -1.9556 -3.6364
  322MOL   H10545687   1.955   5.897   1.380 -0.2020  1.2005 -1.0645
  322MOL   H10645688   1.820   6.056   1.301 -0.7958 -1.2669  0.1234
  322MOL   C10745689   1.869   5.911   1.567  0.0031  0.5866  0.0213
  322MOL   C10845690   1.966   6.032   1.611 -0.0344 -0.2709 -0.6696
  322MOL   O10945691   1.954   6.071   1.750  0.9719 -0.4470  0.7142
  322MOL   H11045692   1.775   5.933   1.617 -0.6563 -1.4023 -0.3381
  322MOL   H11145693   1.899   5.816   1.611 -1.3874 -0.3816 -1.1193
  322MOL   H11245694   1.930   6.127   1.569  0.1660  0.8469  1.5831
  322MOL   H11345695   2.017   6.141   1.762 -0.2321  0.8539 -0.3384
  322MOL   C11445696   2.120   6.021   1.588  0.0053  0.7244 -0.4549
  322MOL   C11545697   2.172   5.882   1.631 -0.7226 -0.3243  0.1993
  322MOL   O11645698   2.303   5.871   1.580 -0.1482  0.2639 -0.1833
  322MOL   H11745699   2.141   6.043   1.484 -0.1263 -1.0349 -0.8743
  322MOL   H11845700   2.164   6.100   1.649  0.9189 -2.0084  2.5643
  322MOL   H11945701   2.109   5.807   1.582 -0.2912 -0.2615 -0.4631
  322MOL   H12045702   2.361   5.886   1.654 -0.3315  0.6208 -0.1111
  322MOL   C12145703   2.177   5.855   1.785  0.3205 -0.1526  0.0224
  322MOL   C12245704   2.215   5.713   1.829 -0.4437 -0.1401  0.4354
  322MOL   O12345705   2.257   5.719   1.962  0.4861 -0.1079 -0.4630
  322MOL   H12445706   2.252   5.922   1.827  1.5093 -0.2823 -1.8483
  322MOL   H12545707   2.078   5.871   1.828 -0.6420 -1.8246 -1.4686
  322MOL   H12645708   2.295   5.693   1.759 -0.9764 -1.0140  0.0757
  322MOL   H12745709   2.320   5.652   1.984 -0.5269 -0.5340  1.2418
  322MOL   C12845710   2.094   5.618   1.800 -0.8139 -0.0945 -0.3121
  322MOL   C12945711   2.143   5.489   1.731 -0.3963 -0.2389  0.0945
  322MOL   O13045712   2.047   5.389   1.764  0.4842 -0.5397  0.2031
  322MOL   H13145713   2.038   5.589   1.889 -0.9363  0.8242 -0.0814
  322MOL   H13245714   2.018   5.676   1.747  0.1546  3.4195  1.9475
  322MOL   H13345715   2.236   5.456   1.778 -0.9238  0.2774  1.5248
  322MOL   H13445716   2.086   5.340   1.835 -0.2365  0.3724  1.2383
  322MOL   C13545717   2.167   5.485   1.575 -0.1812  0.8983 -0.2579
  322MOL   C13645718   2.042   5.513   1.491  0.0580 -0.2882  0.3343
  322MOL   O13745719   2.074   5.507   1.351  0.6683  0.5031  0.3754
  322MOL   H13845720   2.231   5.571   1.555  0.0421  0.4924 -1.3323
  322MOL   H13945721   2.209   5.388   1.547 -0.5698  0.6862 -0.1153
  322MOL   H14045722   1.995   5.610   1.508  3.0067  1.2491 -0.0257
  322MOL   H14145723   2.130   5.583   1.354  0.5165  0.6125  0.4487
  322MOL   H14245724   1.964   5.440   1.511 -1.1273  0.7718 -0.3037
  323MOL     C145725   3.736   6.290   2.434  0.2780 -0.3198 -0.7358
  323MOL     C245726   3.754   6.298   2.585  0.4919  0.6223  0.5899
  323MOL     O345727   3.817   6.420   2.614 -0.1124  0.3581  0.5545
  323MOL     H445728   3.674   6.366   2.386  0.1621  0.5248  0.7327
  323MOL     H545729   3.699   6.189   2.415  2.4784 -1.0234 -1.3781
  323MOL     H645730   3.826   6.227   2.627 -1.0418 -0.3629  1.6167
  323MOL     H745731   3.756   6.492   2.612 -1.1811 -0.5175  1.2315
  323MOL     H845732   3.836   6.296   2.390  0.9211 -1.0094  0.6014
  323MOL     C945733   3.617   6.269   2.667 -0.5606  0.3677 -1.0551
  323MOL    C1045734   3.647   6.239   2.812 -0.0559  0.3227  0.1992
  323MOL    O1145735   3.527   6.242   2.890 -0.0881 -0.3128  0.3755
  323MOL    H1245736   3.559   6.362   2.669 -1.4096 -0.1708  0.9761
  323MOL    H1345737   3.551   6.194   2.623 -2.9663  0.9407  1.4143
  323MOL    H1445738   3.714   6.317   2.848 -0.1205 -0.2753  1.6575
  323MOL    H1545739   3.501   6.332   2.903  2.1495  0.1718  1.8862
  323MOL    C1645740   3.723   6.105   2.827 -0.0016  0.5034  0.5035
  323MOL    C1745741   3.683   5.973   2.751 -0.4431 -0.6912 -0.1873
  323MOL    O1845742   3.791   5.885   2.771  0.1332  0.1925 -0.3268
  323MOL    H1945743   3.829   6.124   2.815  0.1842 -0.4345  0.5735
  323MOL    H2045744   3.715   6.068   2.929 -0.3061 -0.7700  0.0373
  323MOL    H2145745   3.674   5.992   2.644 -0.6738  0.9763  0.1233
  323MOL    H2245746   3.869   5.920   2.731  0.8527  0.3201  1.1549
  323MOL    C2345747   3.551   5.903   2.794 -0.0274 -0.1755  0.0260
  323MOL    C2445748   3.511   5.783   2.709  0.4639 -0.5600  0.3002
  323MOL    O2545749   3.383   5.741   2.754 -0.1958 -0.3713  0.3316
  323MOL    H2645750   3.544   5.887   2.902 -2.2501 -0.9033 -0.1835
  323MOL    H2745751   3.472   5.976   2.775  0.2582 -0.1619 -1.1304
  323MOL    H2845752   3.594   5.713   2.719 -2.0383 -3.9087 -1.4958
  323MOL    H2945753   3.369   5.648   2.741 -0.6709 -0.3339  0.5821
  323MOL    C3045754   3.494   5.812   2.558 -0.5494 -0.2872 -0.6703
  323MOL    C3145755   3.450   5.709   2.450  0.2994 -0.4890  0.0016
  323MOL    O3245756   3.431   5.765   2.319  0.1202  0.4954  0.4220
  323MOL    H3345757   3.427   5.895   2.535 -0.8143 -0.0407  0.9678
  323MOL    H3445758   3.586   5.856   2.521 -1.3483 -0.5712 -3.1159
  323MOL    H3545759   3.355   5.671   2.489  0.0077  0.2956  0.0526
  323MOL    H3645760   3.357   5.725   2.276 -0.1122 -0.9755  2.1639
  323MOL    C3745761   3.544   5.583   2.446  0.0648 -0.1514  0.1859
  323MOL    C3845762   3.535   5.479   2.330  0.1872 -0.4450 -1.0036
  323MOL    O3945763   3.643   5.388   2.361  0.1474  0.4276  0.1138
  323MOL    H4045764   3.646   5.622   2.450  1.0504 -2.6544  0.2952
  323MOL    H4145765   3.526   5.525   2.536 -0.2394  0.0454  0.2527
  323MOL    H4245766   3.550   5.522   2.231  1.4739  0.9691 -0.2089
  323MOL    H4345767   3.610   5.311   2.319  2.8740 -1.2324  0.9086
  323MOL    C4445768   3.404   5.398   2.331 -0.1748 -0.4586  0.4696
  323MOL    C4545769   3.392   5.296   2.212  0.5369 -0.2434  0.9456
  323MOL    O4645770   3.484   5.191   2.229  0.3198 -0.0945 -0.1824
  323MOL    H4745771   3.385   5.339   2.420 -0.7781  1.3296  1.5612
  323MOL    H4845772   3.322   5.464   2.302  1.0181  0.1592 -1.5998
  323MOL    H4945773   3.406   5.346   2.115  0.1105  0.9704  1.4890
  323MOL    H5045774   3.443   5.125   2.176 -0.2013  0.0163  0.0826
  323MOL    C5145775   3.252   5.232   2.204 -0.6451  0.3714  0.4100
  323MOL    C5245776   3.225   5.131   2.094  0.6992 -0.2321  0.2745
  323MOL    O5345777   3.292   5.013   2.105  0.0337  0.0596  0.5681
  323MOL    H5445778   3.237   5.185   2.301  1.5283  1.7160  1.4512
  323MOL    H5545779   3.174   5.308   2.200 -2.8125 -1.8284  0.3104
  323MOL    H5645780   3.248   5.178   1.998  1.0611 -1.0266 -0.0384
  323MOL    H5745781   3.281   4.957   2.029  0.3984  1.2802 -0.4139
  323MOL    C5845782   3.077   5.087   2.090 -0.0221 -0.1881 -0.1722
  323MOL    C5945783   3.027   4.994   1.983  0.1000  0.5135 -0.0077
  323MOL    O6045784   2.892   4.952   2.004  0.0690 -0.2449  0.1341
  323MOL    H6145785   3.052   5.039   2.184 -1.6109  0.2108 -0.3657
  323MOL    H6245786   3.004   5.168   2.088  1.2077  0.9304 -3.2087
  323MOL    H6345787   3.096   4.910   1.988  1.0935  1.2190 -1.4210
  323MOL    H6445788   2.876   4.862   1.982  1.1139 -1.0487  2.5481
  323MOL    C6545789   3.023   5.050   1.838 -0.0780  0.1703  0.4742
  323MOL    C6645790   3.010   4.943   1.718  0.2385  0.9574  1.2969
  323MOL    O6745791   2.906   4.968   1.635  0.3665  0.1696 -0.1133
  323MOL    H6845792   2.937   5.117   1.828 -1.3487 -1.4429  0.3530
  323MOL    H6945793   3.105   5.119   1.820  0.8950 -1.3853 -1.1526
  323MOL    H7045794   3.006   4.842   1.758 -2.0908  0.1396 -0.9064
  323MOL    H7145795   2.825   4.951   1.679  0.3555  0.0478 -0.1803
  323MOL    C7245796   3.134   4.954   1.630  0.3786  0.7455 -0.0746
  323MOL    C7345797   3.267   4.894   1.683 -0.5341 -0.2878  0.4242
  323MOL    O7445798   3.310   4.979   1.783 -0.0625  0.1497 -0.2864
  323MOL    H7545799   3.109   4.905   1.536  1.9160 -0.0955 -0.0600
  323MOL    H7645800   3.150   5.059   1.603 -0.8817  1.8556  3.3181
  323MOL    H7745801   3.338   4.906   1.601  0.7829  3.0858  1.9690
  323MOL    H7845802   3.348   5.052   1.737  1.0588 -0.3989 -0.2460
  323MOL    C7945803   3.253   4.744   1.738 -0.2214  0.5229 -0.6801
  323MOL    C8045804   3.187   4.651   1.639 -0.6508 -0.2664  0.6296
  323MOL    O8145805   3.265   4.664   1.521 -0.2941 -0.3562  0.6295
  323MOL    H8245806   3.355   4.708   1.752 -1.1229 -1.9688 -0.1688
  323MOL    H8345807   3.207   4.745   1.837  1.3050  1.6866  0.0289
  323MOL    H8445808   3.095   4.692   1.597  0.9696  0.9786 -1.8492
  323MOL    H8545809   3.200   4.675   1.453  1.5457  1.0637 -0.9684
  323MOL    C8645810   3.170   4.513   1.697 -0.4807 -0.3658  0.4730
  323MOL    C8745811   3.064   4.495   1.803  0.1869 -0.6134 -0.8662
  323MOL    O8845812   2.938   4.495   1.735 -0.4623  0.5830 -0.4317
  323MOL    H8945813   3.150   4.441   1.617 -0.7579 -1.1875  1.2758
  323MOL    H9045814   3.268   4.480   1.732 -0.1196 -0.4341 -0.5843
  323MOL    H9145815   3.048   4.579   1.870 -2.5750 -0.6504 -1.4209
  323MOL    H9245816   2.939   4.440   1.658  0.0363 -1.9039  1.2887
  323MOL    C9345817   3.066   4.357   1.867 -0.1166  0.9692  0.5935
  323MOL    C9445818   2.978   4.343   1.998 -0.1339  0.1314  0.9760
  323MOL    O9545819   2.856   4.298   1.945 -0.0956 -0.5528  0.1214
  323MOL    H9645820   3.052   4.275   1.797  1.2202  0.3428  1.0375
  323MOL    H9745821   3.173   4.359   1.888 -0.4513  0.6442  2.3847
  323MOL    H9845822   2.971   4.433   2.059  1.7496  0.4326  0.7828
  323MOL    H9945823   2.799   4.373   1.941 -0.6433 -1.0022 -0.6215
  323MOL   C10045824   3.029   4.236   2.095  0.3669 -0.2726  0.0212
  323MOL   C10145825   3.169   4.258   2.166  0.2273 -0.0773 -0.9770
  323MOL   O10245826   3.180   4.381   2.223  0.6118 -0.8492  0.3637
  323MOL   H10345827   2.950   4.209   2.165 -0.8668 -1.6278 -1.8535
  323MOL   H10445828   3.043   4.152   2.027 -1.5013  0.6916 -1.5954
  323MOL   H10545829   3.249   4.247   2.093  1.8111  0.2532  0.6580
  323MOL   H10645830   3.258   4.418   2.185 -0.5799 -0.3686 -1.7013
  323MOL   C10745831   3.199   4.166   2.290  0.3813 -0.5634  0.3562
  323MOL   C10845832   3.209   4.023   2.228 -0.6319 -0.2278  0.0426
  323MOL   O10945833   3.323   4.022   2.141 -0.3846  0.2890  0.1871
  323MOL   H11045834   3.287   4.192   2.350  0.5251  0.1601 -0.1620
  323MOL   H11145835   3.118   4.182   2.361  0.7962 -1.2938  1.0089
  323MOL   H11245836   3.124   3.998   2.165 -0.2828 -1.8868  0.1923
  323MOL   H11345837   3.397   4.016   2.199 -0.0559  1.5487 -0.0926
  323MOL   C11445838   3.223   3.918   2.333 -0.9403  0.7589 -0.2885
  323MOL   C11545839   3.256   3.771   2.296 -0.2366  0.5009  0.4440
  323MOL   O11645840   3.305   3.695   2.409 -0.8567 -0.2082 -0.0346
  323MOL   H11745841   3.297   3.947   2.407 -1.9623  2.8292 -0.0548
  323MOL   H11845842   3.127   3.916   2.385 -0.6829  0.1064  0.1727
  323MOL   H11945843   3.343   3.760   2.231  0.6029 -1.1931  1.7956
  323MOL   H12045844   3.398   3.677   2.406 -0.5871  1.2608 -1.4630
  323MOL   C12145845   3.138   3.689   2.232 -0.6462 -0.0916 -0.3164
  323MOL   C12245846   3.164   3.535   2.217  0.5485 -0.1606  0.4223
  323MOL   O12345847   3.039   3.478   2.196  0.2944  0.4064  0.4169
  323MOL   H12445848   3.044   3.691   2.288 -0.6722  1.5759 -0.3967
  323MOL   H12545849   3.116   3.718   2.129 -1.5127 -0.3771 -0.2174
  323MOL   H12645850   3.200   3.488   2.309 -0.7324  1.3160  1.6934
  323MOL   H12745851   3.001   3.495   2.281  0.0623  0.9280  0.2134
  323MOL   C12845852   3.266   3.492   2.101  0.5225  0.0042  0.1657
  323MOL   C12945853   3.393   3.413   2.156 -0.2207  0.4830 -0.6013
  323MOL   O13045854   3.353   3.290   2.224 -0.6576  0.7781  0.2262
  323MOL   H13145855   3.207   3.439   2.026  0.6903 -0.8418  0.6169
  323MOL   H13245856   3.310   3.578   2.050 -0.9698  1.1819  0.8439
  323MOL   H13345857   3.449   3.477   2.225 -1.8574 -1.0245  2.2319
  323MOL   H13445858   3.358   3.302   2.317 -1.2605  2.7588  0.0202
  323MOL   C13545859   3.482   3.366   2.039 -0.4148 -0.0665 -0.0801
  323MOL   C13645860   3.551   3.486   1.963  0.4843 -0.3085  0.3757
  323MOL   O13745861   3.621   3.430   1.842 -0.0515 -0.8446 -1.0929
  323MOL   H13845862   3.564   3.306   2.079  0.2934  1.0997  0.2432
  323MOL   H13945863   3.434   3.297   1.970 -1.8018  2.1329 -1.3997
  323MOL   H14045864   3.615   3.555   2.018  0.5269  1.1662 -1.4768
  323MOL   H14145865   3.711   3.422   1.870 -0.3898  0.2618  0.3947
  323MOL   H14245866   3.479   3.554   1.917  1.8506  0.9124  0.0225
  324MOL     C145867   4.038   7.380   4.644 -0.8526  0.5643 -0.4838
  324MOL     C245868   4.016   7.231   4.644  0.0999 -0.2364  0.1960
  324MOL     O345869   4.121   7.177   4.568  0.0193  0.5717  0.3968
  324MOL     H445870   4.018   7.438   4.554 -0.0342  0.0371 -1.0065
  324MOL     H545871   4.141   7.389   4.678 -1.0630  1.0496  0.0457
  324MOL     H645872   3.922   7.200   4.598  0.0416 -0.5750  0.5367
  324MOL     H745873   4.116   7.083   4.575  0.5106  0.1935 -3.3119
  324MOL     H845874   3.972   7.425   4.718 -1.0929 -1.8693  0.8402
  324MOL     C945875   4.024   7.172   4.784  0.0030 -1.1564 -0.5485
  324MOL    C1045876   3.909   7.209   4.878  0.3245 -0.2041  0.5831
  324MOL    O1145877   3.810   7.111   4.846  0.5607 -0.1191 -0.7209
  324MOL    H1245878   4.034   7.064   4.778 -0.4424 -1.2404  0.2308
  324MOL    H1345879   4.112   7.220   4.827 -0.2112 -0.8404 -0.4625
  324MOL    H1445880   3.867   7.308   4.862  2.6678  0.8076  0.3637
  324MOL    H1545881   3.748   7.151   4.787  2.6943  2.6737 -1.1796
  324MOL    C1645882   3.941   7.186   5.027  0.4510  0.2111  0.0443
  324MOL    C1745883   3.824   7.201   5.126 -0.5238  0.4626 -0.3552
  324MOL    O1845884   3.842   7.118   5.248 -0.4084 -0.1533 -0.0796
  324MOL    H1945885   3.974   7.083   5.038 -1.0885 -0.1635  1.3596
  324MOL    H2045886   4.026   7.246   5.060  1.5923 -2.1766  1.5274
  324MOL    H2145887   3.736   7.152   5.084 -1.2797  3.2680 -2.2304
  324MOL    H2245888   3.812   7.030   5.234 -3.0012  0.4430  1.3880
  324MOL    C2345889   3.796   7.344   5.170  0.3101 -0.4408 -0.0822
  324MOL    C2445890   3.894   7.409   5.270  0.7568 -0.4555 -0.6850
  324MOL    O2545891   4.027   7.433   5.228  0.4533 -0.0611  0.3741
  324MOL    H2645892   3.793   7.407   5.081  0.2461  0.2990  0.4376
  324MOL    H2745893   3.693   7.345   5.208  1.1436 -1.1444  2.2899
  324MOL    H2845894   3.890   7.357   5.366 -3.3764  1.5014  0.3460
  324MOL    H2945895   4.073   7.351   5.223  1.1923  0.2957  1.4288
  324MOL    C3045896   3.831   0.025   5.301  0.4811 -0.1070 -0.3478
  324MOL    C3145897   3.692   0.040   5.359 -0.1823 -0.2376 -0.4674
  324MOL    O3245898   3.688   7.487   5.487  0.2468 -0.5487  0.5052
  324MOL    H3345899   3.897   0.076   5.372  1.0718  0.1820 -1.0991
  324MOL    H3445900   3.838   0.085   5.210 -0.8742  1.5590  0.6276
  324MOL    H3545901   3.612   0.012   5.290 -0.7413 -0.3638  0.2274
  324MOL    H3645902   3.600   7.457   5.502 -0.0276  1.1430  2.6122
  324MOL    C3745903   3.664   0.191   5.390 -0.7925  0.0145  0.2735
  324MOL    C3845904   3.654   0.300   5.281  0.2592  0.7709  0.0617
  324MOL    O3945905   3.539   0.275   5.198  0.1083  0.2903  0.2164
  324MOL    H4045906   3.581   0.193   5.461  1.0886 -1.2519  2.5802
  324MOL    H4145907   3.746   0.226   5.452 -0.2866  0.6434 -0.7378
  324MOL    H4245908   3.739   0.286   5.214 -0.2033 -0.3648 -0.2994
  324MOL    H4345909   3.571   0.230   5.121 -0.3814  0.9994 -0.4012
  324MOL    C4445910   3.643   0.441   5.338 -0.1679 -0.4325 -0.1686
  324MOL    C4545911   3.690   0.558   5.245 -0.1300  0.1025  0.1138
  324MOL    O4645912   3.829   0.538   5.219 -0.4296 -0.0095  0.3099
  324MOL    H4745913   3.547   0.477   5.377  0.2048  0.3168  0.0679
  324MOL    H4845914   3.711   0.457   5.422 -0.0255 -0.3289 -0.3041
  324MOL    H4945915   3.669   0.649   5.302  1.6484 -0.6995  2.1473
  324MOL    H5045916   3.847   0.446   5.203  2.1784  0.6399 -0.7165
  324MOL    C5145917   3.620   0.564   5.112  0.3923 -0.1560  0.2030
  324MOL    C5245918   3.676   0.660   5.003 -0.2320  0.9101 -0.2113
  324MOL    O5345919   3.799   0.598   4.955  0.0142 -0.2363 -0.6504
  324MOL    H5445920   3.615   0.466   5.064  0.4023  0.5749 -1.3321
  324MOL    H5545921   3.516   0.594   5.129  0.1687  0.6476 -2.2623
  324MOL    H5645922   3.709   0.751   5.053  1.8857  1.1950 -2.0702
  324MOL    H5745923   3.852   0.596   5.033  0.6720  0.7775 -1.0636
  324MOL    C5845924   3.583   0.688   4.891 -0.3342 -0.0167 -0.2588
  324MOL    C5945925   3.512   0.580   4.812  0.2074  0.0101  0.2849
  324MOL    O6045926   3.384   0.547   4.854 -0.0148 -0.3330 -0.5927
  324MOL    H6145927   3.506   0.757   4.925  0.8170  1.5191 -0.7054
  324MOL    H6245928   3.642   0.744   4.818  0.7159 -0.4400  0.2553
  324MOL    H6345929   3.568   0.487   4.816 -0.6457 -0.6584 -2.2265
  324MOL    H6445930   3.386   0.484   4.925  2.3629 -2.6428 -2.6441
  324MOL    C6545931   3.498   0.615   4.667  0.5635 -0.1174  0.0447
  324MOL    C6645932   3.582   0.525   4.572 -0.2433  0.3043 -0.1893
  324MOL    O6745933   3.528   0.536   4.439  0.7661  0.0506  0.2058
  324MOL    H6845934   3.393   0.600   4.642 -0.8023  0.9442  4.6347
  324MOL    H6945935   3.512   0.721   4.649 -0.3719  0.0498  0.2996
  324MOL    H7045936   3.567   0.420   4.597  1.2021 -0.4636 -2.3757
  324MOL    H7145937   3.492   0.622   4.423  3.8843  0.9247 -2.8630
  324MOL    C7245938   3.734   0.551   4.579  0.1504 -0.5221  0.3673
  324MOL    C7345939   3.810   0.427   4.533  0.3198  0.1230  0.1268
  324MOL    O7445940   3.930   0.473   4.476  0.3449  0.7184  0.5505
  324MOL    H7545941   3.764   0.638   4.522  0.1309 -0.8559 -0.1607
  324MOL    H7645942   3.754   0.577   4.683 -1.5393 -0.1321  0.6086
  324MOL    H7745943   3.760   0.396   4.441  4.5089 -0.0005 -2.2528
  324MOL    H7845944   3.944   0.417   4.401 -4.4536 -0.0779  0.0981
  324MOL    C7945945   3.814   0.295   4.622 -0.4136 -0.9780 -0.3313
  324MOL    C8045946   3.883   0.299   4.765  0.0097  0.2164 -0.5287
  324MOL    O8145947   3.787   0.344   4.854  0.2319  0.2452 -0.0288
  324MOL    H8245948   3.714   0.252   4.630 -0.5527 -0.5426  0.3113
  324MOL    H8345949   3.851   0.224   4.549 -1.9145  2.6427 -4.8708
  324MOL    H8445950   3.958   0.377   4.765  1.3269 -1.0258 -1.7164
  324MOL    H8545951   3.797   0.438   4.861  2.3273  0.0974 -0.7127
  324MOL    C8645952   3.944   0.163   4.807  0.2120  0.5310  0.3496
  324MOL    C8745953   4.011   0.148   4.946 -0.9600 -0.2646  0.0819
  324MOL    O8845954   4.056   0.020   4.973 -0.1619  0.6480  0.7551
  324MOL    H8945955   3.862   0.092   4.796  2.1471 -1.1387 -4.1510
  324MOL    H9045956   4.018   0.139   4.731 -0.8808  0.5222 -0.7355
  324MOL    H9145957   3.926   0.162   5.012  1.1576  3.3926  2.2049
  324MOL    H9245958   4.067   0.014   5.067  0.2237 -1.3790  0.6027
  324MOL    C9345959   4.122   0.250   4.982 -0.5693 -0.2412 -0.2718
  324MOL    C9445960   4.066   0.362   5.072  0.4753 -0.3897 -0.6050
  324MOL    O9545961   3.998   0.308   5.186 -0.7880  0.0423  0.6666
  324MOL    H9645962   4.205   0.202   5.035  1.4560  1.5174 -1.7559
  324MOL    H9745963   4.168   0.283   4.889  3.0787  2.1427  2.2653
  324MOL    H9845964   4.001   0.431   5.019  0.7326  1.7523  1.7733
  324MOL    H9945965   4.063   0.255   5.229  0.0688  1.8523  1.6377
  324MOL   C10045966   4.181   0.443   5.129 -0.3734 -0.4393  0.1977
  324MOL   C10145967   4.160   0.598   5.132  0.0267  0.3431 -0.0322
  324MOL   O10245968   4.104   0.626   5.263  0.1067  0.3351 -0.5080
  324MOL   H10345969   4.220   0.401   5.222  3.4718 -0.4352 -1.3392
  324MOL   H10445970   4.268   0.428   5.064  0.5350 -2.4180  1.8136
  324MOL   H10545971   4.088   0.630   5.057 -0.3884 -1.1807 -0.3202
  324MOL   H10645972   4.016   0.593   5.260  0.0910  0.4822 -2.1849
  324MOL   C10745973   4.297   0.677   5.130  0.3483 -0.0547 -0.2106
  324MOL   C10845974   4.282   0.837   5.112 -0.0476  0.7252 -0.3604
  324MOL   O10945975   4.406   0.896   5.148 -0.5502 -0.0828 -0.0802
  324MOL   H11045976   4.354   0.660   5.221 -0.7280 -1.3646  0.2254
  324MOL   H11145977   4.362   0.632   5.055  0.1499  0.5362 -0.7402
  324MOL   H11245978   4.209   0.859   5.191 -0.1272 -2.4025  0.4869
  324MOL   H11345979   4.428   0.884   5.239 -0.8359  0.9747  0.1435
  324MOL   C11445980   4.237   0.898   4.973 -0.1133  0.3534  0.0975
  324MOL   C11545981   4.184   1.043   4.989 -0.2590  0.6467  0.2073
  324MOL   O11645982   4.288   1.132   5.040 -0.4068  1.1060 -0.7468
  324MOL   H11745983   4.310   0.897   4.893  0.5918  0.0980  0.7333
  324MOL   H11845984   4.153   0.840   4.936  0.0149  2.2494 -3.3613
  324MOL   H11945985   4.101   1.043   5.061  1.4181 -2.0635  2.2020
  324MOL   H12045986   4.317   1.084   5.115 -1.1280  2.6575  0.5493
  324MOL   C12145987   4.134   1.095   4.851 -0.2146  0.1958 -0.5425
  324MOL   C12245988   4.002   1.172   4.843  0.0149 -0.1843  0.6491
  324MOL   O12345989   4.002   1.295   4.916 -0.0932  0.1369 -0.2009
  324MOL   H12445990   4.223   1.138   4.804  0.2709 -0.4589 -0.2394
  324MOL   H12545991   4.099   1.002   4.808 -0.0546 -0.0044 -0.2459
  324MOL   H12645992   3.914   1.116   4.874 -1.5330  1.2547 -1.0001
  324MOL   H12745993   4.089   1.313   4.947 -0.2082 -0.5554  0.5568
  324MOL   C12845994   3.980   1.209   4.696 -0.6311  0.1657  1.2066
  324MOL   C12945995   3.976   1.094   4.589 -0.5726 -0.6064  0.5170
  324MOL   O13045996   3.870   1.014   4.630  0.0391  0.1687  0.1978
  324MOL   H13145997   3.886   1.261   4.679 -0.9961 -1.3515 -1.6582
  324MOL   H13245998   4.066   1.265   4.659 -0.1928 -1.9516 -1.1251
  324MOL   H13345999   4.063   1.029   4.599  0.8150  0.7568 -2.1957
  324MOL   H13446000   3.899   0.927   4.608 -0.9614 -0.0578 -0.2715
  324MOL   C13546001   3.965   1.128   4.445  0.1266 -0.5369  0.5680
  324MOL   C13646002   4.090   1.198   4.388 -0.4290 -0.3943  0.3009
  324MOL   O13746003   4.047   1.299   4.292 -0.7389 -0.1390 -0.2748
  324MOL   H13846004   3.932   1.041   4.389 -0.6099  0.0472  0.0993
  324MOL   H13946005   3.879   1.194   4.441  0.4497 -0.1063  0.6359
  324MOL   H14046006   4.166   1.131   4.346  0.8588  0.0134  1.9058
  324MOL   H14146007   4.131   1.334   4.265 -0.9286  0.9383  0.4885
  324MOL   H14246008   4.144   1.252   4.466 -0.7485  1.2935 -0.6484
  325MOL     C146009   1.649   1.442   6.528  0.7449  0.1520 -0.2170
  325MOL     C246010   1.790   1.392   6.493 -0.0635 -0.1784 -0.5281
  325MOL     O346011   1.774   1.282   6.402  0.9939 -0.2926 -0.6442
  325MOL     H446012   1.598   1.477   6.438 -0.1554  0.4787  0.4098
  325MOL     H546013   1.645   1.528   6.594 -2.3924 -0.9539  1.1220
  325MOL     H646014   1.841   1.364   6.586  1.0577  0.6884 -0.8694
  325MOL     H746015   1.860   1.246   6.387  0.0592 -3.2350  0.8432
  325MOL     H846016   1.583   1.363   6.564 -2.1045  2.1603 -0.8310
  325MOL     C946017   1.882   1.492   6.414 -0.4228 -0.0064 -0.2277
  325MOL    C1046018   1.902   1.638   6.466  0.3207 -0.0420  0.2338
  325MOL    O1146019   1.952   1.634   6.594  0.0944 -0.1539  0.5824
  325MOL    H1246020   1.978   1.442   6.400 -0.5115 -1.2152  2.8719
  325MOL    H1346021   1.832   1.504   6.318 -0.1176 -0.5963 -0.4616
  325MOL    H1446022   1.805   1.684   6.484 -0.2036 -1.1332  0.2761
  325MOL    H1546023   1.903   1.696   6.646  1.3814  1.8460 -0.5125
  325MOL    C1646024   2.005   1.730   6.384 -0.3990  0.1042 -0.4742
  325MOL    C1746025   1.961   1.776   6.247 -0.1180 -0.1427  1.0304
  325MOL    O1846026   1.830   1.825   6.263  0.1000 -0.1114  0.1301
  325MOL    H1946027   2.023   1.817   6.446 -1.2531 -1.0308  1.3964
  325MOL    H2046028   2.101   1.678   6.380 -0.7655 -0.6640  0.3606
  325MOL    H2146029   1.962   1.688   6.182  3.1438 -0.0186  0.8163
  325MOL    H2246030   1.836   1.915   6.236 -0.0480  0.6219  2.4936
  325MOL    C2346031   2.057   1.880   6.189 -0.1842  0.3790  0.4984
  325MOL    C2446032   2.200   1.825   6.148 -0.6729  0.4720 -0.3615
  325MOL    O2546033   2.189   1.716   6.059  0.2118  0.3779  0.2226
  325MOL    H2646034   2.006   1.918   6.100 -1.1196  1.5218  1.5083
  325MOL    H2746035   2.068   1.967   6.254 -0.8790  0.6095  0.3073
  325MOL    H2846036   2.244   1.788   6.240  0.8693 -1.3637 -1.8078
  325MOL    H2946037   2.163   1.747   5.973  0.4169 -2.2554 -0.8415
  325MOL    C3046038   2.294   1.921   6.077  0.6781  0.9949 -0.6258
  325MOL    C3146039   2.358   2.022   6.168  0.7608  1.0684  0.2095
  325MOL    O3246040   2.427   1.958   6.271  0.3349 -0.0596 -0.4316
  325MOL    H3346041   2.376   1.864   6.033 -2.1398 -1.0206 -3.4602
  325MOL    H3446042   2.236   1.968   5.997 -2.7969 -0.0967  1.1328
  325MOL    H3546043   2.281   2.084   6.214 -1.3841 -1.3212 -0.0420
  325MOL    H3646044   2.507   1.916   6.243 -0.8008 -1.1729 -2.1154
  325MOL    C3746045   2.450   2.117   6.095 -0.1333 -0.2978 -0.3806
  325MOL    C3846046   2.514   2.240   6.168  0.4867  0.1806  0.3025
  325MOL    O3946047   2.566   2.325   6.067 -0.6489  0.7370  1.3737
  325MOL    H4046048   2.523   2.046   6.056 -0.3353 -0.2706 -0.8126
  325MOL    H4146049   2.391   2.165   6.016  0.3691  1.1963  0.1221
  325MOL    H4246050   2.596   2.203   6.228  0.9855 -1.4792 -1.3446
  325MOL    H4346051   2.647   2.364   6.098 -0.0049  2.6547 -2.4506
  325MOL    C4446052   2.416   2.329   6.251 -0.2252 -0.0173  0.8043
  325MOL    C4546053   2.422   2.288   6.399  0.7630  0.0199 -0.0117
  325MOL    O4646054   2.541   2.348   6.460  0.2057 -0.6243  0.5227
  325MOL    H4746055   2.436   2.436   6.241 -0.4791 -0.0037  0.4440
  325MOL    H4846056   2.311   2.333   6.222  0.0428 -0.3989 -0.2472
  325MOL    H4946057   2.431   2.180   6.407  2.2444  0.0440 -1.0747
  325MOL    H5046058   2.608   2.285   6.442  0.6572 -0.6692  2.3033
  325MOL    C5146059   2.311   2.329   6.496 -0.1577  0.4144 -0.6091
  325MOL    C5246060   2.178   2.265   6.471  0.2207  0.1672  0.6958
  325MOL    O5346061   2.175   2.124   6.499 -0.6501  0.1229 -0.1048
  325MOL    H5446062   2.340   2.297   6.596  0.1493  0.5429 -0.6545
  325MOL    H5546063   2.309   2.438   6.497 -2.1531  0.3933  0.8049
  325MOL    H5646064   2.157   2.277   6.365  3.0583  2.6057  0.3572
  325MOL    H5746065   2.242   2.080   6.448 -1.4440 -3.2652  1.5787
  325MOL    C5846066   2.071   2.328   6.561 -0.2454  1.0695  0.4546
  325MOL    C5946067   1.930   2.304   6.513  0.2904 -0.1273 -0.3791
  325MOL    O6046068   1.856   2.358   6.619 -0.6365 -0.0537  0.5364
  325MOL    H6146069   2.080   2.307   6.667 -0.2293 -1.8669 -0.0887
  325MOL    H6246070   2.093   2.435   6.557  2.7722  0.5967  2.6922
  325MOL    H6346071   1.910   2.197   6.518 -1.9925  0.1961 -1.6160
  325MOL    H6446072   1.776   2.308   6.610  0.4563 -1.4618 -1.7353
  325MOL    C6546073   1.888   2.370   6.380 -0.0478 -0.3783 -0.1942
  325MOL    C6646074   1.752   2.306   6.318  0.4689 -0.2000  0.5637
  325MOL    O6746075   1.634   2.380   6.350  0.2285  0.5542 -1.1340
  325MOL    H6846076   1.885   2.479   6.390  0.8631 -0.4385  0.7612
  325MOL    H6946077   1.972   2.361   6.311  0.9855  0.7812  0.8768
  325MOL    H7046078   1.742   2.208   6.363  3.4170 -2.0520 -2.5647
  325MOL    H7146079   1.573   2.319   6.390 -0.1347  1.5893 -0.0747
  325MOL    C7246080   1.763   2.299   6.168 -0.2873  0.0498  0.1090
  325MOL    C7346081   1.859   2.186   6.115 -0.1383  0.1536 -0.6893
  325MOL    O7446082   1.790   2.067   6.146  0.2524 -0.3275 -0.3042
  325MOL    H7546083   1.668   2.287   6.117 -1.0401 -1.9219  1.8678
  325MOL    H7646084   1.797   2.398   6.139  1.8681 -0.6443  0.2003
  325MOL    H7746085   1.948   2.186   6.177 -0.0653  0.9475 -0.7851
  325MOL    H7846086   1.740   2.048   6.068 -0.9371 -0.0457  0.3663
  325MOL    C7946087   1.892   2.206   5.967 -0.7237 -0.5196  0.0139
  325MOL    C8046088   1.997   2.315   5.929  0.2573 -0.2777  0.4312
  325MOL    O8146089   2.114   2.286   6.004  0.0612  0.5721  0.1274
  325MOL    H8246090   1.919   2.109   5.923 -0.8926 -0.3638 -0.4375
  325MOL    H8346091   1.802   2.231   5.912 -0.3204 -0.2394 -0.5244
  325MOL    H8446092   1.944   2.400   5.971  1.0902  0.8053 -0.6549
  325MOL    H8546093   2.165   2.364   6.020 -0.1235  1.1299 -1.8707
  325MOL    C8646094   2.020   2.354   5.778  0.2098 -0.7118 -0.1547
  325MOL    C8746095   2.155   2.419   5.747 -0.5865 -0.1468  0.1467
  325MOL    O8846096   2.168   2.433   5.614  0.6835  0.2049 -0.2657
  325MOL    H8946097   2.023   2.256   5.730 -0.9164 -1.2466  0.8563
  325MOL    H9046098   1.938   2.413   5.738  0.9158  0.5891  0.2517
  325MOL    H9146099   2.236   2.358   5.785 -0.5046 -0.5414 -0.6500
  325MOL    H9246100   2.096   2.488   5.587  0.6461  0.7960  0.9997
  325MOL    C9346101   2.183   2.563   5.796  0.2187  0.8358  0.0807
  325MOL    C9446102   2.171   2.589   5.944 -0.4465 -0.2005  0.6344
  325MOL    O9546103   2.264   2.516   6.019  0.0802  0.4448  0.3152
  325MOL    H9646104   2.286   2.584   5.768  0.8155 -2.4807 -0.5067
  325MOL    H9746105   2.118   2.628   5.738 -0.2265  0.2827 -0.0409
  325MOL    H9846106   2.076   2.576   5.995  0.1149  0.7556  1.9514
  325MOL    H9946107   2.347   2.521   5.975 -0.4265 -0.1545 -0.7059
  325MOL   C10046108   2.214   2.738   5.956  0.0494  0.4088 -0.5974
  325MOL   C10146109   2.226   2.797   6.094  0.0360  0.1352  1.4316
  325MOL   O10246110   2.289   2.918   6.090  0.3371  0.6612  0.6074
  325MOL   H10346111   2.312   2.760   5.913  1.6316 -0.5223  2.3479
  325MOL   H10446112   2.153   2.809   5.901 -0.0614 -0.4766 -1.6243
  325MOL   H10546113   2.290   2.724   6.144 -1.9682 -0.7798  2.7795
  325MOL   H10646114   2.294   2.937   6.182  2.7367  1.1006  0.4192
  325MOL   C10746115   2.087   2.802   6.158 -0.0559  1.0592  0.5971
  325MOL   C10846116   2.095   2.822   6.310  0.4313 -0.0396  0.7073
  325MOL   O10946117   2.155   2.943   6.342  0.3550 -0.1573  0.0682
  325MOL   H11046118   2.030   2.884   6.115  1.0004  0.5256 -1.9521
  325MOL   H11146119   2.028   2.713   6.136 -0.9232  1.7051  0.3010
  325MOL   H11246120   2.153   2.744   6.360 -0.1021 -0.0647  1.2854
  325MOL   H11346121   2.110   2.977   6.418 -0.5668 -3.3837  1.0564
  325MOL   C11446122   1.950   2.825   6.369 -0.4700 -0.3873  0.3120
  325MOL   C11546123   1.951   2.854   6.522  0.6739  0.5182 -0.2425
  325MOL   O11646124   1.985   2.989   6.550  0.1597 -0.5189  0.3762
  325MOL   H11746125   1.894   2.903   6.317 -2.8072 -3.1150 -1.4361
  325MOL   H11846126   1.893   2.735   6.345 -1.6190  0.6884 -1.1233
  325MOL   H11946127   2.019   2.790   6.580  0.0853  2.3226  2.5597
  325MOL   H12046128   1.908   3.045   6.549  1.1976  0.9287 -1.2678
  325MOL   C12146129   1.809   2.833   6.573  0.0240 -0.4934 -0.3782
  325MOL   C12246130   1.778   2.682   6.599  0.0671 -0.3283  0.1202
  325MOL   O12346131   1.865   2.619   6.681  0.2075 -0.8433 -0.0258
  325MOL   H12446132   1.789   2.898   6.658  0.9905  0.4096 -0.8360
  325MOL   H12546133   1.739   2.879   6.503 -1.7499 -1.4708  0.7201
  325MOL   H12646134   1.790   2.625   6.508  1.4395  0.2749 -0.0925
  325MOL   H12746135   1.860   2.526   6.664  2.6384 -1.3668  1.9510
  325MOL   C12846136   1.640   2.662   6.663  0.2693 -1.0249  0.2255
  325MOL   C12946137   1.521   2.668   6.571  0.4180  0.5486  0.8312
  325MOL   O13046138   1.501   2.530   6.528 -0.1642 -0.2086  0.2367
  325MOL   H13146139   1.630   2.572   6.724 -2.7868  0.1656  1.5676
  325MOL   H13246140   1.629   2.757   6.716 -0.7190  0.3830 -2.4116
  325MOL   H13346141   1.537   2.739   6.490 -2.9347  0.4329  0.0014
  325MOL   H13446142   1.565   2.506   6.464  1.2744  3.1507  0.2991
  325MOL   C13546143   1.392   2.714   6.639 -0.6953  0.5103 -0.1352
  325MOL   C13646144   1.271   2.728   6.549  0.3263 -0.0122  0.1911
  325MOL   O13746145   1.196   2.821   6.622  0.0795 -0.1588  0.4573
  325MOL   H13846146   1.356   2.655   6.723  0.6190 -0.1465 -0.0216
  325MOL   H13946147   1.425   2.807   6.685 -0.0005  0.8282 -1.2552
  325MOL   H14046148   1.223   2.634   6.522  1.4237 -0.7465  0.7795
  325MOL   H14146149   1.173   2.778   6.703  1.5353  0.5201  1.2459
  325MOL   H14246150   1.311   2.775   6.459  1.0503  1.5220  1.3020
  326MOL     C146151   2.716   6.319   7.278 -0.2051  0.2131  0.4408
  326MOL     C246152   2.870   6.298   7.261  0.4502  0.3272 -0.1205
  326MOL     O346153   2.928   6.425   7.261 -0.1529 -0.2583 -0.1398
  326MOL     H446154   2.660   6.367   7.198  0.1735  1.8279  1.1232
  326MOL     H546155   2.694   6.372   7.371 -1.4323  0.5756 -0.0535
  326MOL     H646156   2.908   6.236   7.180 -3.0361 -0.6465 -1.1052
  326MOL     H746157   3.015   6.415   7.296  0.2825  0.1377 -1.0839
  326MOL     H846158   2.679   6.216   7.277  1.2377 -0.3222 -1.1336
  326MOL     C946159   2.933   6.224   7.388  0.1993 -0.4346 -0.1928
  326MOL    C1046160   3.089   6.202   7.370  0.6572  0.6919  0.3094
  326MOL    O1146161   3.171   6.325   7.367 -0.4658  0.0590 -0.3627
  326MOL    H1246162   2.914   6.283   7.478 -0.6850 -1.8235  0.5568
  326MOL    H1346163   2.896   6.122   7.395 -0.9467  0.0267  0.5665
  326MOL    H1446164   3.110   6.164   7.270  3.6164  0.3343  1.0383
  326MOL    H1546165   3.260   6.295   7.370 -0.3800  0.1430 -1.5908
  326MOL    C1646166   3.145   6.117   7.481 -0.1000 -0.1288 -0.5192
  326MOL    C1746167   3.283   6.067   7.460  0.0191 -0.2287 -0.1638
  326MOL    O1846168   3.375   6.168   7.419  0.1009 -0.3188  0.0562
  326MOL    H1946169   3.149   6.166   0.059 -0.0429 -0.3452 -0.4117
  326MOL    H2046170   3.083   6.029   7.496  0.9300 -1.0271 -1.4529
  326MOL    H2146171   3.275   6.011   7.367  1.0078 -0.7266  0.0464
  326MOL    H2246172   3.444   6.172   7.484  0.8575 -1.0067 -0.7038
  326MOL    C2346173   3.349   5.988   0.058  0.0557  0.2667 -0.1539
  326MOL    C2446174   3.280   5.862   0.104  0.7191  0.0382 -0.1902
  326MOL    O2546175   3.381   5.754   0.118 -1.4128  0.2498  0.0159
  326MOL    H2646176   3.447   5.960   0.018 -1.4259 -2.7806 -1.8975
  326MOL    H2746177   3.376   6.051   0.142 -0.3521 -2.0067  1.7501
  326MOL    H2846178   3.210   5.830   0.027  0.2957  1.4337 -0.4003
  326MOL    H2946179   3.389   5.708   0.036 -3.8498 -0.6790  0.2466
  326MOL    C3046180   3.207   5.886   0.237  0.5366  0.3327  0.6374
  326MOL    C3146181   3.118   5.773   0.283 -0.2331 -0.3518 -0.8712
  326MOL    O3246182   3.110   5.786   0.422 -0.6380  0.0368 -0.8925
  326MOL    H3346183   3.283   5.910   0.312 -0.2221 -0.5682  1.7176
  326MOL    H3446184   3.149   5.977   0.224 -0.3956 -0.4939 -1.0274
  326MOL    H3546185   3.179   5.684   0.266  0.7990 -0.2167  1.8526
  326MOL    H3646186   3.091   5.702   0.460  0.8712 -1.0669 -2.4934
  326MOL    C3746187   2.984   5.784   0.209  0.0883 -0.3741 -0.3337
  326MOL    C3846188   2.894   5.664   0.212  0.1194 -0.0886 -0.5603
  326MOL    O3946189   2.803   5.673   0.323  0.0615 -0.3782  0.2834
  326MOL    H4046190   2.951   5.883   0.240  1.9713  0.1208  0.1290
  326MOL    H4146191   3.010   5.792   0.103  0.3289 -2.6995 -0.4769
  326MOL    H4246192   2.956   5.578   0.239  1.1829  1.3778  1.8137
  326MOL    H4346193   2.853   5.699   0.399 -1.0673 -0.6849  1.1381
  326MOL    C4446194   2.816   5.654   0.088 -0.3136 -0.1180  0.1820
  326MOL    C4546195   2.895   5.601   7.483  0.1704  0.3022 -0.2912
  326MOL    O4646196   2.919   5.463   7.496  0.0278  0.2280  0.7996
  326MOL    H4746197   2.738   5.579   0.103 -0.0734 -0.1378  1.3745
  326MOL    H4846198   2.767   5.747   0.060 -0.2472 -0.2153 -0.2612
  326MOL    H4946199   2.992   5.651   7.475 -0.2899  1.2236 -0.2769
  326MOL    H5046200   2.989   5.442   0.036  0.6180 -0.8847 -0.2800
  326MOL    C5146201   2.830   5.627   7.346 -0.0008 -0.3165  1.2228
  326MOL    C5246202   2.820   5.775   7.303  0.2914  0.1390  0.8305
  326MOL    O5346203   2.944   5.843   7.277 -0.0806  0.5034 -0.6748
  326MOL    H5446204   2.893   5.584   7.269  0.0485 -0.4987  1.3650
  326MOL    H5546205   2.731   5.582   7.338 -0.3448  0.6316 -0.0734
  326MOL    H5646206   2.760   5.834   7.372  1.4185  1.4577  0.7159
  326MOL    H5746207   2.924   5.919   7.224  0.5010  1.6574  0.7276
  326MOL    C5846208   2.745   5.787   7.161  0.6441 -0.8486  0.3150
  326MOL    C5946209   2.687   5.924   7.139 -0.4509 -0.2734  0.5921
  326MOL    O6046210   2.790   6.008   7.103 -0.2316  0.9174 -0.0689
  326MOL    H6146211   2.807   5.746   7.082  0.7203 -1.7288  0.8241
  326MOL    H6246212   2.664   5.715   7.164  0.5055 -0.6572  1.2663
  326MOL    H6346213   2.657   5.964   7.235  1.2368 -0.7248  1.3134
  326MOL    H6446214   2.840   5.969   7.032 -2.4045 -1.4112 -0.4126
  326MOL    C6546215   2.566   5.920   7.041  0.6818  0.9261  0.3395
  326MOL    C6646216   2.471   6.047   7.062 -0.8556  0.5246  0.0199
  326MOL    O6746217   2.557   6.159   7.037 -0.0082 -0.1905 -0.3821
  326MOL    H6846218   2.586   5.918   6.934  0.2836  0.4137  0.2728
  326MOL    H6946219   2.508   5.834   7.074  1.6526 -0.3274 -1.1574
  326MOL    H7046220   2.444   6.041   7.167 -4.1856  1.3115 -0.7368
  326MOL    H7146221   2.633   6.140   7.089  1.0811 -1.0815 -2.2676
  326MOL    C7246222   2.353   6.055   6.973  1.4571 -0.1381  0.4868
  326MOL    C7346223   2.224   6.109   7.038  0.0599  0.0265  0.4023
  326MOL    O7446224   2.135   6.147   6.941 -0.0843  0.5039  0.5120
  326MOL    H7546225   2.369   6.112   6.882 -0.1932 -2.4416 -1.3008
  326MOL    H7646226   2.310   5.960   6.941 -0.2572  1.6456 -2.6666
  326MOL    H7746227   2.257   6.200   7.090  1.6853 -2.0472  3.1369
  326MOL    H7846228   2.155   6.238   6.926  0.2112  0.3245 -0.2253
  326MOL    C7946229   2.147   6.016   7.138  0.2446  0.4351  0.1312
  326MOL    C8046230   2.024   6.082   7.204  0.3020  0.1220 -0.3606
  326MOL    O8146231   1.947   5.978   7.263  0.3419  0.6560 -0.2752
  326MOL    H8246232   2.107   5.933   7.080  1.5348  2.1387 -3.3584
  326MOL    H8346233   2.214   5.974   7.213 -0.5107 -1.5479 -0.2683
  326MOL    H8446234   1.958   6.117   7.124  0.1571  1.0946  0.1687
  326MOL    H8546235   1.870   5.961   7.212  0.3913  0.9996 -0.4675
  326MOL    C8646236   2.055   6.195   7.304  0.0433 -0.3171  0.3682
  326MOL    C8746237   1.943   6.295   7.306 -0.3031  0.1511 -0.5502
  326MOL    O8846238   1.934   6.376   7.426 -0.1939 -0.4006  0.4397
  326MOL    H8946239   2.055   6.156   7.405 -0.3580  3.4933  1.9107
  326MOL    H9046240   2.148   6.252   7.296 -0.0189 -0.3776 -0.9508
  326MOL    H9146241   1.853   6.234   7.310 -1.1530  1.3656 -0.7053
  326MOL    H9246242   1.974   6.333   7.500  0.1953  1.4570  1.3393
  326MOL    C9346243   1.945   6.390   7.178 -0.1130 -0.5105  0.2195
  326MOL    C9446244   2.061   6.496   7.170 -0.5324  0.0314  0.4413
  326MOL    O9546245   2.160   6.443   7.082 -0.1625  0.0034  0.1733
  326MOL    H9646246   1.956   6.324   7.092  0.7082 -2.9420  2.1134
  326MOL    H9746247   1.849   6.441   7.178  0.0799 -0.1347  0.8717
  326MOL    H9846248   2.104   6.509   7.270  1.2442 -0.3337 -0.2686
  326MOL    H9946249   2.127   6.437   6.994 -0.1804 -1.0232  0.2353
  326MOL   C10046250   2.010   6.631   7.113 -0.3259 -0.1168  0.8051
  326MOL   C10146251   2.113   6.736   7.061 -0.0012  0.2205  0.0523
  326MOL   O10246252   2.034   6.835   6.997  0.3070  0.1372 -0.6524
  326MOL   H10346253   1.928   6.619   7.042 -0.3183 -1.1817  0.9633
  326MOL   H10446254   1.957   6.680   7.195  0.1640  1.4425  0.1960
  326MOL   H10546255   2.174   6.684   6.987 -2.9330 -1.2947 -1.3901
  326MOL   H10646256   2.088   6.890   6.941 -0.7196  1.1264 -0.6763
  326MOL   C10746257   2.191   6.806   7.175  0.3052 -0.5600 -0.0380
  326MOL   C10846258   2.307   6.722   7.231 -0.7574 -0.4749 -0.0379
  326MOL   O10946259   2.428   6.794   7.192  0.3356  0.0270 -0.5243
  326MOL   H11046260   2.224   6.903   7.139  0.1661  0.3079  2.1442
  326MOL   H11146261   2.123   6.836   7.255 -0.5118 -1.1770 -0.4838
  326MOL   H11246262   2.315   6.629   7.174 -1.1187 -1.5199  1.5884
  326MOL   H11346263   2.502   6.739   7.175  1.2713  1.1976 -0.2833
  326MOL   C11446264   2.308   6.713   7.386 -0.3856  0.0643  0.6940
  326MOL   C11546265   2.400   6.615   7.465  0.1981 -0.3435 -0.0403
  326MOL   O11646266   2.399   6.655   0.084  0.0448 -0.2317  0.5077
  326MOL   H11746267   2.323   6.820   7.403 -1.5570  0.2128  0.8516
  326MOL   H11846268   2.205   6.696   7.417 -0.5092  2.3353  1.6458
  326MOL   H11946269   2.503   6.624   7.429 -1.0499  0.0917 -3.7384
  326MOL   H12046270   2.484   6.675   0.120  0.3455 -2.1226  0.8867
  326MOL   C12146271   2.353   6.470   7.443 -0.0454  0.2129 -0.5406
  326MOL   C12246272   2.430   6.371   0.008  0.5415  0.4916 -0.5103
  326MOL   O12346273   2.407   6.381   0.143  0.4543 -0.2421  0.3578
  326MOL   H12446274   2.249   6.470   7.474  0.5574  0.2325  1.5804
  326MOL   H12546275   2.348   6.452   7.336 -0.7828  0.4217 -0.5401
  326MOL   H12646276   2.536   6.394   7.517  0.5888  0.0673 -1.0084
  326MOL   H12746277   2.428   6.469   0.170  2.2322 -0.1901 -1.1107
  326MOL   C12846278   2.409   6.222   7.486  0.5117  0.1916 -0.7104
  326MOL   C12946279   2.469   6.097   0.030  0.0475  0.1011  0.4051
  326MOL   O13046280   2.427   5.996   7.458  0.1405  0.4723  0.4614
  326MOL   H13146281   2.303   6.202   7.502  0.6089  1.0067  1.0511
  326MOL   H13246282   2.431   6.226   7.379 -0.2904 -2.2175 -1.0049
  326MOL   H13346283   2.413   6.076   0.121 -1.0242  1.5862  0.0906
  326MOL   H13446284   2.480   5.919   7.474 -0.9952 -0.1670  1.2193
  326MOL   C13546285   2.624   6.092   0.036  0.2292 -0.4115 -0.8733
  326MOL   C13646286   2.680   6.191   0.139 -0.5050  0.1522  0.5219
  326MOL   O13746287   2.795   6.137   0.192 -0.4333  0.2550 -0.5795
  326MOL   H13846288   2.655   5.988   0.051 -0.6830 -0.5937 -0.1823
  326MOL   H13946289   2.672   6.109   7.459 -0.4044  1.4251 -0.8862
  326MOL   H14046290   2.611   6.220   0.218 -0.3466 -0.6226  0.9511
  326MOL   H14146291   2.844   6.208   0.232 -0.5746 -0.5924  1.1688
  326MOL   H14246292   2.705   6.289   0.097  0.1306 -0.3561 -0.3009
  327MOL     C146293   1.195   1.937   0.998  0.4030 -0.1840  0.0135
  327MOL     C246294   1.333   1.877   1.027 -0.4925  0.1955 -0.0176
  327MOL     O346295   1.365   1.834   0.900 -0.1602  0.1411 -0.6785
  327MOL     H446296   1.203   2.039   0.962 -0.6300 -0.3258 -0.6233
  327MOL     H546297   1.135   1.957   1.088 -0.3171 -2.0877 -0.0178
  327MOL     H646298   1.327   1.787   1.088  1.6367 -0.3404 -0.5550
  327MOL     H746299   1.339   1.899   0.837  0.4742  0.0152 -1.0801
  327MOL     H846300   1.137   1.874   0.931  1.8934  0.8626 -2.3117
  327MOL     C946301   1.412   1.991   1.090 -0.0403  0.2279  0.1518
  327MOL    C1046302   1.555   1.951   1.129 -0.2622 -0.3924  0.5690
  327MOL    O1146303   1.626   2.070   1.158 -0.1919 -0.2594  0.5243
  327MOL    H1246304   1.418   2.072   1.018 -0.3621  0.4075  0.3265
  327MOL    H1346305   1.366   2.023   1.184 -1.6297  0.3709 -0.6628
  327MOL    H1446306   1.598   1.880   1.059  1.9756 -0.2549  1.7682
  327MOL    H1546307   1.660   2.095   1.073 -0.2258  0.9980  0.8630
  327MOL    C1646308   1.563   1.865   1.256 -0.3547 -0.1873 -0.3565
  327MOL    C1746309   1.699   1.829   1.328 -0.1573  0.2133 -0.2418
  327MOL    O1846310   1.664   1.734   1.426  0.6594 -0.0843  0.3794
  327MOL    H1946311   1.505   1.926   1.326  1.5293 -2.1166  3.0605
  327MOL    H2046312   1.503   1.777   1.234 -2.3951  0.7081  1.4289
  327MOL    H2146313   1.733   1.922   1.373  1.3945 -0.0546 -0.8434
  327MOL    H2246314   1.661   1.646   1.391  1.2667 -0.5453  1.4472
  327MOL    C2346315   1.814   1.778   1.235  0.0966 -0.2516 -0.9784
  327MOL    C2446316   1.947   1.787   1.305  0.5997 -0.3418  0.1624
  327MOL    O2546317   1.949   1.683   1.402 -0.0829 -0.3918 -0.6950
  327MOL    H2646318   1.797   1.673   1.209 -1.2614 -0.4087  0.4524
  327MOL    H2746319   1.820   1.836   1.143  0.8088  0.9172 -0.2058
  327MOL    H2846320   1.944   1.886   1.350  0.9694  1.3202 -3.3173
  327MOL    H2946321   1.875   1.713   1.453  0.8318  2.7862 -1.0918
  327MOL    C3046322   2.068   1.759   1.212 -1.0376 -0.4413 -0.2782
  327MOL    C3146323   2.142   1.887   1.170 -0.9696  0.3932  0.5160
  327MOL    O3246324   2.254   1.845   1.089  0.5340  0.3257  0.3103
  327MOL    H3346325   2.140   1.702   1.271 -1.2880  1.3809  1.8437
  327MOL    H3446326   2.043   1.703   1.122  0.0915  2.1468 -2.2823
  327MOL    H3546327   2.187   1.936   1.257  0.4939 -0.4481  0.2615
  327MOL    H3646328   2.322   1.910   1.099  1.3994 -0.8097  1.8824
  327MOL    C3746329   2.049   1.983   1.091 -0.4332 -0.0539 -0.0132
  327MOL    C3846330   2.114   2.101   1.006  0.2398  0.0790  0.0547
  327MOL    O3946331   2.024   2.131   0.902 -0.4747 -0.2305 -0.6116
  327MOL    H4046332   1.987   1.929   1.019 -0.2119 -1.7275  1.0222
  327MOL    H4146333   1.985   2.025   1.168  0.4962  2.2659 -0.4773
  327MOL    H4246334   2.195   2.063   0.946  0.0247 -0.2553 -0.0259
  327MOL    H4346335   2.020   2.050   0.853  0.3197 -0.4849 -0.2786
  327MOL    C4446336   2.163   2.232   1.078  0.5138  0.1840 -0.5009
  327MOL    C4546337   2.281   2.212   1.184  0.3578 -0.0857  0.5666
  327MOL    O4646338   2.375   2.121   1.125  0.0074 -0.0091 -0.5819
  327MOL    H4746339   2.189   2.303   1.000 -0.9930  1.8099  0.4323
  327MOL    H4846340   2.082   2.279   1.134  1.3068  0.7768  0.1727
  327MOL    H4946341   2.232   2.167   1.270 -2.0361  3.2549  1.0384
  327MOL    H5046342   2.440   2.172   1.078  1.7973 -2.5489 -0.9683
  327MOL    C5146343   2.355   2.342   1.225  0.5887  0.2638  0.1550
  327MOL    C5246344   2.273   2.428   1.319  0.1462 -0.0345  0.4422
  327MOL    O5346345   2.311   2.376   1.450  0.3879  0.2385 -0.5623
  327MOL    H5446346   2.452   2.309   1.262  0.6380 -1.1486 -1.1664
  327MOL    H5546347   2.368   2.399   1.133 -0.2693  2.1773  1.2077
  327MOL    H5646348   2.166   2.413   1.302  0.1637  1.2889 -0.8867
  327MOL    H5746349   2.380   2.423   1.494  0.0944 -1.7380  2.1459
  327MOL    C5846350   2.312   2.581   1.333  0.7904 -0.2154 -0.1111
  327MOL    C5946351   2.274   2.669   1.213  0.5968  0.0063 -0.7964
  327MOL    O6046352   2.141   2.651   1.178  0.0328  0.0509  0.0934
  327MOL    H6146353   2.256   2.618   1.419  0.2052 -2.1804  0.3853
  327MOL    H6246354   2.418   2.597   1.353  0.6842 -1.3143  1.4490
  327MOL    H6346355   2.319   2.616   1.129  0.4553  0.2345 -1.0156
  327MOL    H6446356   2.143   2.658   1.083 -0.2651 -0.4237  0.0530
  327MOL    C6546357   2.310   2.821   1.232 -0.1334  0.1554 -0.7537
  327MOL    C6646358   2.256   2.919   1.130  0.2218  0.0378 -0.2485
  327MOL    O6746359   2.277   3.044   1.184 -1.0463  0.3103  0.1968
  327MOL    H6846360   2.264   2.849   1.327  2.1637  0.3638  0.3068
  327MOL    H6946361   2.415   2.839   1.253  0.3446 -0.5162 -2.4590
  327MOL    H7046362   2.148   2.906   1.120  0.2192  1.7734 -2.8843
  327MOL    H7146363   2.193   3.088   1.173 -0.1687  2.1953  0.7942
  327MOL    C7246364   2.323   2.915   0.990  0.1104 -0.4804 -0.6171
  327MOL    C7346365   2.308   2.788   0.900 -0.1132  0.2860 -0.0424
  327MOL    O7446366   2.176   2.733   0.905  0.0905 -0.2385  0.1532
  327MOL    H7546367   2.270   2.996   0.941  0.6876 -0.2871 -0.9282
  327MOL    H7646368   2.427   2.946   0.997  0.6650 -2.1488 -1.2143
  327MOL    H7746369   2.375   2.711   0.939  1.0411  1.7913  1.0121
  327MOL    H7846370   2.116   2.788   0.857  1.0617  0.4840 -0.2386
  327MOL    C7946371   2.339   2.812   0.747 -0.5188  0.1905  0.4106
  327MOL    C8046372   2.306   2.701   0.642  0.0130 -0.3014  0.4937
  327MOL    O8146373   2.319   2.761   0.510  0.1652  0.8329  0.3976
  327MOL    H8246374   2.279   2.897   0.715 -2.6422 -1.5425 -0.3169
  327MOL    H8346375   2.445   2.841   0.744  0.0802 -1.7687  1.8017
  327MOL    H8446376   2.205   2.663   0.659 -1.1922  1.3899 -2.5129
  327MOL    H8546377   2.269   2.840   0.526  1.1295  1.1914  1.7389
  327MOL    C8646378   2.396   2.584   0.665  0.1515 -0.3098  0.1051
  327MOL    C8746379   2.356   2.461   0.583  0.3911 -0.7737 -0.3287
  327MOL    O8846380   2.380   2.497   0.448  0.1156 -0.0851 -0.3931
  327MOL    H8946381   2.497   2.619   0.642  0.7830 -1.1971  1.5020
  327MOL    H9046382   2.396   2.559   0.771 -1.5530 -0.5193  0.0682
  327MOL    H9146383   2.248   2.449   0.598  0.0932  1.5237 -0.4544
  327MOL    H9246384   2.373   2.591   0.440  1.1550  0.0173 -0.2083
  327MOL    C9346385   2.426   2.327   0.620 -0.4979 -0.4963  0.1689
  327MOL    C9446386   2.363   2.257   0.737  0.0738 -0.5015  0.2952
  327MOL    O9546387   2.235   2.217   0.691 -0.2987  0.9101  0.4173
  327MOL    H9646388   2.424   2.265   0.530  0.4139  3.1216 -2.4855
  327MOL    H9746389   2.526   2.368   0.636  1.2116 -4.3160 -0.0430
  327MOL    H9846390   2.349   2.321   0.824  0.8006  0.6978 -0.4603
  327MOL    H9946391   2.183   2.179   0.760  0.6436 -1.2971 -0.0397
  327MOL   C10046392   2.451   2.135   0.776 -0.0093 -0.1173  0.0608
  327MOL   C10146393   2.581   2.163   0.845  0.0396  0.3850 -0.1102
  327MOL   O10246394   2.556   2.226   0.970  0.1873  0.3805 -0.0014
  327MOL   H10346395   2.405   2.079   0.858  2.4460 -0.1275  1.4670
  327MOL   H10446396   2.466   2.074   0.687 -0.6237 -1.0339  0.5819
  327MOL   H10546397   2.650   2.221   0.782  0.5445 -1.0053 -0.8473
  327MOL   H10646398   2.600   2.309   0.957 -0.2465  0.5531 -0.3852
  327MOL   C10746399   2.657   2.031   0.867  0.0046  0.3458  0.1315
  327MOL   C10846400   2.809   2.056   0.915  1.4013  0.4245  0.2653
  327MOL   O10946401   2.861   1.925   0.923 -0.5472  0.6056 -0.4245
  327MOL   H11046402   2.597   1.958   0.923 -0.4385  0.5200 -0.1148
  327MOL   H11146403   2.656   1.984   0.769 -0.3671 -0.0590  0.3235
  327MOL   H11246404   2.811   2.104   1.013  3.5980  0.8174  0.0463
  327MOL   H11346405   2.805   1.866   0.971 -2.1246  1.7003 -0.9200
  327MOL   C11446406   2.901   2.126   0.815  0.0075 -0.6647  0.5388
  327MOL   C11546407   3.039   2.150   0.871  0.0306 -0.8075 -0.0773
  327MOL   O11646408   3.111   2.029   0.853 -0.5636  0.2173 -0.0327
  327MOL   H11746409   2.911   2.073   0.721  1.4191  0.1869  0.1973
  327MOL   H11846410   2.864   2.225   0.790  0.2291 -1.2947 -2.4449
  327MOL   H11946411   3.031   2.190   0.972  0.7287 -1.8593  0.4036
  327MOL   H12046412   3.074   1.961   0.907 -1.2506  0.6643  0.0533
  327MOL   C12146413   3.117   2.257   0.789 -0.1227  0.1033  0.2823
  327MOL   C12246414   3.268   2.284   0.815 -1.0805 -0.6594 -1.3152
  327MOL   O12346415   3.306   2.407   0.757 -0.5029  0.2436 -0.5572
  327MOL   H12446416   3.104   2.229   0.684 -0.3182  1.1667  0.0122
  327MOL   H12546417   3.072   2.356   0.790  2.6345  1.4266 -0.3312
  327MOL   H12646418   3.323   2.204   0.766 -2.2315 -0.4824 -2.9109
  327MOL   H12746419   3.399   2.394   0.750 -1.0589 -3.8249 -1.7083
  327MOL   C12846420   3.322   2.304   0.965  0.5054 -0.0705  0.6863
  327MOL   C12946421   3.262   2.433   1.033 -0.3613 -0.0243 -0.0201
  327MOL   O13046422   3.282   2.417   1.170 -0.2582  0.0058 -0.2877
  327MOL   H13146423   3.291   2.223   1.031 -1.5045  0.7030  0.7148
  327MOL   H13246424   3.430   2.302   0.978  0.5142 -1.1384  0.5170
  327MOL   H13346425   3.155   2.440   1.014  0.1251  1.3169 -2.3934
  327MOL   H13446426   3.255   2.495   1.216  1.9915  0.3378  0.5347
  327MOL   C13546427   3.330   2.569   1.006 -0.2006  0.9257  0.5662
  327MOL   C13646428   3.257   2.660   0.906 -0.2595  0.4754  0.3789
  327MOL   O13746429   3.121   2.675   0.949 -0.1925  0.3856 -0.0860
  327MOL   H13846430   3.334   2.635   1.093 -1.1055  3.5750 -1.3195
  327MOL   H13946431   3.432   2.563   0.970 -0.1961 -0.9364  0.8669
  327MOL   H14046432   3.257   2.620   0.805 -1.2390  0.8286  0.2250
  327MOL   H14146433   3.099   2.765   0.967  2.1990  0.7398  1.3525
  327MOL   H14246434   3.309   2.756   0.909  0.1940  0.2888 -1.1505
  328MOL     C146435   3.315   6.684   0.076  0.0672 -0.3973  0.7511
  328MOL     C246436   3.162   6.654   0.040 -0.6527 -0.6017 -0.4330
  328MOL     O346437   3.130   6.515   0.052 -0.0822 -0.1289 -0.4482
  328MOL     H446438   3.330   6.792   0.075  1.5804 -0.5632 -2.0848
  328MOL     H546439   3.379   6.649   7.514 -1.0012  0.7659 -0.6179
  328MOL     H646440   3.155   6.681   7.454  2.0955  0.5598 -0.3399
  328MOL     H746441   3.138   6.471   7.488 -0.9042 -0.4987 -0.3409
  328MOL     H846442   3.348   6.640   0.170  1.5810  0.2777  0.5517
  328MOL     C946443   3.065   6.748   0.113 -0.4148  0.2895 -0.2750
  328MOL    C1046444   2.915   6.713   0.084  0.6073  0.3009  0.4505
  328MOL    O1146445   2.879   6.599   0.154  0.1372  0.1020 -0.3362
  328MOL    H1246446   3.082   6.734   0.220 -1.7517 -2.0314 -0.3100
  328MOL    H1346447   3.090   6.850   0.088  0.1366  0.0941 -0.5206
  328MOL    H1446448   2.915   6.685   7.498 -1.5537 -1.0729  0.7826
  328MOL    H1546449   2.942   6.535   0.124  0.1060  0.2477 -0.7150
  328MOL    C1646450   2.813   6.816   0.114 -0.4547  0.3228  0.0847
  328MOL    C1746451   2.799   6.929   7.514  0.3586  0.3463 -0.1337
  328MOL    O1846452   2.779   6.860   7.389 -0.4980  0.4534 -0.2192
  328MOL    H1946453   2.716   6.768   0.131 -1.1017  1.5865 -0.0335
  328MOL    H2046454   2.840   6.860   0.211  0.8342  1.1526 -0.6421
  328MOL    H2146455   2.886   6.995   7.515  1.3498 -0.9485  2.4581
  328MOL    H2246456   2.764   6.926   7.323 -3.2220  1.1494  1.0146
  328MOL    C2346457   2.664   7.011   0.017 -0.0411  0.6444  0.5581
  328MOL    C2446458   2.682   7.119   0.125  0.5250 -0.5668 -0.8858
  328MOL    O2546459   2.765   7.216   0.066  0.1288  0.2298  0.7477
  328MOL    H2646460   2.617   7.057   7.449  1.0542  0.3162 -0.2199
  328MOL    H2746461   2.600   6.928   0.045  0.7823 -0.5098 -0.8951
  328MOL    H2846462   2.726   7.080   0.217 -1.3714 -0.8400 -0.0745
  328MOL    H2946463   2.834   7.242   0.125 -0.9855  1.0104  1.7450
  328MOL    C3046464   2.550   7.193   0.169 -0.1039  0.5214  0.1059
  328MOL    C3146465   2.434   7.094   0.216 -0.5321  1.3973 -0.5294
  328MOL    O3246466   2.478   6.999   0.311 -0.4812  0.2844  0.4857
  328MOL    H3346467   2.563   7.264   0.250  0.8620 -0.9759  1.3052
  328MOL    H3446468   2.514   7.248   0.083  1.3376  1.0696 -0.1662
  328MOL    H3546469   2.402   7.028   0.136  1.6631 -0.8792  0.4097
  328MOL    H3646470   2.417   6.927   0.315 -0.5218  0.0850 -2.6357
  328MOL    C3746471   2.312   7.176   0.267 -0.6428  0.2605 -0.0139
  328MOL    C3846472   2.216   7.251   0.169  0.2134 -0.1742 -0.7127
  328MOL    O3946473   2.279   7.366   0.126 -0.4544  0.9135 -0.0111
  328MOL    H4046474   2.246   7.100   0.309  0.4302 -1.0862 -0.7025
  328MOL    H4146475   2.344   7.235   0.353  0.9555 -2.1599  1.1318
  328MOL    H4246476   2.135   7.292   0.228  0.2570  0.6232 -1.2071
  328MOL    H4346477   2.252   7.439   0.180 -2.2686  0.0952  0.2476
  328MOL    C4446478   2.171   7.149   0.058  0.2804  0.8319 -0.1837
  328MOL    C4546479   2.066   7.220   7.489  0.5925  0.1067  0.0762
  328MOL    O4646480   2.118   7.330   7.411  0.1983 -0.3906  0.3007
  328MOL    H4746481   2.251   7.107   7.516 -2.0211 -1.4732 -1.7001
  328MOL    H4846482   2.119   7.062   0.099  1.7259 -0.1986 -0.4657
  328MOL    H4946483   1.990   7.268   0.031 -0.2313 -1.7549  0.5419
  328MOL    H5046484   2.182   7.375   7.464  0.5495 -0.2676 -0.2213
  328MOL    C5146485   2.002   7.121   7.391  0.0037 -0.4874 -0.3713
  328MOL    C5246486   1.885   7.176   7.306  0.2534 -0.2222  0.0568
  328MOL    O5346487   1.852   7.058   7.238  0.1070 -0.1476 -0.0505
  328MOL    H5446488   2.083   7.089   7.325  0.1875  0.9280 -0.8275
  328MOL    H5546489   1.970   7.033   7.448  0.0918  0.8879  1.8252
  328MOL    H5646490   1.925   7.245   7.231 -0.2583  1.1734  1.0452
  328MOL    H5746491   1.818   7.086   7.154 -2.4160  3.6260  2.1018
  328MOL    C5846492   1.763   7.235   7.381 -0.0216 -0.0531  1.1411
  328MOL    C5946493   1.669   7.325   7.317  0.4648 -0.1223 -0.0837
  328MOL    O6046494   1.537   7.332   7.372  0.1165 -0.0728 -0.3831
  328MOL    H6146495   1.705   7.153   7.425 -2.1596  0.4688 -0.6356
  328MOL    H6246496   1.799   7.274   7.476 -2.6222 -0.3196  2.2682
  328MOL    H6346497   1.653   7.284   7.217  2.3175 -0.6406 -0.1800
  328MOL    H6446498   1.500   7.247   7.354 -0.4126 -0.1002  0.7880
  328MOL    C6546499   1.724   7.464   7.313  1.1124 -0.1869  0.5136
  328MOL    C6646500   1.667   0.024   7.194  0.9179  0.5002  0.2115
  328MOL    O6746501   1.528   0.038   7.205  0.7030  0.0785 -0.1232
  328MOL    H6846502   1.716   7.515   7.409  1.2087  1.6716 -0.4365
  328MOL    H6946503   1.832   7.459   7.303  0.9681 -1.5605 -0.6551
  328MOL    H7046504   1.682   7.486   7.103 -1.6418  0.5726 -0.2848
  328MOL    H7146505   1.512   7.498   7.277 -3.0537  1.3509  0.1753
  328MOL    C7246506   1.744   0.159   7.190 -0.0995  0.4566  0.1629
  328MOL    C7346507   1.697   0.258   7.084  0.1161  0.4452 -0.1227
  328MOL    O7446508   1.722   0.385   7.139 -0.0845  0.7833  0.7702
  328MOL    H7546509   1.741   0.197   7.292  2.7417 -0.0702  0.4816
  328MOL    H7646510   1.850   0.133   7.184 -0.0513  0.7922 -0.4461
  328MOL    H7746511   1.589   0.247   7.076  0.0050  1.0435  0.5074
  328MOL    H7846512   1.704   0.381   7.232  1.0713  0.0795  0.9855
  328MOL    C7946513   1.742   0.234   6.944  0.0523 -0.5204 -0.2576
  328MOL    C8046514   1.669   0.320   6.838  0.2375  1.0525 -0.9177
  328MOL    O8146515   1.731   0.289   6.711 -0.2568  0.5450  0.0516
  328MOL    H8246516   1.850   0.243   6.937  0.0884 -0.9060 -0.2003
  328MOL    H8346517   1.707   0.132   6.924  0.1697 -0.3857 -1.1502
  328MOL    H8446518   1.702   0.424   6.846  2.4962  0.2912  0.0362
  328MOL    H8546519   1.819   0.323   6.716 -0.2884  0.4128  1.7473
  328MOL    C8646520   1.512   0.299   6.817  0.2025 -1.3561 -0.0052
  328MOL    C8746521   1.434   0.434   6.824  0.1035 -0.3697  0.2245
  328MOL    O8846522   1.306   0.385   6.793 -0.8159  0.6136  0.4405
  328MOL    H8946523   1.496   0.258   6.717  0.0117 -0.1957 -0.4505
  328MOL    H9046524   1.464   0.230   6.886 -0.0612 -1.9642 -0.8002
  328MOL    H9146525   1.466   0.497   6.741  0.3287 -0.3546  0.3234
  328MOL    H9246526   1.258   0.460   6.762  0.0285  0.2490 -1.8609
  328MOL    C9346527   1.424   0.504   6.962  0.2134 -0.5020 -0.8926
  328MOL    C9446528   1.390   0.655   6.952  0.7482  0.2675 -0.8101
  328MOL    O9546529   1.306   0.703   7.052 -0.2689  0.2743 -0.0095
  328MOL    H9646530   1.363   0.462   7.041 -0.2305  1.4390 -0.1636
  328MOL    H9746531   1.522   0.490   7.009  0.2144  0.1361 -0.6981
  328MOL    H9846532   1.334   0.668   6.860  0.0050 -1.4458 -0.6137
  328MOL    H9946533   1.243   0.757   7.007 -0.5679  1.0029  1.2457
  328MOL   C10046534   1.519   0.746   6.935  0.1923 -0.6009 -0.3501
  328MOL   C10146535   1.617   0.763   7.048  0.3471  0.1603  0.6268
  328MOL   O10246536   1.737   0.819   6.994  0.4071 -0.1927 -0.1878
  328MOL   H10346537   1.573   0.702   6.851  0.0614 -0.4707 -0.5008
  328MOL   H10446538   1.493   0.841   6.889  1.0868 -1.4581 -2.7215
  328MOL   H10546539   1.642   0.671   7.100 -1.6335  0.1198  1.5533
  328MOL   H10646540   1.787   0.850   7.068 -0.2427 -0.0306  0.1874
  328MOL   C10746541   1.572   0.872   7.149 -0.3537  0.1554  0.4061
  328MOL   C10846542   1.512   0.811   7.285  0.1509  0.3201 -0.5415
  328MOL   O10946543   1.618   0.774   7.371 -0.2197 -0.1233 -0.5598
  328MOL   H11046544   1.649   0.942   7.181  1.7121 -1.6841 -0.4563
  328MOL   H11146545   1.496   0.938   7.105  0.9202  2.2137  1.2249
  328MOL   H11246546   1.446   0.725   7.268  0.4313  0.0970 -0.5081
  328MOL   H11346547   1.585   0.746   7.455  2.0993 -0.6368  0.2257
  328MOL   C11446548   1.426   0.906   7.367 -0.1398  0.0108  0.3664
  328MOL   C11546549   1.274   0.913   7.337  0.1872 -0.2137  0.2304
  328MOL   O11646550   1.216   0.802   7.405 -0.4009 -0.0514 -0.2064
  328MOL   H11746551   1.442   0.877   7.471 -0.0793 -2.8994 -0.4058
  328MOL   H11846552   1.478   1.001   7.358 -0.6277  0.2033 -0.4889
  328MOL   H11946553   1.253   0.908   7.230  1.8647  1.3427 -0.2038
  328MOL   H12046554   1.139   0.775   7.357 -0.0403 -1.0127 -0.2628
  328MOL   C12146555   1.219   1.040   7.403 -0.3001 -0.6839 -0.0382
  328MOL   C12246556   1.223   1.154   7.298 -0.3381 -0.2805 -0.1954
  328MOL   O12346557   1.109   1.143   7.213  0.4394  0.0935 -0.2197
  328MOL   H12446558   1.116   1.028   7.434 -0.8339  0.8631 -1.1364
  328MOL   H12546559   1.272   1.068   7.494  0.3419  0.6569 -0.7903
  328MOL   H12646560   1.310   1.141   7.233 -0.7552 -0.8611 -0.6519
  328MOL   H12746561   1.138   1.180   7.131 -1.1173  0.8869 -0.4226
  328MOL   C12846562   1.236   1.299   7.349  0.8173 -0.8298  0.3189
  328MOL   C12946563   1.360   1.328   7.436  0.8236 -0.3969  0.2241
  328MOL   O13046564   1.471   1.341   7.344 -0.1013  0.0621 -0.2140
  328MOL   H13146565   1.205   1.376   7.278  0.6551 -0.9990  0.2021
  328MOL   H13246566   1.142   1.316   7.402  1.8321 -2.7092  2.8053
  328MOL   H13346567   1.389   1.251   7.508  0.4167 -1.0997 -0.3578
  328MOL   H13446568   1.508   1.423   7.374  0.3759 -1.1157  2.5761
  328MOL   C13546569   1.345   1.464   7.499  0.1015 -0.0112 -0.1593
  328MOL   C13646570   1.276   1.457   0.120  0.7621 -0.3297  0.0561
  328MOL   O13746571   1.134   1.434   0.100  0.1711 -0.6484  0.0454
  328MOL   H13846572   1.445   1.492   0.014  1.2782 -1.2264 -2.4375
  328MOL   H13946573   1.316   1.539   7.426  2.8327  0.3118 -0.9668
  328MOL   H14046574   1.284   1.557   0.163 -0.8725 -0.5114  0.8436
  328MOL   H14146575   1.098   1.363   0.152 -1.5508 -0.0650 -0.3119
  328MOL   H14246576   1.319   1.385   0.190 -2.3798 -3.0469 -0.6680
  329MOL     C146577   0.267   4.881   4.859  0.0429  0.5140 -0.2376
  329MOL     C246578   0.219   4.846   4.719  0.1379 -0.1789  0.0214
  329MOL     O346579   0.278   4.719   4.684  0.2177 -0.3068 -0.0711
  329MOL     H446580   0.373   4.864   4.875  0.6789  1.2360 -3.4254
  329MOL     H546581   0.213   4.828   4.938 -1.1043  1.1587 -0.5754
  329MOL     H646582   0.275   4.916   4.657  0.2079 -0.3391 -0.0964
  329MOL     H746583   0.369   4.737   4.669  0.4597 -0.9283  0.6312
  329MOL     H846584   0.225   4.981   4.876 -2.0218 -0.5845  1.4422
  329MOL     C946585   0.069   4.858   4.704  0.3319  0.7518  1.0171
  329MOL    C1046586   0.020   4.878   4.562 -0.0640  0.6701  0.0009
  329MOL    O1146587   7.400   4.847   4.546 -0.3263 -0.2954 -0.1039
  329MOL    H1246588   0.014   4.769   4.737 -0.6887  0.4761 -1.3439
  329MOL    H1346589   0.036   4.939   4.768  1.0557  1.0373  1.0344
  329MOL    H1446590   0.075   4.804   4.503 -2.0252 -2.0172  1.4524
  329MOL    H1546591   7.392   4.753   4.553 -0.7729 -0.3996 -1.7484
  329MOL    C1646592   0.052   5.023   4.516  0.0595  0.3808 -0.3027
  329MOL    C1746593   0.046   5.062   4.369 -0.2675  0.1918  0.5094
  329MOL    O1846594   7.431   5.041   4.324  0.0722 -0.7533  0.1007
  329MOL    H1946595   7.515   5.091   4.579  1.7881  0.0994  1.6227
  329MOL    H2046596   0.153   5.049   4.546 -0.4052  1.8693 -0.0053
  329MOL    H2146597   0.118   4.999   4.318 -1.8772 -0.8709 -0.4711
  329MOL    H2246598   7.390   4.979   4.382  0.4856 -2.1162 -1.0182
  329MOL    C2346599   0.091   5.215   4.351  0.5720  1.5173 -0.1170
  329MOL    C2446600   0.154   5.262   4.222  0.0690  0.0973 -0.6818
  329MOL    O2546601   0.136   5.405   4.207  0.1468  0.3490  0.1545
  329MOL    H2646602   0.008   5.282   4.371 -0.1874  0.9706 -1.3763
  329MOL    H2746603   0.169   5.238   4.424 -0.7802  0.5330  1.6460
  329MOL    H2846604   0.088   5.219   4.147  0.0011  0.7875 -1.0200
  329MOL    H2946605   0.144   5.430   4.116 -0.9495  0.9908  0.2237
  329MOL    C3046606   0.297   5.222   4.193 -0.7676  0.8519  0.2600
  329MOL    C3146607   0.409   5.230   4.306  0.2199  0.0953 -0.2956
  329MOL    O3246608   0.521   5.154   4.250  0.0694 -0.0401  0.1476
  329MOL    H3346609   0.264   5.120   4.171 -0.4528  0.8470 -0.1899
  329MOL    H3446610   0.330   5.270   4.102 -0.1070  1.4729  0.8217
  329MOL    H3546611   0.389   5.188   4.404 -0.5999  2.1344  0.4431
  329MOL    H3646612   0.498   5.064   4.267  1.6957  0.0880  3.4067
  329MOL    C3746613   0.473   5.374   4.329  0.3123 -0.5376  0.3033
  329MOL    C3846614   0.398   5.487   4.400 -0.6835 -0.0880  0.8720
  329MOL    O3946615   0.391   5.452   4.538 -0.3181 -0.0079  0.6055
  329MOL    H4046616   0.562   5.361   4.390 -0.5466 -1.8653  1.3083
  329MOL    H4146617   0.505   5.412   4.232 -1.7065 -1.2430 -0.6806
  329MOL    H4246618   0.295   5.492   4.366 -0.4278 -0.0423  0.0952
  329MOL    H4346619   0.463   5.396   4.564  1.9677  3.2874  1.6741
  329MOL    C4446620   0.473   5.620   4.390  0.3820 -0.3690 -0.2864
  329MOL    C4546621   0.427   5.696   4.260  0.1074  0.2284  0.2932
  329MOL    O4646622   0.307   5.757   4.276 -0.3246 -0.2167 -0.3677
  329MOL    H4746623   0.457   5.682   4.478 -0.9686 -1.5210  0.3143
  329MOL    H4846624   0.578   5.593   4.379  0.7376  0.3648  1.2865
  329MOL    H4946625   0.406   5.629   4.177 -2.3707 -0.6902  1.6163
  329MOL    H5046626   0.289   5.806   4.197  1.3495  1.0058 -0.0401
  329MOL    C5146627   0.538   5.798   4.221 -0.3382  0.1162 -0.4342
  329MOL    C5246628   0.660   5.728   4.147  0.6702  0.7465  0.1245
  329MOL    O5346629   0.618   5.685   4.019 -0.6854  0.1129 -0.4450
  329MOL    H5446630   0.493   5.876   4.160 -1.6153 -1.3251 -1.4104
  329MOL    H5546631   0.579   5.822   4.319 -0.0716  0.7398 -0.7015
  329MOL    H5646632   0.694   5.650   4.215  2.4105  0.5924 -0.9081
  329MOL    H5746633   0.653   5.598   4.001 -2.2801 -0.2133 -2.1116
  329MOL    C5846634   0.767   5.837   4.124  0.7998  0.3114  0.4261
  329MOL    C5946635   0.905   5.781   4.079  0.0106 -0.2388 -0.4210
  329MOL    O6046636   0.891   5.738   3.951  0.0086  0.1154  0.4267
  329MOL    H6146637   0.731   5.904   4.046 -0.9618 -1.2727 -0.1667
  329MOL    H6246638   0.771   5.899   4.213 -1.8798  1.9273 -0.5496
  329MOL    H6346639   0.945   5.698   4.138 -0.6437 -1.5890 -1.8434
  329MOL    H6446640   0.811   5.687   3.944 -1.3493  2.1996  0.1870
  329MOL    C6546641   1.001   5.901   4.094 -0.2364 -0.7808  0.1848
  329MOL    C6646642   1.133   5.885   4.018 -0.5215 -0.2268  0.1735
  329MOL    O6746643   1.197   6.003   4.039  0.5415  0.1344 -0.0142
  329MOL    H6846644   0.958   5.995   4.061  2.6516  0.7848  0.7502
  329MOL    H6946645   1.020   5.909   4.201 -1.0111 -0.2732  0.2918
  329MOL    H7046646   1.108   5.890   3.912 -0.5964  1.6838  0.2674
  329MOL    H7146647   1.224   6.038   3.955  1.1652 -0.7222 -0.1734
  329MOL    C7246648   1.219   5.764   4.056 -0.3462  0.3242  0.4292
  329MOL    C7346649   1.260   5.742   4.203 -0.0706  0.0966  0.7101
  329MOL    O7446650   1.155   5.698   4.281 -0.1138  0.0759  0.1681
  329MOL    H7546651   1.172   5.671   4.025 -0.0457  0.2114  0.3142
  329MOL    H7646652   1.309   5.773   3.995 -1.1159 -0.4327 -0.8269
  329MOL    H7746653   1.281   5.841   4.242  3.0788  1.1387 -3.2585
  329MOL    H7846654   1.204   5.662   4.354  0.3403 -0.1526 -0.2449
  329MOL    C7946655   1.374   5.636   4.204  0.2237  0.1006 -0.3269
  329MOL    C8046656   1.490   5.681   4.299 -0.3413  0.5372  0.3068
  329MOL    O8146657   1.443   5.712   4.426 -0.1699  0.8353 -0.0605
  329MOL    H8246658   1.337   5.549   4.259 -1.3350  1.5785  0.9992
  329MOL    H8346659   1.407   5.612   4.103  0.3327  1.2477 -0.5638
  329MOL    H8446660   1.533   5.775   4.263 -1.9740  0.8161 -1.0053
  329MOL    H8546661   1.468   5.801   4.442  0.0462  0.9039 -0.7795
  329MOL    C8646662   1.599   5.576   4.322  0.1531  0.7674  0.1061
  329MOL    C8746663   1.678   5.543   4.194 -0.5630  0.3059 -0.6333
  329MOL    O8846664   1.761   5.651   4.171 -0.5309  0.5504  0.5010
  329MOL    H8946665   1.673   5.611   4.394 -0.9885  0.7872  1.2897
  329MOL    H9046666   1.562   5.487   4.373 -1.3413  1.3852  0.1123
  329MOL    H9146667   1.609   5.525   4.112  0.8778 -1.4454 -1.5019
  329MOL    H9246668   1.835   5.616   4.123  0.1785  1.1708  1.1274
  329MOL    C9346669   1.777   5.427   4.206  0.3660 -0.8338  0.2748
  329MOL    C9446670   1.839   5.380   4.069 -0.2993 -0.3727 -0.1467
  329MOL    O9546671   1.890   5.492   3.995 -0.4063 -0.0279  0.0015
  329MOL    H9646672   1.844   5.466   4.282  0.2400  0.4770 -0.2764
  329MOL    H9746673   1.722   5.339   4.240  1.5347 -2.4178 -1.8540
  329MOL    H9846674   1.750   5.341   4.021 -1.3267 -1.0268  2.2121
  329MOL    H9946675   1.916   5.463   3.909  0.0808  1.3488 -0.3307
  329MOL   C10046676   1.949   5.268   4.073 -0.2059  0.7072 -0.2379
  329MOL   C10146677   1.902   5.147   4.149 -0.6955  0.1554 -0.3590
  329MOL   O10246678   1.805   5.082   4.073 -0.2054  0.2428  0.7235
  329MOL   H10346679   1.967   5.243   3.969  1.1408  2.4495 -0.4335
  329MOL   H10446680   2.037   5.307   4.124  0.3959  2.5550 -2.6351
  329MOL   H10546681   1.862   5.175   4.247 -0.9602  0.0488 -0.4363
  329MOL   H10646682   1.841   5.034   4.000 -2.0051 -1.1379  0.7147
  329MOL   C10746683   2.013   5.041   4.165 -0.4129 -0.4361  0.0965
  329MOL   C10846684   2.128   5.083   4.254  0.1648 -0.4708  0.6682
  329MOL   O10946685   2.069   5.120   4.375  0.1387 -0.2071 -0.2934
  329MOL   H11046686   1.966   4.956   4.216  0.4151 -0.0850  1.4624
  329MOL   H11146687   2.047   4.999   4.070 -0.6996  0.2878 -0.3260
  329MOL   H11246688   2.179   5.165   4.202  0.5522 -0.8608  0.4261
  329MOL   H11346689   2.058   5.040   4.425 -1.4765 -1.0485 -1.9208
  329MOL   C11446690   2.234   4.970   4.267 -0.4419 -0.1436  0.0301
  329MOL   C11546691   2.345   4.966   4.158 -0.1449 -0.0091 -0.3402
  329MOL   O11646692   2.407   5.092   4.169 -0.0713 -0.0637  0.2563
  329MOL   H11746693   2.293   4.983   4.359  0.7144  0.4606 -0.7785
  329MOL   H11846694   2.173   4.880   4.266 -1.3063  0.4442 -0.5791
  329MOL   H11946695   2.306   4.956   4.057 -0.2093  1.6521 -0.5020
  329MOL   H12046696   2.354   5.156   4.125  1.4785  0.8329 -0.3450
  329MOL   C12146697   2.450   4.849   4.194 -0.6496  0.2055  0.1339
  329MOL   C12246698   2.563   4.818   4.092 -0.6569 -0.3193 -0.2243
  329MOL   O12346699   2.656   4.921   4.093 -0.1243 -0.3302  0.0337
  329MOL   H12446700   2.499   4.882   4.285  0.2684 -0.5378 -0.0897
  329MOL   H12546701   2.392   4.760   4.217 -0.3742  0.4523  1.8184
  329MOL   H12646702   2.522   4.814   3.991  4.2227  1.2051 -2.4560
  329MOL   H12746703   2.602   4.998   4.109 -1.0611 -0.7953 -0.8320
  329MOL   C12846704   2.635   4.685   4.112 -0.0363  0.1952  0.9005
  329MOL   C12946705   2.714   4.651   3.982  0.1906 -0.3875 -0.4683
  329MOL   O13046706   2.840   4.718   3.986 -0.3551  0.2159 -0.2517
  329MOL   H13146707   2.689   4.698   4.206 -0.1306 -1.1868  1.1459
  329MOL   H13246708   2.569   4.602   4.137  3.4886 -2.8626  0.4532
  329MOL   H13346709   2.654   4.676   3.895 -0.2107  0.6494  0.0884
  329MOL   H13446710   2.829   4.806   4.019 -0.0944  0.5263 -0.9838
  329MOL   C13546711   2.732   4.499   3.975 -0.3957 -0.2124  0.1185
  329MOL   C13646712   2.619   4.422   3.911  0.2441 -0.0828 -0.0553
  329MOL   O13746713   2.661   4.291   3.887 -0.3896  0.7727 -0.4470
  329MOL   H13846714   2.813   4.483   3.904  0.4992  2.6460  0.4098
  329MOL   H13946715   2.756   4.455   4.072 -1.8522  0.8063  0.9611
  329MOL   H14046716   2.602   4.460   3.810  0.9518 -2.6247 -1.1988
  329MOL   H14146717   2.680   4.249   3.970 -0.6024 -0.1709 -0.8682
  329MOL   H14246718   2.521   4.430   3.956  0.0703  0.0613 -0.4585
  330MOL     C146719   4.123   2.374   6.956 -0.4604  0.5030 -1.0079
  330MOL     C246720   4.219   2.446   6.862  0.4684  0.6928 -1.0065
  330MOL     O346721   4.336   2.362   6.846 -0.0407  0.0201 -0.1020
  330MOL     H446722   4.175   2.344   7.047 -0.2664  0.6870 -1.0591
  330MOL     H546723   4.088   2.278   6.916 -1.1765  1.9792 -4.0838
  330MOL     H646724   4.242   2.547   6.896 -2.0983  0.8434  0.3905
  330MOL     H746725   4.396   2.393   6.911  1.3515 -0.4775 -1.1305
  330MOL     H846726   4.029   2.422   6.984 -0.4904  0.6307 -1.3241
  330MOL     C946727   4.160   2.449   6.722 -0.5659 -0.3629  0.2817
  330MOL    C1046728   4.036   2.537   6.716  0.9448  0.0622 -0.0074
  330MOL    O1146729   4.080   2.672   6.725 -0.2852  0.2877 -0.2688
  330MOL    H1246730   4.230   2.471   6.641  0.3604 -1.8160  0.6784
  330MOL    H1346731   4.121   2.348   6.707 -1.9014  0.2128 -0.2397
  330MOL    H1446732   3.963   2.503   6.790  1.8005 -1.3551  0.2202
  330MOL    H1546733   4.004   2.725   6.746  0.9864  1.8290  0.6031
  330MOL    C1646734   3.957   2.526   6.587  0.9039  0.1666  0.4602
  330MOL    C1746735   3.871   2.399   6.564 -0.6783  0.6455  0.3284
  330MOL    O1846736   3.730   2.434   6.574  0.0698  0.1663  0.5084
  330MOL    H1946737   3.890   2.612   6.580  2.1002  1.0325 -0.7561
  330MOL    H2046738   4.022   2.532   6.499  0.9639  0.4012  0.5196
  330MOL    H2146739   3.898   2.325   6.639  0.0343  0.0897 -0.4686
  330MOL    H2246740   3.701   2.474   6.494 -1.1327 -0.6999  0.5033
  330MOL    C2346741   3.887   2.335   6.416 -0.1620  0.2367  0.1244
  330MOL    C2446742   4.034   2.279   6.387 -0.9527 -1.0213  0.0496
  330MOL    O2546743   4.081   2.197   6.490  0.9082 -0.3462  0.3344
  330MOL    H2646744   3.814   2.257   6.394  0.4021 -0.2049 -0.2017
  330MOL    H2746745   3.862   2.411   6.342 -0.5002 -0.5871 -0.6113
  330MOL    H2846746   4.095   2.369   6.390 -0.9355 -1.0116 -0.5569
  330MOL    H2946747   4.036   2.114   6.500 -0.3027  0.5149  2.3431
  330MOL    C3046748   4.045   2.224   6.238  0.8041 -0.4400  0.0635
  330MOL    C3146749   4.180   2.166   6.188  0.1898  0.1085 -0.5425
  330MOL    O3246750   4.195   2.041   6.250  0.1992 -0.0451  0.2794
  330MOL    H3346751   3.955   2.171   6.207  1.2415 -0.6074 -0.9422
  330MOL    H3446752   4.019   2.316   6.185  2.5767 -0.1130 -0.2704
  330MOL    H3546753   4.252   2.238   6.227  0.4635 -0.6046  0.2982
  330MOL    H3646754   4.165   2.051   6.339 -1.7852  1.2608 -0.4962
  330MOL    C3746755   4.193   2.167   6.037  0.7203  0.3468 -0.2206
  330MOL    C3846756   4.329   2.134   5.981 -0.4232 -0.2544 -0.2769
  330MOL    O3946757   4.327   2.068   5.849 -0.5374 -0.0687 -0.1311
  330MOL    H4046758   4.119   2.096   6.000 -1.3975  2.1030  0.5109
  330MOL    H4146759   4.157   2.266   6.008 -1.1420 -0.2900 -0.1386
  330MOL    H4246760   4.379   2.063   6.047 -0.2031 -1.0910 -1.3277
  330MOL    H4346761   4.272   1.993   5.861  1.4387 -1.6872 -0.8663
  330MOL    C4446762   4.428   2.253   5.968 -0.5920 -0.3937 -0.2544
  330MOL    C4546763   4.578   2.225   5.989 -0.0003  0.6666  0.2079
  330MOL    O4646764   4.633   2.186   5.869  0.0820  0.1685 -0.1636
  330MOL    H4746765   4.426   2.287   5.864  0.5381  1.7968  0.4042
  330MOL    H4846766   4.397   2.342   6.024  0.8485 -0.5439  0.7933
  330MOL    H4946767   4.578   2.153   6.071 -4.2766  1.8563  1.3474
  330MOL    H5046768   4.580   2.118   5.833 -1.3859  1.2367 -0.0770
  330MOL    C5146769   4.669   2.346   6.037 -0.6256  0.5135 -0.1923
  330MOL    C5246770   4.815   2.314   6.092 -0.1121 -0.0125 -0.7367
  330MOL    O5346771   4.900   2.292   5.981 -0.0209  0.1945 -0.1415
  330MOL    H5446772   4.669   2.423   5.961  3.4870  0.7631 -0.0549
  330MOL    H5546773   4.617   2.383   6.126 -1.0466 -0.9288  0.1770
  330MOL    H5646774   4.808   2.217   6.142 -1.8480  0.9177  0.9233
  330MOL    H5746775   4.845   2.239   5.925 -1.1393  0.1738  0.9639
  330MOL    C5846776   4.868   2.432   6.175 -0.3671  1.0305 -0.2155
  330MOL    C5946777   4.987   2.404   6.261  0.0570  0.3458 -0.1847
  330MOL    O6046778   4.994   2.521   6.346 -0.6839 -0.0153 -0.1457
  330MOL    H6146779   4.889   2.519   6.113  2.2731 -0.2159 -1.1283
  330MOL    H6246780   4.788   2.478   6.234  0.1510  1.9446 -0.2314
  330MOL    H6346781   5.086   2.408   6.215  0.4499 -0.3467  0.5764
  330MOL    H6446782   4.930   2.505   6.414 -0.6797  1.6177  0.2621
  330MOL    C6546783   4.976   2.275   6.341 -0.1212  0.6107  0.5928
  330MOL    C6646784   5.093   2.229   6.427  0.3643  0.7593  0.1085
  330MOL    O6746785   5.116   2.332   6.515 -0.2274 -0.9141 -0.3995
  330MOL    H6846786   4.896   2.285   6.414 -0.6191  1.7624 -0.1031
  330MOL    H6946787   4.953   2.191   6.275  1.4157  0.2455  0.5018
  330MOL    H7046788   5.182   2.233   6.364  0.6496  0.7648  0.5108
  330MOL    H7146789   5.108   2.414   6.470  2.2122 -0.3101  0.1958
  330MOL    C7246790   5.072   2.098   6.498 -0.1462  0.0912  0.2348
  330MOL    C7346791   4.943   2.072   6.574  0.1845 -0.2330  0.2698
  330MOL    O7446792   4.843   2.022   6.483 -0.3328  0.1491 -0.4696
  330MOL    H7546793   5.078   2.019   6.423 -1.4692 -0.4268  0.6576
  330MOL    H7646794   5.159   2.087   6.563  2.7189  0.4970 -3.3559
  330MOL    H7746795   4.915   2.173   6.605 -1.8290 -1.2610  1.9739
  330MOL    H7846796   4.848   1.930   6.461  0.1269  0.2430 -0.7773
  330MOL    C7946797   4.956   1.979   6.695 -0.2245  0.3653  0.6016
  330MOL    C8046798   5.027   2.034   6.820  0.0011  0.9302 -0.3020
  330MOL    O8146799   4.941   2.140   6.872  0.4201 -0.5819  0.1603
  330MOL    H8246800   4.860   1.939   6.730 -0.6620  1.2342  0.3980
  330MOL    H8346801   4.994   1.885   6.657  1.0386  0.1467  2.3455
  330MOL    H8446802   5.123   2.073   6.786  0.1241 -0.1053 -1.1416
  330MOL    H8546803   4.863   2.102   6.909 -0.4846  0.4198 -0.7091
  330MOL    C8646804   5.023   1.923   6.928  0.5036 -0.6170  0.6372
  330MOL    C8746805   5.120   1.949   7.040  0.3059 -0.1365  0.3271
  330MOL    O8846806   5.100   1.858   7.150  0.7087  0.3285 -0.3685
  330MOL    H8946807   4.925   1.899   6.968  0.8560  1.1729  2.6398
  330MOL    H9046808   5.059   1.829   6.885 -0.2536  0.0281 -1.4641
  330MOL    H9146809   5.091   2.035   7.101 -1.2608 -2.2404  2.6868
  330MOL    H9246810   5.007   1.863   7.165  0.6539  0.5184 -0.7595
  330MOL    C9346811   5.267   1.954   6.983  0.3349  0.0510 -0.0102
  330MOL    C9446812   5.360   2.034   7.077  0.0345  0.3569 -0.3234
  330MOL    O9546813   5.483   1.965   7.093 -0.1448 -0.4862  0.6323
  330MOL    H9646814   5.300   1.850   6.978 -0.2017 -0.1401  0.3274
  330MOL    H9746815   5.281   1.984   6.879  0.6078  1.8962  0.5494
  330MOL    H9846816   5.322   2.050   7.178 -1.2496 -1.4803 -0.4971
  330MOL    H9946817   5.513   1.939   7.007 -1.6720 -2.3379  0.6145
  330MOL   C10046818   5.394   2.175   7.031 -0.4021 -0.6216  0.2252
  330MOL   C10146819   5.273   2.271   7.027 -0.6716 -0.4745  0.0548
  330MOL   O10246820   5.204   2.262   7.148 -0.4626 -0.5104  0.0814
  330MOL   H10346821   5.460   2.219   7.105  0.0435 -2.8396  1.1895
  330MOL   H10446822   5.438   2.160   6.932  0.5209 -2.6544  0.9171
  330MOL   H10546823   5.214   2.240   6.940 -2.1879  1.5168  0.3297
  330MOL   H10646824   5.146   2.336   7.138 -0.1251 -0.2278  0.2116
  330MOL   C10746825   5.316   2.417   7.018 -0.2113  0.0781  0.0993
  330MOL   C10846826   5.201   2.511   6.971  0.2671  0.4348 -0.1405
  330MOL   O10946827   5.103   2.523   7.073 -0.3746 -0.2448 -0.6702
  330MOL   H11046828   5.368   2.449   7.108 -1.2030 -0.2891  0.8149
  330MOL   H11146829   5.391   2.413   6.940  0.9223 -1.2113  1.2215
  330MOL   H11246830   5.155   2.459   6.887  3.4444  0.8554 -2.2340
  330MOL   H11346831   5.026   2.558   7.031  0.5559  0.7016 -1.6001
  330MOL   C11446832   5.252   2.647   6.914  0.0435 -0.1977  0.3418
  330MOL   C11546833   5.145   2.727   6.843 -0.0175  0.0242  0.0444
  330MOL   O11646834   5.044   2.763   6.936  0.0469 -0.5154 -0.1872
  330MOL   H11746835   5.285   2.710   6.997  0.6561  0.4252 -0.3724
  330MOL   H11846836   5.338   2.633   6.849 -1.4515  0.2831 -1.8175
  330MOL   H11946837   5.099   2.664   6.767  1.5868  1.0892 -1.8857
  330MOL   H12046838   5.085   2.795   7.015 -0.3571  0.5284 -0.3953
  330MOL   C12146839   5.196   2.858   6.777  0.2627  0.2151 -0.0959
  330MOL   C12246840   5.142   2.900   6.640 -0.1771  0.0493  0.9670
  330MOL   O12346841   5.211   3.018   6.594 -0.3246 -0.6806  0.2785
  330MOL   H12446842   5.163   2.948   6.829  1.8283  2.5509 -3.0023
  330MOL   H12546843   5.305   2.863   6.773  0.3786 -2.3619 -1.2841
  330MOL   H12646844   5.034   2.912   6.644  0.0274  1.1584  4.5501
  330MOL   H12746845   5.192   3.091   6.651 -0.0648 -1.2906  1.1575
  330MOL   C12846846   5.177   2.795   6.528  0.2509  0.1140 -0.2150
  330MOL   C12946847   5.125   2.837   6.388 -0.3200  0.1753 -0.3122
  330MOL   O13046848   5.163   2.735   6.297  0.1161 -0.0512 -0.1257
  330MOL   H13146849   5.285   2.785   6.520  0.2329 -1.7620  1.4106
  330MOL   H13246850   5.145   2.694   6.553 -2.1045  0.5704 -1.1781
  330MOL   H13346851   5.182   2.927   6.364 -0.2335  0.3662  0.5938
  330MOL   H13446852   5.099   2.667   6.311 -2.5265  2.2739 -0.5524
  330MOL   C13546853   4.976   2.852   6.382  0.2837  0.2283  0.1479
  330MOL   C13646854   4.923   2.878   6.243 -0.3876  0.3754  0.8812
  330MOL   O13746855   4.786   2.907   6.258  0.2916  0.8304 -0.3130
  330MOL   H13846856   4.923   2.763   6.417 -0.1527  1.2484  2.1126
  330MOL   H13946857   4.934   2.924   6.451  1.2929  0.8122  0.1628
  330MOL   H14046858   4.927   2.784   6.188  0.1882  0.4303  0.8286
  330MOL   H14146859   4.783   2.998   6.282 -0.3046  1.1880 -1.7430
  330MOL   H14246860   4.972   2.959   6.188 -3.5872  0.3022 -2.2890
  331MOL     C146861   1.391   6.659   1.212  0.1783 -0.5230  0.9100
  331MOL     C246862   1.534   6.600   1.186 -0.4558 -0.4423  0.2358
  331MOL     O346863   1.586   6.619   1.054 -0.2686 -0.5664  0.1566
  331MOL     H446864   1.401   6.766   1.193  1.3323 -0.6799  0.5502
  331MOL     H546865   1.378   6.643   1.319 -1.1665 -1.2071  0.6501
  331MOL     H646866   1.539   6.493   1.205  1.4152  0.0003  2.6016
  331MOL     H746867   1.541   6.562   0.994 -2.9686  0.7104  0.8711
  331MOL     H846868   1.305   6.609   1.168  0.6392 -0.9019  0.4339
  331MOL     C946869   1.633   6.682   1.264  0.4961 -0.1257  0.2917
  331MOL    C1046870   1.653   6.639   1.410  0.4828 -0.8444 -0.1627
  331MOL    O1146871   1.734   6.527   1.406  0.0676  0.5465 -0.6120
  331MOL    H1246872   1.730   6.670   1.214  0.6191 -0.0397  0.5096
  331MOL    H1346873   1.603   6.786   1.251 -2.7608 -1.1177 -0.6479
  331MOL    H1446874   1.561   6.607   1.458  0.7313 -2.0649 -0.4626
  331MOL    H1546875   1.684   6.447   1.403  0.6105  0.1352  1.2003
  331MOL    C1646876   1.714   6.752   1.499  0.1366  0.0969  0.2865
  331MOL    C1746877   1.614   6.847   1.563 -0.2515  0.3271 -0.7456
  331MOL    O1846878   1.519   6.877   1.470 -0.0865  0.1951 -0.4326
  331MOL    H1946879   1.755   6.692   1.581 -0.7402 -1.1019 -0.1252
  331MOL    H2046880   1.799   6.794   1.446 -0.2526  1.0909  0.4449
  331MOL    H2146881   1.666   6.939   1.591  0.6028 -0.4822  0.3557
  331MOL    H2246882   1.440   6.913   1.508 -0.2555 -0.8357  0.2077
  331MOL    C2346883   1.540   6.785   1.682 -0.0360 -0.1984  0.2837
  331MOL    C2446884   1.613   6.793   1.820  0.1628  0.4364  0.0058
  331MOL    O2546885   1.577   6.912   1.884 -0.0942  0.1722  0.1297
  331MOL    H2646886   1.439   6.826   1.689 -0.6069 -1.8532  2.0108
  331MOL    H2746887   1.512   6.681   1.665  0.5127 -0.1740 -0.8204
  331MOL    H2846888   1.719   6.814   1.809 -0.2461  2.6198 -0.0002
  331MOL    H2946889   1.642   6.975   1.856  0.4195  0.0301  1.0044
  331MOL    C3046890   1.593   6.681   1.917  0.4237  0.8813 -0.2843
  331MOL    C3146891   1.664   6.552   1.882  0.0830  0.8462 -0.1837
  331MOL    O3246892   1.719   6.506   2.008 -0.4323  0.0310  0.2630
  331MOL    H3346893   1.630   6.726   2.009 -1.1643  3.2677 -0.7676
  331MOL    H3446894   1.487   6.660   1.935  1.0805 -0.4980  2.1748
  331MOL    H3546895   1.741   6.575   1.809 -0.3342 -1.9847 -1.5780
  331MOL    H3646896   1.738   6.415   1.990 -1.9108 -0.7498  2.4455
  331MOL    C3746897   1.593   6.429   1.824  0.2278 -0.4938  0.2588
  331MOL    C3846898   1.684   6.320   1.764  0.5410  0.3205 -0.7483
  331MOL    O3946899   1.764   6.274   1.873  0.2848  0.0421  0.3767
  331MOL    H4046900   1.519   6.394   1.896  0.4531 -1.1630  0.1655
  331MOL    H4146901   1.537   6.453   1.734 -1.2164 -1.6034  0.8307
  331MOL    H4246902   1.739   6.367   1.682  0.2273  0.7205 -0.7320
  331MOL    H4346903   1.845   6.236   1.842 -0.2057 -0.9996  0.3481
  331MOL    C4446904   1.604   6.188   1.721 -0.2073  0.3532  0.4992
  331MOL    C4546905   1.541   6.187   1.584 -0.1102 -0.3936  0.2787
  331MOL    O4646906   1.634   6.232   1.491 -0.4254  0.3351  0.1519
  331MOL    H4746907   1.686   6.116   1.720 -0.2024  0.3597  0.3574
  331MOL    H4846908   1.535   6.167   1.803 -0.4128  0.6782  0.4116
  331MOL    H4946909   1.448   6.242   1.574 -0.6003 -1.0861  0.9389
  331MOL    H5046910   1.687   6.155   1.480 -1.6841 -0.4349 -0.6153
  331MOL    C5146911   1.505   6.040   1.541  0.1614  0.1645  0.4406
  331MOL    C5246912   1.383   5.975   1.607 -0.2827 -0.6817 -0.0282
  331MOL    O5346913   1.269   6.034   1.546  0.2700  0.5329  0.0507
  331MOL    H5446914   1.506   6.028   1.433 -0.9739  0.3758  0.4025
  331MOL    H5546915   1.588   5.978   1.577 -0.8221 -2.2996 -1.3938
  331MOL    H5646916   1.386   6.008   1.711 -1.6568 -0.0736 -0.1646
  331MOL    H5746917   1.188   6.020   1.594 -0.7059  0.2343 -1.6666
  331MOL    C5846918   1.372   5.828   1.595 -0.4550  0.4683  0.3382
  331MOL    C5946919   1.457   5.751   1.688 -0.1924 -0.1750 -0.5314
  331MOL    O6046920   1.432   5.781   1.827  0.1386  0.4465 -0.1070
  331MOL    H6146921   1.266   5.807   1.613 -0.2987  0.4686  1.2569
  331MOL    H6246922   1.390   5.805   1.490  0.6337  1.0998  0.3826
  331MOL    H6346923   1.558   5.785   1.663 -1.3185  0.7593 -4.0264
  331MOL    H6446924   1.513   5.772   1.874  0.2995  2.2902  0.0271
  331MOL    C6546925   1.454   5.598   1.684 -0.4444 -0.8348 -0.6372
  331MOL    C6646926   1.533   5.540   1.567 -0.2917  0.9461 -0.7253
  331MOL    O6746927   1.680   5.558   1.581  0.2852  0.2841 -0.5997
  331MOL    H6846928   1.501   5.549   1.770 -1.0151 -1.4109 -0.6581
  331MOL    H6946929   1.351   5.567   1.694  0.1817 -1.6810  4.8502
  331MOL    H7046930   1.503   5.592   1.476 -1.9934 -2.3959 -2.1393
  331MOL    H7146931   1.718   5.519   1.658  1.6022 -1.0795 -1.8987
  331MOL    C7246932   1.490   5.395   1.541 -0.0471 -0.1090  0.0086
  331MOL    C7346933   1.517   5.331   1.399 -0.0665  0.6066  0.0987
  331MOL    O7446934   1.484   5.411   1.289 -0.1849 -0.8872 -0.1824
  331MOL    H7546935   1.532   5.326   1.615 -0.6789 -3.4998 -2.6395
  331MOL    H7646936   1.381   5.401   1.548 -0.0476 -0.9024  0.7943
  331MOL    H7746937   1.439   5.255   1.393 -0.8392  1.3520  0.4857
  331MOL    H7846938   1.398   5.448   1.300 -1.3289 -3.0502 -1.5306
  331MOL    C7946939   1.657   5.268   1.386  0.5617  0.4321 -0.2776
  331MOL    C8046940   1.684   5.158   1.282  0.8685 -0.2662  0.1614
  331MOL    O8146941   1.820   5.124   1.296 -0.1199 -0.0022  0.0842
  331MOL    H8246942   1.732   5.344   1.366 -0.5720  2.0482  1.4628
  331MOL    H8346943   1.679   5.240   1.489 -0.2608  2.8950  0.5870
  331MOL    H8446944   1.667   5.189   1.179  0.3585 -0.6157  0.1382
  331MOL    H8546945   1.868   5.200   1.269 -0.0943  0.1770  0.6393
  331MOL    C8646946   1.593   5.026   1.308 -0.2182 -0.5563 -0.2953
  331MOL    C8746947   1.624   4.903   1.217 -0.0748  0.2463  0.4462
  331MOL    O8846948   1.549   4.794   1.255 -0.1711  0.0611  0.3848
  331MOL    H8946949   1.609   4.998   1.412 -2.9313 -0.1123  0.2738
  331MOL    H9046950   1.486   5.042   1.301 -0.3577 -1.1593  0.4728
  331MOL    H9146951   1.730   4.877   1.220  0.0651  0.5204 -1.5100
  331MOL    H9246952   1.543   4.794   1.349 -1.6055  1.8001  0.3135
  331MOL    C9346953   1.581   4.930   1.070 -0.1987  0.1636  0.0375
  331MOL    C9446954   1.655   4.828   0.981  0.7953 -0.3262  0.1964
  331MOL    O9546955   1.564   4.765   0.891 -0.2916  0.0446  0.7990
  331MOL    H9646956   1.474   4.920   1.051  0.0174 -2.1646 -0.0385
  331MOL    H9746957   1.609   5.032   1.043 -1.9675  0.0093 -2.5607
  331MOL    H9846958   1.695   4.748   1.043  0.7234  0.8832  1.8320
  331MOL    H9946959   1.499   4.715   0.938 -0.5246  0.6484  1.1239
  331MOL   C10046960   1.766   4.888   0.896  0.2917  0.2855 -0.0720
  331MOL   C10146961   1.878   4.796   0.836  0.4630  0.3116 -0.6226
  331MOL   O10246962   1.966   4.873   0.753  0.0041 -0.0753 -0.3832
  331MOL   H10346963   1.711   4.933   0.813 -1.5672 -0.1774  0.8933
  331MOL   H10446964   1.814   4.977   0.937 -0.4255  0.4800  0.3598
  331MOL   H10546965   1.832   4.726   0.766 -1.0067  1.5605 -0.9363
  331MOL   H10646966   1.959   4.965   0.774 -0.9660 -0.1553 -0.3649
  331MOL   C10746967   1.957   4.742   0.949 -0.1395 -0.2152 -0.2378
  331MOL   C10846968   1.896   4.594   0.983  0.2886  0.2958 -0.0080
  331MOL   O10946969   1.977   4.501   0.911 -0.3366 -0.4611  0.0343
  331MOL   H11046970   2.063   4.741   0.924 -0.6083 -1.7259 -2.2754
  331MOL   H11146971   1.956   4.801   1.041 -1.4415 -3.0256  1.6218
  331MOL   H11246972   1.795   4.578   0.946  0.3069  1.1115 -0.4354
  331MOL   H11346973   1.970   4.418   0.956 -2.2476  0.8421  2.2092
  331MOL   C11446974   1.890   4.578   1.140  0.2027  0.3763 -0.1504
  331MOL   C11546975   1.863   4.432   1.189  0.4425  0.8726 -0.3037
  331MOL   O11646976   1.969   4.347   1.161  0.2036 -0.4634 -0.3978
  331MOL   H11746977   1.977   4.624   1.187 -1.1710  1.4000  1.4617
  331MOL   H11846978   1.808   4.632   1.187 -0.8850 -1.1586 -0.2380
  331MOL   H11946979   1.773   4.391   1.145  0.9246  0.8691 -1.3002
  331MOL   H12046980   2.036   4.395   1.207  0.3462 -0.6793 -0.3809
  331MOL   C12146981   1.828   4.426   1.345  0.0132  0.1540 -0.0259
  331MOL   C12246982   1.686   4.487   1.382  0.8893 -0.5737  0.1800
  331MOL   O12346983   1.597   4.392   1.328  0.2432 -0.2973  0.1385
  331MOL   H12446984   1.832   4.322   1.377  1.3577  1.1263  3.1726
  331MOL   H12546985   1.914   4.480   1.385  0.6309  1.3795 -2.8987
  331MOL   H12646986   1.663   4.582   1.334  0.6167 -0.6742  0.1138
  331MOL   H12746987   1.516   4.440   1.333  0.7483  0.7112 -1.1191
  331MOL   C12846988   1.673   4.501   1.540 -0.4987  0.0288 -0.1201
  331MOL   C12946989   1.737   4.636   1.592  0.6096 -0.3789 -0.9386
  331MOL   O13046990   1.660   4.739   1.532 -0.1305 -0.0575 -0.3747
  331MOL   H13146991   1.572   4.502   1.580 -1.5276 -0.2813 -2.6118
  331MOL   H13246992   1.713   4.412   1.589  4.1393  1.6624 -0.7156
  331MOL   H13346993   1.845   4.646   1.580  0.5582 -1.3986 -2.3482
  331MOL   H13446994   1.661   4.822   1.577 -0.2387  0.1192 -0.6975
  331MOL   C13546995   1.721   4.648   1.750  0.7934 -0.0894  0.0088
  331MOL   C13646996   1.845   4.579   1.821 -0.3053 -0.6833  0.5330
  331MOL   O13746997   1.815   4.548   1.948  0.0641  0.0168  0.3708
  331MOL   H13846998   1.734   4.754   1.770  1.9824  0.1727 -2.1025
  331MOL   H13946999   1.620   4.623   1.784  1.3475 -1.0850  0.9566
  331MOL   H14047000   1.936   4.639   1.828  0.1403 -1.1713 -1.0081
  331MOL   H14147001   1.894   4.510   1.984 -0.4777 -1.9875 -0.4858
  331MOL   H14247002   1.870   4.488   1.768 -0.5276 -0.7534  0.5455
  332MOL     C147003   0.772   6.921   3.418  0.6696  0.4131  0.2688
  332MOL     C247004   0.822   7.025   3.324 -0.7545 -0.0352  0.2364
  332MOL     O347005   0.959   7.017   3.325 -0.4708 -0.7013  0.1047
  332MOL     H447006   0.663   6.923   3.426  0.7287 -0.5773  1.4894
  332MOL     H547007   0.822   6.921   3.515 -1.5853  1.2516  1.4650
  332MOL     H647008   0.799   7.125   3.362  2.3363  0.6399  0.4266
  332MOL     H747009   0.980   6.925   3.320  0.7988 -0.5270  1.6908
  332MOL     H847010   0.793   6.821   3.380 -1.3973 -0.1712  0.6139
  332MOL     C947011   0.768   7.023   3.184  0.2019  0.5795  0.3641
  332MOL    C1047012   0.804   6.901   3.092 -0.2094  0.3504 -0.3004
  332MOL    O1147013   0.733   6.774   3.124  0.2918 -0.2145 -0.1774
  332MOL    H1247014   0.663   7.051   3.175  0.2447  1.0827  1.4340
  332MOL    H1347015   0.808   7.106   3.127 -1.0497 -1.1026 -3.1263
  332MOL    H1447016   0.910   6.886   3.112 -0.0928  1.1756 -0.2756
  332MOL    H1547017   0.641   6.791   3.114 -0.0165 -1.7573 -0.0718
  332MOL    C1647018   0.785   6.939   2.943  0.4777  0.2583 -0.4309
  332MOL    C1747019   0.831   6.820   2.853  0.1586 -0.4200 -0.2815
  332MOL    O1847020   0.843   6.876   2.724 -0.2260  0.4333  0.0182
  332MOL    H1947021   0.684   6.976   2.928  0.4251  0.5054  0.4917
  332MOL    H2047022   0.860   7.018   2.931 -0.3377  1.0715 -0.2105
  332MOL    H2147023   0.754   6.743   2.857 -0.7924  0.6415  4.4325
  332MOL    H2247024   0.768   6.845   2.676 -2.2148  2.8560  1.4487
  332MOL    C2347025   0.962   6.766   2.879  0.4088 -0.8649 -0.2921
  332MOL    C2447026   0.998   6.633   2.805  0.2668 -0.0581  0.3423
  332MOL    O2547027   0.994   6.661   2.668  0.1852  0.0473  0.2564
  332MOL    H2647028   1.034   6.844   2.855 -0.1587  0.0842  1.0101
  332MOL    H2747029   0.980   6.740   2.983 -1.0328 -0.9702 -0.0559
  332MOL    H2847030   0.918   6.564   2.831 -0.9657  0.7684 -1.2341
  332MOL    H2947031   0.928   6.726   2.647 -0.7490 -0.7045  0.8464
  332MOL    C3047032   1.128   6.555   2.839 -0.3839 -0.0370 -0.2086
  332MOL    C3147033   1.153   6.423   2.768 -0.6464 -0.6600 -0.4074
  332MOL    O3247034   1.294   6.420   2.756 -0.0369 -0.5948 -0.0082
  332MOL    H3347035   1.210   6.624   2.822  0.4779 -1.0021 -0.0467
  332MOL    H3447036   1.107   6.539   2.945  1.7189  2.7468  0.6920
  332MOL    H3547037   1.105   6.435   2.671 -1.1403 -2.6953 -0.4233
  332MOL    H3647038   1.322   6.382   2.838  1.0589  1.4719  0.6043
  332MOL    C3747039   1.094   6.301   2.846  0.0713 -0.1445 -0.1071
  332MOL    C3847040   1.131   6.165   2.774  0.6680  0.7268 -0.2710
  332MOL    O3947041   1.139   6.063   2.876 -0.5467  0.4090 -0.3346
  332MOL    H4047042   1.140   6.298   2.945 -0.1685 -0.7085 -0.0072
  332MOL    H4147043   0.985   6.304   2.843  0.0785  0.4298  0.2079
  332MOL    H4247044   1.230   6.166   2.728  0.8714 -1.3169  0.1024
  332MOL    H4347045   1.139   5.978   2.836 -0.6434  0.4265 -0.3712
  332MOL    C4447046   1.025   6.114   2.673  0.7540 -0.3211 -0.2269
  332MOL    C4547047   1.088   6.013   2.583  0.0362  0.3011 -0.2804
  332MOL    O4647048   1.090   5.885   2.655 -0.1714 -0.2142  0.7896
  332MOL    H4747049   0.936   6.083   2.728  0.4305  0.0316 -0.5518
  332MOL    H4847050   0.997   6.202   2.615 -1.3027 -2.2218 -2.2180
  332MOL    H4947051   1.191   6.034   2.554  0.7609 -2.1921  0.3433
  332MOL    H5047052   1.111   5.815   2.594  0.9072  0.8303 -0.0703
  332MOL    C5147053   1.001   5.995   2.452 -0.9112 -0.3519  0.1583
  332MOL    C5247054   1.059   5.908   2.334  0.3804 -0.3623  0.6609
  332MOL    O5347055   1.089   5.779   2.382 -0.7424  0.0970  0.4811
  332MOL    H5447056   0.902   5.959   2.478 -1.2102  0.2482 -0.1434
  332MOL    H5547057   0.988   6.096   2.415  0.2768 -0.4841 -0.6435
  332MOL    H5647058   1.156   5.943   2.299 -0.9529  0.6469 -2.1622
  332MOL    H5747059   1.184   5.779   2.388 -0.7678  1.0038  0.9201
  332MOL    C5847060   0.951   5.892   2.215  0.5664 -0.3834 -0.1525
  332MOL    C5947061   0.984   5.976   2.094  0.1964 -0.2527  0.7598
  332MOL    O6047062   0.867   5.974   2.013 -0.2385  0.2253  0.3947
  332MOL    H6147063   0.943   5.788   2.183  1.0124  0.1400 -2.0158
  332MOL    H6247064   0.856   5.903   2.267 -0.5131  0.4028 -2.2471
  332MOL    H6347065   1.058   5.918   2.038 -0.2314 -0.1919  0.1325
  332MOL    H6447066   0.809   6.043   2.042 -0.5674  0.2496 -0.3159
  332MOL    C6547067   1.060   6.116   2.119 -0.2200 -0.2247  0.1934
  332MOL    C6647068   1.067   6.198   1.985  0.7334 -0.6542  0.2100
  332MOL    O6747069   0.942   6.253   1.963 -0.2351  0.0187 -0.5941
  332MOL    H6847070   1.019   6.179   2.197 -0.2010  1.8095 -1.3931
  332MOL    H6947071   1.163   6.099   2.149 -0.0341  3.2864  1.7169
  332MOL    H7047072   1.080   6.128   1.903  0.6864 -0.1597 -0.2232
  332MOL    H7147073   0.925   6.253   1.870  3.6380  0.2863 -1.3877
  332MOL    C7247074   1.177   6.314   1.976  0.2007  0.5435  0.6972
  332MOL    C7347075   1.171   6.408   1.848 -0.5831  0.6404 -0.0366
  332MOL    O7447076   1.278   6.506   1.868 -0.8509  0.0702 -0.1044
  332MOL    H7547077   1.164   6.390   2.053 -1.4648  1.0999 -0.1072
  332MOL    H7647078   1.278   6.274   1.984 -0.9461 -2.4644  0.6935
  332MOL    H7747079   1.084   6.474   1.850 -0.4702  0.8392 -1.0856
  332MOL    H7847080   1.238   6.587   1.895 -1.0304 -0.1974  0.4434
  332MOL    C7947081   1.205   6.330   1.726 -0.4334 -0.6132 -0.0437
  332MOL    C8047082   1.203   6.417   1.597  0.5419 -0.1130 -0.6816
  332MOL    O8147083   1.325   6.496   1.587  0.6531  0.6090 -0.3317
  332MOL    H8247084   1.305   6.288   1.735 -0.5254 -0.4063  2.1888
  332MOL    H8347085   1.134   6.248   1.734 -1.7499  0.6089  1.1488
  332MOL    H8447086   1.113   6.477   1.598  0.4865 -0.1815  1.7976
  332MOL    H8547087   1.350   6.532   1.670  0.3836 -2.2255  1.0519
  332MOL    C8647088   1.194   6.331   1.473  0.0592  0.0518 -0.2889
  332MOL    C8747089   1.144   6.397   1.341  0.1350  0.0081 -0.2640
  332MOL    O8847090   1.173   6.308   1.232 -0.0970 -0.2212  0.0578
  332MOL    H8947091   1.290   6.285   1.453 -1.0626 -2.1410 -0.7140
  332MOL    H9047092   1.130   6.245   1.493  1.0069 -0.2209  1.6648
  332MOL    H9147093   1.202   6.488   1.328 -1.6023  1.1321 -0.1819
  332MOL    H9247094   1.259   6.269   1.239 -0.9229 -2.3440 -1.1909
  332MOL    C9347095   0.992   6.414   1.347  0.0941 -0.2883  0.3148
  332MOL    C9447096   0.919   6.507   1.244 -0.9631  0.3890  0.0128
  332MOL    O9547097   0.782   6.466   1.228 -0.0814  0.4836  0.6868
  332MOL    H9647098   0.954   6.313   1.333  0.2240 -0.6785  2.6846
  332MOL    H9747099   0.964   6.438   1.449  0.3340  0.0083  0.3095
  332MOL    H9847100   0.971   6.495   1.149 -0.7798  0.4405  0.1079
  332MOL    H9947101   0.777   6.374   1.206  0.4180  0.1321  2.0170
  332MOL   C10047102   0.934   6.658   1.287  0.2073 -0.4312 -0.1747
  332MOL   C10147103   0.859   6.760   1.196  0.2254  0.7580  0.0297
  332MOL   O10247104   0.809   6.865   1.270 -0.0212 -0.5354 -0.3142
  332MOL   H10347105   0.896   6.660   1.389  0.3751 -0.5121 -0.1107
  332MOL   H10447106   1.039   6.684   1.298  0.1358  0.0517 -0.6220
  332MOL   H10547107   0.781   6.711   1.138  0.9730  0.0978 -0.4441
  332MOL   H10647108   0.733   6.828   1.311  0.7431  0.7059  2.3327
  332MOL   C10747109   0.959   6.806   1.088  0.2809  0.1929  0.0853
  332MOL   C10847110   0.885   6.891   0.978  0.1773 -0.1659  0.5148
  332MOL   O10947111   0.984   6.964   0.917 -0.5692 -0.7866  0.4903
  332MOL   H11047112   1.038   6.865   1.135 -0.0029 -0.6370  1.6431
  332MOL   H11147113   1.019   6.730   1.039 -0.7267 -0.0082 -0.8511
  332MOL   H11247114   0.813   6.961   1.023  0.8426  0.3560  0.7826
  332MOL   H11347115   0.953   7.024   0.850 -0.1864 -0.3881  0.6657
  332MOL   C11447116   0.815   6.793   0.879 -0.5773 -0.2014  0.3087
  332MOL   C11547117   0.677   6.847   0.821 -0.1537 -0.4795  0.5693
  332MOL   O11647118   0.643   6.750   0.727  0.1961 -0.3866 -0.0425
  332MOL   H11747119   0.880   6.748   0.805 -1.1516 -1.3407  0.4798
  332MOL   H11847120   0.787   6.703   0.934  0.6748  0.3578  1.8979
  332MOL   H11947121   0.695   6.941   0.769 -1.0516 -0.3008  0.5665
  332MOL   H12047122   0.694   6.754   0.647 -1.1487 -1.0680 -0.9563
  332MOL   C12147123   0.567   6.861   0.934 -0.3353 -0.2406 -0.6012
  332MOL   C12247124   0.431   6.890   0.879 -0.2420  0.4347 -0.0796
  332MOL   O12347125   0.327   6.840   0.956  0.6925  0.3471  0.1046
  332MOL   H12447126   0.557   6.768   0.990  1.8826 -0.0671  0.1289
  332MOL   H12547127   0.586   6.926   1.019  1.3614 -3.3950  1.5312
  332MOL   H12647128   0.433   6.829   0.789 -0.5740 -0.7907  0.7263
  332MOL   H12747129   0.272   6.797   0.893 -0.0150  1.7359 -0.2324
  332MOL   C12847130   0.396   7.038   0.854 -0.3102 -0.4154 -0.7546
  332MOL   C12947131   0.304   7.066   0.733  0.4516 -0.3188 -0.6139
  332MOL   O13047132   0.261   7.199   0.730  0.2883 -0.2197  0.3578
  332MOL   H13147133   0.350   7.082   0.942  0.4634 -0.6136 -0.2430
  332MOL   H13247134   0.489   7.094   0.842 -0.9513  0.6229 -0.9162
  332MOL   H13347135   0.219   7.001   0.751  0.6482  0.4564  3.9434
  332MOL   H13447136   0.204   7.211   0.805  0.2146  0.1356  0.2424
  332MOL   C13547137   0.381   7.037   0.600 -0.4233  0.2799 -0.4371
  332MOL   C13647138   0.291   7.061   0.473 -0.1039 -0.2268  0.3620
  332MOL   O13747139   0.362   7.009   0.362 -0.6333  0.0537  0.0432
  332MOL   H13847140   0.472   7.098   0.601 -0.3345  0.2377  3.9495
  332MOL   H13947141   0.415   6.934   0.594  0.3672  0.5277 -0.1550
  332MOL   H14047142   0.267   7.168   0.470 -1.2540 -0.4922 -0.4245
  332MOL   H14147143   0.294   6.961   0.316  1.4427 -0.4946 -2.6244
  332MOL   H14247144   0.198   7.006   0.484  0.3427 -1.4974 -1.9467
  333MOL     C147145   0.043   3.726   4.614 -0.0625  0.8193  0.1429
  333MOL     C247146   7.473   3.797   4.508  1.1354  0.5033  0.1956
  333MOL     O347147   7.335   3.771   4.535 -0.3500 -0.5034 -0.3841
  333MOL     H447148   0.148   3.743   4.594  0.2093 -1.2024 -0.2528
  333MOL     H547149   0.022   3.619   4.604  1.8264  0.4719 -0.2314
  333MOL     H647150   7.505   3.752   4.414  1.8611  0.8984  0.2503
  333MOL     H747151   7.337   3.676   4.538  2.1904 -0.4518  2.6200
  333MOL     H847152   0.026   3.762   4.715 -2.4664 -0.4629  0.2442
  333MOL     C947153   7.485   3.950   4.511 -0.2150  0.3269 -0.2233
  333MOL    C1047154   7.421   4.033   4.398 -0.4886 -0.3428  0.7489
  333MOL    O1147155   7.364   4.153   4.444 -0.2775 -0.2077 -0.3699
  333MOL    H1247156   7.441   3.974   4.608  2.9034  0.2783  1.2668
  333MOL    H1347157   0.072   3.971   4.518 -0.1838 -0.0482  0.4553
  333MOL    H1447158   7.336   3.974   4.364 -0.5299 -0.0161  0.2853
  333MOL    H1547159   7.309   4.140   4.520 -1.5246  0.1092 -1.2132
  333MOL    C1647160   7.499   4.053   4.266 -0.0006  0.1164 -0.3638
  333MOL    C1747161   0.001   3.935   4.161  0.4466 -0.2007 -0.3107
  333MOL    O1847162   0.104   3.853   4.215 -0.2201 -0.2371 -0.3911
  333MOL    H1947163   7.438   4.128   4.216 -1.8106  0.1822  1.8842
  333MOL    H2047164   0.072   4.107   4.284 -0.5044  1.1101 -0.7504
  333MOL    H2147165   0.051   3.978   4.075  0.3596  1.5862  0.4877
  333MOL    H2247166   0.179   3.909   4.228 -1.1861  1.5328 -2.0984
  333MOL    C2347167   7.387   3.859   4.123  0.0674 -0.5871  0.4846
  333MOL    C2447168   7.272   3.949   4.084  0.1767 -0.1799 -0.5459
  333MOL    O2547169   7.294   4.019   3.964 -0.7563  0.2184  0.5419
  333MOL    H2647170   7.412   3.783   4.049 -0.9289 -0.7595  0.3221
  333MOL    H2747171   7.349   3.809   4.212 -1.3422 -0.0374  0.1990
  333MOL    H2847172   7.244   4.019   4.163  1.9996 -1.3875  1.2096
  333MOL    H2947173   7.373   4.070   3.970  0.5010 -1.5414 -0.7171
  333MOL    C3047174   7.138   3.874   4.066  0.4426  0.2340  0.0690
  333MOL    C3147175   6.996   3.945   4.096 -0.2378 -0.1131 -0.2949
  333MOL    O3247176   6.979   3.971   4.238  0.8818  0.0659  0.0883
  333MOL    H3347177   7.138   3.845   3.961 -1.4279  1.1139 -0.2031
  333MOL    H3447178   7.128   3.785   4.129  0.6934  0.0813 -0.1100
  333MOL    H3547179   6.920   3.871   4.071  1.2698 -0.7633 -3.1672
  333MOL    H3647180   6.911   3.918   4.277  0.5800  0.5215  0.1893
  333MOL    C3747181   6.953   4.067   4.007 -0.3907  0.5338 -0.0392
  333MOL    C3847182   6.937   4.032   3.854  0.0877 -0.2603 -0.9135
  333MOL    O3947183   6.859   3.916   3.825  0.0952  0.5026 -0.4032
  333MOL    H4047184   6.854   4.096   4.042 -0.9431 -0.3961 -0.8046
  333MOL    H4147185   7.026   4.147   4.019 -0.7357  0.5241  2.2337
  333MOL    H4247186   7.037   4.023   3.811  0.7643  2.4320 -0.0398
  333MOL    H4347187   6.833   3.915   3.734 -1.6001  0.1804  0.0802
  333MOL    C4447188   6.853   4.139   3.786  0.0305  0.0740  0.8955
  333MOL    C4547189   6.916   4.283   3.798 -0.5222 -0.0740  0.0979
  333MOL    O4647190   7.051   4.283   3.758  0.1074 -0.1638 -0.6448
  333MOL    H4747191   6.855   4.112   3.681  0.3212  0.2532  0.8556
  333MOL    H4847192   6.748   4.139   3.817  0.1405 -0.6986  1.2877
  333MOL    H4947193   6.928   4.316   3.901 -0.6468  0.4021 -0.0369
  333MOL    H5047194   7.064   4.335   3.680  2.4394  0.8951  0.4370
  333MOL    C5147195   6.837   4.392   3.724 -0.4474 -0.2449 -0.1558
  333MOL    C5247196   6.689   4.428   3.771 -0.5485 -1.0053 -0.1343
  333MOL    O5347197   6.702   4.465   3.905  0.2883  0.3760 -0.3072
  333MOL    H5447198   6.891   4.484   3.746 -2.8290  1.4171 -1.1045
  333MOL    H5547199   6.850   4.377   3.617 -1.0418 -2.0300  0.0116
  333MOL    H5647200   6.624   4.342   3.758 -1.6411 -0.1386 -0.4678
  333MOL    H5747201   6.619   4.468   3.949  1.8221 -1.4952  2.9743
  333MOL    C5847202   6.628   4.548   3.690  0.3599 -0.2163  0.4884
  333MOL    C5947203   6.603   4.522   3.538  0.3016 -0.4030  0.1823
  333MOL    O6047204   6.470   4.487   3.532  0.2006  1.2480 -0.2940
  333MOL    H6147205   6.542   4.592   3.740 -0.9158 -2.4916  0.3759
  333MOL    H6247206   6.700   4.630   3.696 -0.9699  0.9457  1.0552
  333MOL    H6347207   6.652   4.432   3.500  1.2627  0.8682 -1.7125
  333MOL    H6447208   6.414   4.562   3.543  1.6553  2.3289 -0.1207
  333MOL    C6547209   6.622   4.646   3.452 -0.0667 -0.4180 -0.9913
  333MOL    C6647210   6.761   4.706   3.425 -0.9801 -0.7311 -0.3814
  333MOL    O6747211   6.817   4.634   3.315 -0.1355  0.2207  0.2724
  333MOL    H6847212   6.573   4.628   3.357  0.0912 -3.7653 -0.5069
  333MOL    H6947213   6.564   4.726   3.498 -2.0208 -0.7457 -2.8522
  333MOL    H7047214   6.825   4.686   3.511  0.3899 -2.3842 -1.7443
  333MOL    H7147215   6.797   4.542   3.320 -0.0427  0.1551 -0.5516
  333MOL    C7247216   6.767   4.853   3.370 -0.9105 -0.3506  0.2165
  333MOL    C7347217   6.905   4.922   3.364 -0.1426 -0.2642 -0.5026
  333MOL    O7447218   6.970   4.867   3.248  0.6352 -0.6238 -0.0419
  333MOL    H7547219   6.701   4.872   3.285  1.6397  2.7167 -1.2023
  333MOL    H7647220   6.708   4.903   3.446 -0.5180 -1.8849  1.5543
  333MOL    H7747221   6.963   4.907   3.454 -2.5313  1.8147  1.4433
  333MOL    H7847222   6.970   4.773   3.256  0.8500 -0.7643 -1.5771
  333MOL    C7947223   6.900   5.081   3.344  0.3011 -0.9563 -0.2697
  333MOL    C8047224   7.036   5.144   3.387 -0.3994 -0.0297 -0.3419
  333MOL    O8147225   7.082   5.240   3.293  0.4806 -0.0501  0.1934
  333MOL    H8247226   6.859   5.110   3.247 -2.9971 -0.1155  1.2849
  333MOL    H8347227   6.817   5.111   3.409 -1.2641 -2.6729 -1.4224
  333MOL    H8447228   7.116   5.072   3.401 -0.6213  0.4332  4.0470
  333MOL    H8547229   7.090   5.185   3.216  1.5371 -0.7981  0.8211
  333MOL    C8647230   7.007   5.221   3.518 -0.8648 -0.7119 -0.3531
  333MOL    C8747231   6.971   5.123   3.639  0.0910 -1.0220  0.0628
  333MOL    O8847232   7.093   5.054   3.670  0.0140  0.1830  0.2574
  333MOL    H8947233   7.092   5.280   3.551 -0.3117 -0.7328 -1.7093
  333MOL    H9047234   6.931   5.296   3.494 -0.8985 -0.5213  0.3437
  333MOL    H9147235   6.901   5.044   3.611 -1.1886  0.1277 -0.0203
  333MOL    H9247236   7.077   4.980   3.726 -2.0913 -0.2036 -0.7993
  333MOL    C9347237   6.910   5.185   3.764 -0.0767  0.0523  0.2860
  333MOL    C9447238   6.768   5.242   3.749 -0.6664 -0.3770  0.3872
  333MOL    O9547239   6.672   5.152   3.707 -0.8173  0.7809 -0.3232
  333MOL    H9647240   6.910   5.107   3.839 -1.0730  1.1885  1.4798
  333MOL    H9747241   6.982   5.258   3.803  0.5865 -0.5269  0.1608
  333MOL    H9847242   6.782   5.317   3.671 -2.8373  0.6256  0.9152
  333MOL    H9947243   6.667   5.083   3.772 -1.1973  2.3034  1.2922
  333MOL   C10047244   6.733   5.306   3.887 -0.1347  0.3758  0.3151
  333MOL   C10147245   6.623   5.408   3.872  0.6928  0.0996  0.1500
  333MOL   O10247246   6.555   5.440   3.990 -0.3134  0.2312 -0.2217
  333MOL   H10347247   6.694   5.219   3.940 -0.0061 -1.6720 -2.8197
  333MOL   H10447248   6.822   5.333   3.945  0.3574 -0.7178  0.0934
  333MOL   H10547249   6.560   5.363   3.795  2.0051 -2.6116  0.6060
  333MOL   H10647250   6.612   5.470   4.058 -1.5263 -1.1723  1.4713
  333MOL   C10747251   6.679   5.540   3.821  0.0769  1.4347  0.7485
  333MOL   C10847252   6.577   5.625   3.748 -0.1668 -0.9980 -0.1023
  333MOL   O10947253   6.487   5.699   3.842 -0.8986  0.1928 -0.8471
  333MOL   H11047254   6.723   5.606   3.896  1.6165 -0.0486  1.1874
  333MOL   H11147255   6.762   5.521   3.753 -0.8619  1.1248 -0.3344
  333MOL   H11247256   6.511   5.567   3.684 -0.6789 -0.9367  0.3700
  333MOL   H11347257   6.468   5.636   3.910 -0.8824  0.0737 -0.9535
  333MOL   C11447258   6.640   5.740   3.666 -0.6487  0.1110  0.2564
  333MOL   C11547259   6.687   5.687   3.526 -0.3183 -0.6916 -0.4045
  333MOL   O11647260   6.581   5.657   3.440 -0.2475  0.3413 -0.5055
  333MOL   H11747261   6.571   5.822   3.648 -3.0202 -1.9078 -0.0387
  333MOL   H11847262   6.726   5.783   3.719 -1.3048  0.7929  0.7780
  333MOL   H11947263   6.751   5.601   3.546  0.3423 -0.0143  0.4271
  333MOL   H12047264   6.503   5.642   3.492 -0.9009 -1.6931 -2.0247
  333MOL   C12147265   6.778   5.786   3.443 -0.0782  0.2348 -0.2589
  333MOL   C12247266   6.923   5.803   3.487 -0.3562  0.1020  0.3305
  333MOL   O12347267   6.993   5.678   3.479  0.1749 -0.0030  0.5517
  333MOL   H12447268   6.785   5.745   3.343  1.1484 -1.7486  0.5998
  333MOL   H12547269   6.742   5.887   3.425 -4.2152 -1.2800 -1.0528
  333MOL   H12647270   6.923   5.827   3.593  1.3447  0.4523  0.2686
  333MOL   H12747271   6.996   5.659   3.387 -0.2037 -1.0453  0.7431
  333MOL   C12847272   7.004   5.924   3.424 -0.2458 -0.5083  0.2897
  333MOL   C12947273   7.122   5.980   3.507 -0.5295 -0.5991 -0.3838
  333MOL   O13047274   7.223   6.040   3.431 -0.1178 -0.0059  0.3453
  333MOL   H13147275   7.052   5.903   3.328 -0.5885  0.9534 -0.2213
  333MOL   H13247276   6.937   6.006   3.397  1.1238  0.9951  1.3769
  333MOL   H13347277   7.162   5.897   3.565 -1.6603 -1.0677 -0.2604
  333MOL   H13447278   7.289   5.973   3.427 -0.3702 -0.1960 -1.0921
  333MOL   C13547279   7.082   6.093   3.613 -0.0329 -0.5677 -0.3696
  333MOL   C13647280   6.969   6.058   3.711  0.2969  0.0074  0.1083
  333MOL   O13747281   6.930   6.165   3.804 -0.2120  0.2031  0.8834
  333MOL   H13847282   7.169   6.116   3.675  1.1047 -1.5832 -1.5669
  333MOL   H13947283   7.061   6.187   3.561 -3.7316 -2.3176 -2.2112
  333MOL   H14047284   7.003   5.965   3.756  2.2649 -0.6194 -2.5190
  333MOL   H14147285   6.862   6.214   3.760  0.5818 -0.3112 -0.9752
  333MOL   H14247286   6.883   6.033   3.648  0.1918 -1.1677  0.7220
  334MOL     C147287   2.161   6.375   2.808  0.7107  0.5523  0.0197
  334MOL     C247288   2.100   6.234   2.829  0.3485 -0.0658 -0.1873
  334MOL     O347289   1.957   6.240   2.813  0.1186 -0.0770  0.2274
  334MOL     H447290   2.132   6.421   2.714 -0.2526 -0.9112 -0.4234
  334MOL     H547291   2.269   6.372   2.816  0.8851  1.4817 -1.7396
  334MOL     H647292   2.119   6.202   2.932  0.0483 -0.6909 -0.3279
  334MOL     H747293   1.931   6.150   2.821 -1.0889  0.2193 -0.3520
  334MOL     H847294   2.132   6.441   2.889 -1.2383  1.0160 -1.0086
  334MOL     C947295   2.159   6.131   2.735 -0.2642 -0.3261  0.1237
  334MOL    C1047296   2.127   5.984   2.746  0.7411 -0.1919 -0.0586
  334MOL    O1147297   1.991   5.962   2.699  0.1005  0.0354 -0.1993
  334MOL    H1247298   2.140   6.166   2.633  3.1153  0.3126 -0.3218
  334MOL    H1347299   2.266   6.141   2.749 -0.1830 -1.7085  0.5374
  334MOL    H1447300   2.125   5.955   2.851  2.2636  0.8569  0.2762
  334MOL    H1547301   1.975   5.869   2.703  2.0952 -0.2626  1.5104
  334MOL    C1647302   2.219   5.906   2.652  0.1721  0.3037  0.5557
  334MOL    C1747303   2.362   5.884   2.713 -0.1772 -0.2026 -0.0580
  334MOL    O1847304   2.343   5.832   2.846  0.0312 -0.2484 -0.3859
  334MOL    H1947305   2.178   5.810   2.620 -1.5728  1.3865 -0.5151
  334MOL    H2047306   2.241   5.963   2.562  1.3278  0.3465  0.8518
  334MOL    H2147307   2.415   5.979   2.720  2.2753 -1.6943  2.6618
  334MOL    H2247308   2.427   5.834   2.889  1.1543 -1.9409 -2.3802
  334MOL    C2347309   2.457   5.785   2.635  0.0322 -0.3640 -0.5288
  334MOL    C2447310   2.576   5.849   2.562 -0.0174  0.0065  0.0768
  334MOL    O2547311   2.660   5.734   2.524 -0.2098 -0.4042  0.5318
  334MOL    H2647312   2.492   5.716   2.712 -0.8780 -0.1476  0.0879
  334MOL    H2747313   2.408   5.725   2.558 -0.0717  0.2525 -0.9518
  334MOL    H2847314   2.652   5.899   2.621  1.1261  1.3695 -2.4469
  334MOL    H2947315   2.607   5.656   2.531 -0.7954  0.0669  1.5656
  334MOL    C3047316   2.537   5.940   2.441 -0.7136  0.0112 -0.3675
  334MOL    C3147317   2.625   6.062   2.419  0.4997  0.2740  0.5752
  334MOL    O3247318   2.586   6.121   2.297 -0.6236  0.0102  0.2182
  334MOL    H3347319   2.540   5.878   2.352 -1.5341 -1.7591  0.8066
  334MOL    H3447320   2.437   5.981   2.447 -0.4802  0.6394 -0.7404
  334MOL    H3547321   2.728   6.025   2.413  0.0712 -0.9537  0.6995
  334MOL    H3647322   2.657   6.176   2.269 -3.2238  2.9670 -0.8679
  334MOL    C3747323   2.610   6.157   2.537 -0.2906 -0.8115  0.5369
  334MOL    C3847324   2.692   6.283   2.533  0.4686 -0.2233 -0.1574
  334MOL    O3947325   2.831   6.249   2.523 -0.0596  0.7443  0.2851
  334MOL    H4047326   2.507   6.193   2.538  0.1952  0.7061  2.8823
  334MOL    H4147327   2.640   6.103   2.628  2.2274 -1.3309 -0.5498
  334MOL    H4247328   2.682   6.319   2.635  1.1506  3.6900 -1.3773
  334MOL    H4347329   2.884   6.319   2.490  2.3341 -1.0036  0.2539
  334MOL    C4447330   2.648   6.378   2.423 -0.0668 -0.2784 -0.0886
  334MOL    C4547331   2.706   6.522   2.437 -0.0816 -0.1660 -0.8245
  334MOL    O4647332   2.651   6.577   2.321  0.2983  0.0394  0.4201
  334MOL    H4747333   2.688   6.345   2.327 -0.3507  3.8643 -1.7042
  334MOL    H4847334   2.539   6.368   2.427 -0.1303  1.0210  1.7087
  334MOL    H4947335   2.815   6.521   2.437 -0.0218  0.4226  1.8876
  334MOL    H5047336   2.557   6.561   2.322  0.3626 -0.3152  1.5857
  334MOL    C5147337   2.662   6.600   2.564  0.2178  0.6197  0.3083
  334MOL    C5247338   2.724   6.738   2.572 -0.6354 -0.0906 -0.3141
  334MOL    O5347339   2.642   6.815   2.662  0.0009  0.0878 -1.2648
  334MOL    H5447340   2.554   6.584   2.572  0.0181  1.3819 -0.7121
  334MOL    H5547341   2.699   6.550   2.653  2.3511 -0.7887 -1.3526
  334MOL    H5647342   2.715   6.789   2.476  1.2921  1.3006  0.2195
  334MOL    H5747343   2.554   6.781   2.658  0.9573 -3.0375  2.3845
  334MOL    C5847344   2.877   6.738   2.615  0.2621 -0.0259  0.7565
  334MOL    C5947345   2.965   6.849   2.565 -0.3272 -0.5876  0.1539
  334MOL    O6047346   2.994   6.821   2.430 -0.0311  0.4486  0.2498
  334MOL    H6147347   2.876   6.719   2.723  0.0415  1.2068  0.9815
  334MOL    H6247348   2.937   6.649   2.597 -1.8477 -1.8500  2.5192
  334MOL    H6347349   3.055   6.840   2.626  0.5864 -2.1152 -1.3664
  334MOL    H6447350   2.928   6.869   2.382 -0.8542 -0.1455  0.7849
  334MOL    C6547351   2.912   6.992   2.580 -0.5382 -0.0638 -0.8238
  334MOL    C6647352   2.877   7.038   2.724  0.5888  0.1437  0.1143
  334MOL    O6747353   3.001   7.070   2.789 -0.2789 -0.2446  0.3730
  334MOL    H6847354   2.972   7.072   2.537 -2.6299  2.1287  0.1980
  334MOL    H6947355   2.822   6.986   2.519 -1.8584 -0.0549  1.0683
  334MOL    H7047356   2.832   6.957   2.782  1.8337 -0.2559  0.5331
  334MOL    H7147357   2.995   7.082   2.882 -0.9426 -0.3161  0.3411
  334MOL    C7247358   2.793   7.167   2.730  0.2436  0.1570 -0.0605
  334MOL    C7347359   2.642   7.161   2.682  0.5978 -0.2292  0.7980
  334MOL    O7447360   2.570   7.062   2.761 -0.1585  0.3568  0.0421
  334MOL    H7547361   2.788   7.202   2.833 -2.1782  1.4339 -0.5663
  334MOL    H7647362   2.844   7.239   2.667 -0.4521  0.6093 -0.1160
  334MOL    H7747363   2.626   7.138   2.577 -0.2844  0.6384  0.7333
  334MOL    H7847364   2.595   6.975   2.733  1.2003  0.8334 -0.2698
  334MOL    C7947365   2.572   7.296   2.709  0.5842 -0.8007  0.4964
  334MOL    C8047366   2.425   7.307   2.683  0.3265 -0.1630 -0.0431
  334MOL    O8147367   2.381   7.439   2.730 -0.3925 -0.1116 -0.2049
  334MOL    H8247368   2.594   7.321   2.813  2.5367 -1.8793  0.3675
  334MOL    H8347369   2.625   7.367   2.645 -0.7549 -1.3722 -1.2898
  334MOL    H8447370   2.377   7.231   2.746 -1.9109  0.3012 -1.1488
  334MOL    H8547371   2.291   7.441   2.761 -0.1544  2.1522  0.3931
  334MOL    C8647372   2.386   7.288   2.527  0.1198  0.5161  0.1196
  334MOL    C8747373   2.237   7.282   2.513  0.2729 -0.3618 -0.1909
  334MOL    O8847374   2.190   7.280   2.378 -0.3001  0.0678  0.5979
  334MOL    H8947375   2.434   7.365   2.468  1.7374 -0.4302  0.1557
  334MOL    H9047376   2.422   7.194   2.483 -0.9521  0.3331 -0.3662
  334MOL    H9147377   2.192   7.366   2.567  0.4821  0.3342 -1.1015
  334MOL    H9247378   2.231   7.354   2.335 -0.3801 -1.3682 -2.0382
  334MOL    C9347379   2.181   7.151   2.570  0.9410  1.0272 -0.0013
  334MOL    C9447380   2.028   7.154   2.593  0.4624 -0.2967 -0.8246
  334MOL    O9547381   2.002   7.015   2.595 -0.1434  0.0038  0.6353
  334MOL    H9647382   2.206   7.072   2.498  1.1958 -1.3954  2.6704
  334MOL    H9747383   2.230   7.116   2.661 -3.9324 -1.8843  1.6582
  334MOL    H9847384   1.970   7.191   2.509 -0.2498 -2.0641 -1.1240
  334MOL    H9947385   1.923   6.997   2.547 -1.7581  0.6719  2.9369
  334MOL   C10047386   1.992   7.197   2.735  0.1065 -0.1249 -0.7212
  334MOL   C10147387   1.973   7.350   2.763 -0.4154  0.7988 -0.4947
  334MOL   O10247388   2.093   7.409   2.808  0.2868 -0.3944 -0.1580
  334MOL   H10347389   1.892   7.161   2.756 -0.5398  1.8222 -0.3652
  334MOL   H10447390   2.064   7.158   2.807  1.8565  1.4427 -1.5586
  334MOL   H10547391   1.899   7.340   2.843 -0.3760 -1.6047 -0.7324
  334MOL   H10647392   2.069   7.451   2.889  1.2629  1.2614 -0.6979
  334MOL   C10747393   1.926   7.435   2.640  0.1210 -0.5386  0.3705
  334MOL   C10847394   1.791   7.391   2.580  0.4231  0.8436  0.5817
  334MOL   O10947395   1.685   7.434   2.660  0.4584 -0.2590  0.4383
  334MOL   H11047396   1.934   0.019   2.671 -1.0525  0.0631 -1.2891
  334MOL   H11147397   2.000   7.438   2.561 -0.4524 -0.2199 -0.1524
  334MOL   H11247398   1.790   7.283   2.570  3.2891  0.6617  1.9924
  334MOL   H11347399   1.609   7.380   2.647  2.2521 -2.3829 -1.5719
  334MOL   C11447400   1.770   7.454   2.439  0.0620  0.9077  0.8245
  334MOL   C11547401   1.657   7.387   2.354  0.1324  0.3697  0.9829
  334MOL   O11647402   1.646   7.461   2.231 -0.0478 -0.7384  0.4507
  334MOL   H11747403   1.749   0.041   2.454  1.8914  1.1247  2.0348
  334MOL   H11847404   1.860   7.448   2.379 -0.4776 -1.5543  0.1920
  334MOL   H11947405   1.563   7.397   2.408  0.4806  0.9054  1.4872
  334MOL   H12047406   1.695   7.426   2.158 -3.5675  0.4952 -2.6448
  334MOL   C12147407   1.700   7.249   2.309  0.2437  0.5351  0.2049
  334MOL   C12247408   1.590   7.135   2.316 -0.6536 -0.0199 -0.2895
  334MOL   O12347409   1.483   7.182   2.227 -0.4840  0.3881  0.0881
  334MOL   H12447410   1.751   7.261   2.213  1.0552  3.4528  0.9652
  334MOL   H12547411   1.787   7.217   2.365 -1.0329 -1.8210  0.9192
  334MOL   H12647412   1.546   7.115   2.414 -1.3203 -0.5320 -0.6938
  334MOL   H12747413   1.410   7.191   2.286 -0.1537 -1.4692  0.8148
  334MOL   C12847414   1.638   6.997   2.275  0.1212 -0.0726  0.3501
  334MOL   C12947415   1.771   6.961   2.343  0.2155 -0.0869  0.2689
  334MOL   O13047416   1.761   6.962   2.483  0.0040 -0.3085  0.9892
  334MOL   H13147417   1.562   6.924   2.301 -0.3493  0.8656  1.6162
  334MOL   H13247418   1.643   6.999   2.166  1.3538  1.2474  0.4097
  334MOL   H13347419   1.852   7.023   2.305 -1.9704  1.0595 -2.7224
  334MOL   H13447420   1.727   6.878   2.509 -0.4531 -1.5707 -3.2349
  334MOL   C13547421   1.808   6.821   2.300 -0.3556  0.7000 -0.0824
  334MOL   C13647422   1.867   6.797   2.165 -0.3372 -0.1307  0.0838
  334MOL   O13747423   1.914   6.661   2.146  0.1674 -0.1713 -0.3685
  334MOL   H13847424   1.886   6.787   2.369  0.7193 -2.1515 -2.5739
  334MOL   H13947425   1.729   6.747   2.314  2.1000 -2.0210  0.0613
  334MOL   H14047426   1.953   6.860   2.139  0.4126 -1.0711  0.2595
  334MOL   H14147427   1.842   6.601   2.137  0.7704 -1.0199  0.4080
  334MOL   H14247428   1.798   6.824   2.085  0.5758 -0.8495 -0.9677
  335MOL     C147429   0.437   1.981   5.015  0.6015  0.1109 -0.8446
  335MOL     C247430   0.557   1.951   5.109 -0.0002 -0.1405  0.0078
  335MOL     O347431   0.543   1.817   5.159 -0.0804  0.0886 -0.0034
  335MOL     H447432   0.440   2.084   4.980  2.6509  0.5895  0.5894
  335MOL     H547433   0.338   1.963   5.055  1.5828  0.5606  1.9220
  335MOL     H647434   0.566   2.030   5.183 -1.2386 -0.4909  0.5360
  335MOL     H747435   0.525   1.826   5.251 -0.2694  0.3016 -0.0597
  335MOL     H847436   0.442   1.921   4.924  2.1343  0.8420 -1.2621
  335MOL     C947437   0.680   1.940   5.019  0.0244  0.3449 -0.2015
  335MOL    C1047438   0.750   2.074   4.987  0.1820 -1.0579  0.1422
  335MOL    O1147439   0.888   2.043   4.977 -0.7680 -0.7828  0.2932
  335MOL    H1247440   0.755   1.886   5.076 -0.4095  0.5094  0.5279
  335MOL    H1347441   0.664   1.874   4.934  1.0289 -0.6484  0.3738
  335MOL    H1447442   0.727   2.139   5.072  1.4745 -1.2905  0.6874
  335MOL    H1547443   0.897   1.988   4.900  3.7749 -2.5453  1.9241
  335MOL    C1647444   0.704   2.131   4.850 -0.0715  0.0381 -0.3890
  335MOL    C1747445   0.748   2.278   4.833  0.0716  0.5057 -0.1431
  335MOL    O1847446   0.710   2.318   4.703  0.4300 -0.0972  0.1613
  335MOL    H1947447   0.758   2.082   4.769 -1.2175 -0.9721 -0.5596
  335MOL    H2047448   0.597   2.120   4.839  0.0772 -2.2466  0.2499
  335MOL    H2147449   0.856   2.288   4.829  0.1129 -0.3468 -1.3267
  335MOL    H2247450   0.615   2.314   4.701  0.4747 -1.8129 -4.1483
  335MOL    C2347451   0.688   2.382   4.931 -0.4314  0.0023  0.0670
  335MOL    C2447452   0.735   2.526   4.943  0.3270 -0.2317  0.4789
  335MOL    O2547453   0.636   2.605   5.007  0.1302  0.1069 -0.3333
  335MOL    H2647454   0.582   2.379   4.907 -0.1059 -1.5502 -1.2548
  335MOL    H2747455   0.696   2.351   5.035 -2.4742  2.4148  1.0093
  335MOL    H2847456   0.745   2.562   4.841  1.7489 -0.9060  0.3688
  335MOL    H2947457   0.638   2.696   4.982  1.6091  0.3007  0.4303
  335MOL    C3047458   0.872   2.545   5.016  0.0370  0.2732 -0.0169
  335MOL    C3147459   1.005   2.528   4.942  0.2609 -0.8342 -0.5764
  335MOL    O3247460   1.050   2.662   4.894 -0.3524 -0.5989  0.5614
  335MOL    H3347461   0.876   2.634   5.079  2.0740  0.0730  0.1688
  335MOL    H3447462   0.863   2.470   5.095 -1.0475  0.6332  0.2109
  335MOL    H3547463   0.995   2.465   4.854  2.3163 -1.0519 -0.6721
  335MOL    H3647464   1.056   2.655   4.800 -2.8050  0.9458  0.2644
  335MOL    C3747465   1.117   2.474   5.033 -0.6247  0.0051 -0.0364
  335MOL    C3847466   1.098   2.340   5.107 -0.0212  0.9385  0.2600
  335MOL    O3947467   1.102   2.246   5.002  0.2227 -0.4403  0.5989
  335MOL    H4047468   1.212   2.463   4.981 -0.4088 -1.7255  0.6970
  335MOL    H4147469   1.139   2.551   5.107  0.0229 -1.2975  1.1316
  335MOL    H4247470   1.002   2.350   5.158  0.1560 -0.4775  0.8777
  335MOL    H4347471   1.028   2.187   5.011  0.1113 -0.6309 -1.2661
  335MOL    C4447472   1.215   2.305   5.196  0.6531 -0.1827  0.1699
  335MOL    C4547473   1.183   2.184   5.281 -0.9191 -1.1124  0.4145
  335MOL    O4647474   1.297   2.161   5.362  0.6078 -0.0754 -0.1343
  335MOL    H4747475   1.314   2.314   5.153  1.3233  0.4641  1.8343
  335MOL    H4847476   1.227   2.390   5.261  1.2825 -0.6654  0.6835
  335MOL    H4947477   1.160   2.096   5.221  0.2749 -0.4455 -1.0655
  335MOL    H5047478   1.259   2.113   5.434 -1.3995  1.0685 -0.3899
  335MOL    C5147479   1.060   2.215   5.373  0.2253 -0.4713 -0.7073
  335MOL    C5247480   0.925   2.150   5.335  0.5109 -0.4848  0.3304
  335MOL    O5347481   0.937   2.007   5.325  0.0934 -1.2566  0.1353
  335MOL    H5447482   1.084   2.170   5.469 -0.2267  0.8498  0.0498
  335MOL    H5547483   1.049   2.322   5.393  1.2225 -0.3893 -0.5592
  335MOL    H5647484   0.896   2.180   5.234 -2.8144 -0.9145  1.1180
  335MOL    H5747485   0.934   1.982   5.234 -4.5670 -0.0086 -0.1521
  335MOL    C5847486   0.808   2.185   5.434  0.1561  0.2522 -0.0170
  335MOL    C5947487   0.746   2.324   5.420  0.2304  0.2117  0.3172
  335MOL    O6047488   0.675   2.312   5.295 -0.2158 -0.4766 -0.5124
  335MOL    H6147489   0.722   2.118   5.424  0.0869  0.5146 -1.2812
  335MOL    H6247490   0.846   2.176   5.535 -0.3152 -0.1575  0.1278
  335MOL    H6347491   0.828   2.396   5.411  1.5861 -1.3832 -0.3342
  335MOL    H6447492   0.614   2.382   5.281 -0.1516 -0.7007 -2.0409
  335MOL    C6547493   0.651   2.368   5.535  0.1560 -0.2883  0.2797
  335MOL    C6647494   0.706   2.372   5.681 -0.5075  0.8476  0.1049
  335MOL    O6747495   0.719   2.242   5.739  0.4810  0.1910 -0.0438
  335MOL    H6847496   0.613   2.465   5.504  0.9165 -0.2575 -0.5871
  335MOL    H6947497   0.564   2.302   5.530  1.9482 -2.5800 -2.2908
  335MOL    H7047498   0.622   2.402   5.744 -0.6975  0.9296 -0.1907
  335MOL    H7147499   0.704   2.243   5.832 -1.5693  3.3129 -0.3216
  335MOL    C7247500   0.837   2.454   5.710  0.7415 -0.0492 -0.4923
  335MOL    C7347501   0.828   2.601   5.652 -0.3160 -0.8060  0.5859
  335MOL    O7447502   0.752   2.686   5.737  0.5363 -0.3434  0.2145
  335MOL    H7547503   0.875   2.450   5.812  1.5653 -0.4580 -0.8054
  335MOL    H7647504   0.907   2.404   5.643 -1.8345 -2.9225 -1.1379
  335MOL    H7747505   0.786   2.595   5.552  0.6140 -0.2253  0.1504
  335MOL    H7847506   0.669   2.704   5.695  0.6894 -3.6890 -1.6601
  335MOL    C7947507   0.961   2.678   5.646  0.3971 -0.4129 -0.0881
  335MOL    C8047508   1.085   2.608   5.569  0.1849  0.5820 -0.6654
  335MOL    O8147509   1.059   2.567   5.438  0.2654  0.3292  0.4483
  335MOL    H8247510   0.938   2.772   5.596 -1.0024 -1.6982 -1.9163
  335MOL    H8347511   0.989   2.712   5.746  0.8180 -2.6036  0.5543
  335MOL    H8447512   1.119   2.526   5.632 -0.0528 -0.5283 -1.9509
  335MOL    H8547513   1.019   2.643   5.397  0.4929  0.7550  1.0096
  335MOL    C8647514   1.198   2.706   5.572 -0.2967 -0.4472 -0.0881
  335MOL    C8747515   1.326   2.655   5.508 -0.1997 -0.1087 -0.5418
  335MOL    O8847516   1.409   2.774   5.506  0.5288 -0.0526 -0.0584
  335MOL    H8947517   1.166   2.779   5.498  0.1566 -2.1801 -2.0425
  335MOL    H9047518   1.218   2.742   5.673  0.8304  0.1432 -0.5188
  335MOL    H9147519   1.315   2.621   5.406  0.0392  0.9273 -0.9177
  335MOL    H9247520   1.403   2.823   5.425  2.0498 -1.2335 -0.9025
  335MOL    C9347521   1.399   2.557   5.593  0.9372 -0.4063  0.2298
  335MOL    C9447522   1.372   2.416   5.546  1.2639 -0.3213 -0.7802
  335MOL    O9547523   1.451   2.385   5.436 -0.5808  0.1088  0.0824
  335MOL    H9647524   1.508   2.564   5.586  0.7747  0.7935 -1.3935
  335MOL    H9747525   1.366   2.571   5.696  0.7213  0.5927  0.0252
  335MOL    H9847526   1.267   2.403   5.521  1.9202 -0.8139 -3.3782
  335MOL    H9947527   1.427   2.300   5.404  0.6736 -0.1781 -0.0901
  335MOL   C10047528   1.401   2.303   5.649  0.2622 -0.1282 -0.3546
  335MOL   C10147529   1.283   2.295   5.759 -0.4820 -0.0802 -0.7492
  335MOL   O10247530   1.156   2.273   5.703 -0.3477 -0.2059 -0.1782
  335MOL   H10347531   1.424   2.206   5.605  0.0869 -0.4530  0.2647
  335MOL   H10447532   1.494   2.333   5.697 -0.0188  2.9283 -1.6066
  335MOL   H10547533   1.270   2.394   5.804  0.3164 -0.0490 -0.5914
  335MOL   H10647534   1.096   2.263   5.776 -0.2177 -0.8328 -0.1558
  335MOL   C10747535   1.312   2.184   5.867 -0.5678  0.0776  0.2111
  335MOL   C10847536   1.423   2.218   5.973  0.0642 -0.7580  0.3704
  335MOL   O10947537   1.402   2.322   6.057 -0.0127 -0.0930 -0.2953
  335MOL   H11047538   1.220   2.163   5.924 -0.4105 -3.2410 -0.6447
  335MOL   H11147539   1.342   2.091   5.819 -1.0922 -0.9284  1.7660
  335MOL   H11247540   1.508   2.248   5.912  0.7255 -1.6987  0.8014
  335MOL   H11347541   1.386   2.295   6.147 -1.3958  2.2958  0.2194
  335MOL   C11447542   1.453   2.088   6.056 -0.8687 -0.9828  0.3231
  335MOL   C11547543   1.510   1.969   5.978 -0.2648 -0.5246 -0.1186
  335MOL   O11647544   1.633   2.010   5.915  0.0580 -0.6987  0.1151
  335MOL   H11747545   1.525   2.111   6.135 -1.4021  0.9535  0.2750
  335MOL   H11847546   1.370   2.038   6.106  0.2499 -0.1902  3.0879
  335MOL   H11947547   1.434   1.932   5.909  0.3224  2.9531 -2.7200
  335MOL   H12047548   1.619   2.005   5.821  0.3126 -1.6438  0.1223
  335MOL   C12147549   1.549   1.850   6.071  0.1425 -0.1265  0.1761
  335MOL   C12247550   1.619   1.733   6.005  0.0625  0.8204 -0.0262
  335MOL   O12347551   1.647   1.656   6.118  0.4801 -0.1387 -0.0102
  335MOL   H12447552   1.613   1.877   6.155  1.7881  0.7651 -1.3318
  335MOL   H12547553   1.455   1.821   6.118 -0.6857  0.0882 -1.3055
  335MOL   H12647554   1.710   1.774   5.961  0.0276  0.9052 -0.0189
  335MOL   H12747555   1.707   1.714   6.163  1.7616 -2.0257  0.7379
  335MOL   C12847556   1.546   1.656   5.894 -0.6258 -0.3690 -0.5711
  335MOL   C12947557   1.634   1.530   5.842 -0.2410 -0.6961  0.6875
  335MOL   O13047558   1.549   1.444   5.767  0.2027  0.4649 -0.0957
  335MOL   H13147559   1.447   1.629   5.932 -0.6122 -2.4531 -1.9428
  335MOL   H13247560   1.506   1.718   5.814  0.6410  0.0200 -0.9123
  335MOL   H13347561   1.675   1.478   5.929  0.6791  1.5007  1.6110
  335MOL   H13447562   1.492   1.509   5.728 -0.1752  0.3103  0.1996
  335MOL   C13547563   1.765   1.580   5.779  0.3231 -0.2353  0.0578
  335MOL   C13647564   1.856   1.465   5.729 -0.1819 -0.9703  0.6294
  335MOL   O13747565   1.966   1.527   5.680 -0.0999 -0.4740  0.0412
  335MOL   H13847566   1.742   1.638   5.690  3.2350 -0.6546 -0.9989
  335MOL   H13947567   1.821   1.648   5.844  1.4620 -1.0509 -0.0538
  335MOL   H14047568   1.815   1.404   5.649 -0.9779 -0.2484  0.4826
  335MOL   H14147569   1.986   1.491   5.595 -0.7531 -2.0016  0.5099
  335MOL   H14247570   1.892   1.399   5.809  1.0498 -1.3429 -0.2099
  336MOL     C147571   1.009   2.945   4.385  0.1382 -0.0095 -0.3826
  336MOL     C247572   0.915   3.002   4.491 -0.4290  0.5145  0.1396
  336MOL     O347573   0.936   3.139   4.507 -0.3104 -0.3478 -0.5973
  336MOL     H447574   0.988   2.995   4.291  1.8516 -0.5697 -1.0710
  336MOL     H547575   0.993   2.838   4.372  0.5093 -0.3229  1.5781
  336MOL     H647576   0.936   2.951   4.586  1.5031 -0.7563 -0.9234
  336MOL     H747577   0.901   3.183   4.430  2.5451  0.6587 -1.3722
  336MOL     H847578   1.113   2.962   4.413  0.2923 -0.3741 -0.7417
  336MOL     C947579   0.765   2.974   4.473 -0.7034 -0.3950  0.4591
  336MOL    C1047580   0.671   3.020   4.590 -0.9738  0.3020 -0.0209
  336MOL    O1147581   0.548   3.045   4.531  0.0980 -0.3045  0.4425
  336MOL    H1247582   0.742   3.029   4.382 -0.7658 -1.0018  0.1093
  336MOL    H1347583   0.736   2.874   4.440  1.4939 -1.0266  0.3913
  336MOL    H1447584   0.687   3.119   4.634 -0.4600 -0.9742  2.7579
  336MOL    H1547585   0.486   3.099   4.578 -1.1851 -0.2296 -1.2793
  336MOL    C1647586   0.669   2.913   4.706 -0.2855 -0.0622  0.1114
  336MOL    C1747587   0.656   2.968   4.847  0.0058 -0.0234  0.0397
  336MOL    O1847588   0.605   2.862   4.924  0.4062  0.0668 -0.3064
  336MOL    H1947589   0.603   2.829   4.684 -0.6870 -0.0947  1.3843
  336MOL    H2047590   0.765   2.862   4.697 -0.1188  0.7893 -3.5158
  336MOL    H2147591   0.594   3.057   4.858  0.9161  0.8067 -1.4496
  336MOL    H2247592   0.583   2.902   5.007  0.7509  3.7958 -1.9043
  336MOL    C2347593   0.794   2.999   4.915 -0.3171  0.0229 -0.3469
  336MOL    C2447594   0.860   3.131   4.870  0.3291  0.1891  0.9162
  336MOL    O2547595   0.792   3.249   4.918 -0.0371 -0.2396  0.6058
  336MOL    H2647596   0.777   3.020   5.021  0.7823  2.2203 -0.5597
  336MOL    H2747597   0.858   2.911   4.903 -0.9943 -0.6581  0.8959
  336MOL    H2847598   0.859   3.143   4.761  1.4173  0.5242  0.9364
  336MOL    H2947599   0.800   3.306   4.843  2.6637  1.4740  2.1340
  336MOL    C3047600   1.005   3.146   4.931  0.6059 -0.2875  0.4296
  336MOL    C3147601   1.111   3.049   4.860 -0.4590  0.4805 -0.6339
  336MOL    O3247602   1.159   3.110   4.745  0.0211 -0.1319 -0.1710
  336MOL    H3347603   1.048   3.245   4.915  3.0346 -1.1102  1.6469
  336MOL    H3447604   0.999   3.140   5.040  2.6160 -0.6654  0.5527
  336MOL    H3547605   1.071   2.955   4.822 -0.7577  0.3145  0.0853
  336MOL    H3647606   1.092   3.113   4.678 -0.1900 -0.8056  0.0059
  336MOL    C3747607   1.234   3.019   4.946 -0.3826 -0.2031  0.1574
  336MOL    C3847608   1.201   2.936   5.077  0.1694  0.1398 -0.8191
  336MOL    O3947609   1.066   2.872   5.079 -0.8163 -0.1255  0.1084
  336MOL    H4047610   1.290   2.960   4.873 -2.5416 -0.5803 -1.2149
  336MOL    H4147611   1.283   3.114   4.966 -1.0825  0.0301  0.7939
  336MOL    H4247612   1.204   3.000   5.165  0.7046 -0.3796 -0.4506
  336MOL    H4347613   1.073   2.815   5.004  2.9851  1.0272 -0.5160
  336MOL    C4447614   1.297   2.822   5.117 -0.3574 -0.5336  0.2464
  336MOL    C4547615   1.447   2.861   5.140 -0.1778 -1.1395 -0.0012
  336MOL    O4647616   1.457   2.913   5.270  0.2604 -0.2072  0.0770
  336MOL    H4747617   1.260   2.779   5.210 -1.1718 -1.0690 -0.3217
  336MOL    H4847618   1.301   2.742   5.043 -1.3615 -1.0894  0.7864
  336MOL    H4947619   1.466   2.945   5.073  0.0236 -0.9856  0.2438
  336MOL    H5047620   1.547   2.937   5.287  0.5764 -1.0037 -0.4347
  336MOL    C5147621   1.564   2.755   5.129  0.0507  0.3658  0.0056
  336MOL    C5247622   1.551   2.633   5.226 -0.3242  0.2308  0.2050
  336MOL    O5347623   1.435   2.567   5.202  0.2488 -0.5633 -0.2861
  336MOL    H5447624   1.562   2.721   5.025 -1.7933  0.3825  0.0292
  336MOL    H5547625   1.663   2.798   5.144 -0.0979  0.0340  2.0503
  336MOL    H5647626   1.553   2.671   5.328 -1.7371  0.7273  0.0578
  336MOL    H5747627   1.436   2.498   5.267 -0.0152 -0.7298 -0.4567
  336MOL    C5847628   1.654   2.524   5.204 -0.1996  0.2988  0.0872
  336MOL    C5947629   1.805   2.570   5.231 -0.6564 -0.0195  0.0194
  336MOL    O6047630   1.861   2.494   5.336 -0.1535  0.1806  0.1016
  336MOL    H6147631   1.640   2.446   5.279 -1.2170  0.8347  0.4531
  336MOL    H6247632   1.631   2.475   5.110 -1.6151  1.3658 -0.1429
  336MOL    H6347633   1.798   2.672   5.271  0.0635  0.5436 -1.2844
  336MOL    H6447634   1.909   2.550   5.395 -0.4852 -1.2947  1.8426
  336MOL    C6547635   1.899   2.561   5.109  0.7860 -0.2067 -0.5059
  336MOL    C6647636   1.879   2.670   5.002 -0.3217  0.3981  0.6276
  336MOL    O6747637   1.906   2.794   5.066  0.1360 -0.2367 -0.2281
  336MOL    H6847638   1.999   2.570   5.150 -0.1285  1.4320  1.5024
  336MOL    H6947639   1.898   2.460   5.068 -0.3288 -0.7172  0.7202
  336MOL    H7047640   1.776   2.668   4.968  1.3446  1.0867 -4.9390
  336MOL    H7147641   1.839   2.850   5.031 -0.2835 -0.7115 -0.1825
  336MOL    C7247642   1.962   2.651   4.876 -0.6405 -0.2191  0.3213
  336MOL    C7347643   1.925   2.741   4.754 -0.4164  0.1648 -0.2099
  336MOL    O7447644   1.943   2.883   4.764  0.2645  0.4844 -0.2728
  336MOL    H7547645   2.068   2.660   4.899 -0.5568 -1.0481  0.2440
  336MOL    H7647646   1.951   2.546   4.850 -1.7639  0.2819 -1.3558
  336MOL    H7747647   1.819   2.719   4.741 -0.1524  0.0830 -2.3914
  336MOL    H7847648   1.867   2.914   4.810 -0.1133 -0.2833 -0.3715
  336MOL    C7947649   2.007   2.709   4.628 -0.1760 -0.7644 -0.9357
  336MOL    C8047650   2.026   2.564   4.581 -0.8351  0.1399  0.5032
  336MOL    O8147651   1.903   2.532   4.518 -0.0010 -0.0535 -0.0885
  336MOL    H8247652   1.999   2.769   4.538  1.6358 -0.1004 -0.6781
  336MOL    H8347653   2.106   2.737   4.663 -1.0308  1.2148 -0.0237
  336MOL    H8447654   2.052   2.493   4.659 -0.8332 -0.0089  0.3672
  336MOL    H8547655   1.842   2.497   4.581  1.2098  1.9577  2.2863
  336MOL    C8647656   2.142   2.542   4.485 -0.0805  0.2525  0.1333
  336MOL    C8747657   2.288   2.575   4.535  0.5649 -0.2760 -0.0475
  336MOL    O8847658   2.312   2.509   4.660  0.6796  0.0391  0.3875
  336MOL    H8947659   2.143   2.444   4.436 -1.8488 -0.1117  0.7897
  336MOL    H9047660   2.122   2.601   4.396 -0.8257  2.4627  1.7311
  336MOL    H9147661   2.301   2.682   4.544  0.8124 -0.5091  2.6008
  336MOL    H9247662   2.312   2.571   4.732  0.4205 -0.5719  0.9137
  336MOL    C9347663   2.389   2.513   4.432 -0.4252 -0.0438 -0.4062
  336MOL    C9447664   2.542   2.512   4.463 -0.1647 -0.1299 -0.4023
  336MOL    O9547665   2.613   2.451   4.348  0.4287 -0.5654  0.4433
  336MOL    H9647666   2.363   2.409   4.415 -0.2117 -0.3171  0.9046
  336MOL    H9747667   2.372   2.576   4.345  1.5293  1.8708  0.5458
  336MOL    H9847668   2.565   2.457   4.554 -0.3870  0.6871  0.1502
  336MOL    H9947669   2.580   2.363   4.340 -0.7824 -0.2720  1.9342
  336MOL   C10047670   2.595   2.654   4.479  0.1302  0.1200  0.0651
  336MOL   C10147671   2.737   2.657   4.546  0.0397  0.2594 -1.1389
  336MOL   O10247672   2.794   2.769   4.498  0.0678 -0.7553  0.0876
  336MOL   H10347673   2.594   2.697   4.379  1.5980  0.8828  0.3688
  336MOL   H10447674   2.525   2.710   4.541  0.7445 -3.6837  4.4846
  336MOL   H10547675   2.796   2.569   4.520  0.8366  0.3646  0.3073
  336MOL   H10647676   2.807   2.745   4.407 -0.8309  1.1638 -0.5675
  336MOL   C10747677   2.741   2.679   4.693  0.3583 -0.0941 -0.5697
  336MOL   C10847678   2.719   2.554   4.784 -0.1851 -0.2381  0.1577
  336MOL   O10947679   2.838   2.474   4.763  0.4797  0.4563 -0.7280
  336MOL   H11047680   2.829   2.737   4.721 -0.4819  0.9435 -0.0466
  336MOL   H11147681   2.657   2.746   4.713  0.5781 -0.0827  0.3481
  336MOL   H11247682   2.638   2.484   4.763 -0.6303  0.1106  0.7004
  336MOL   H11347683   2.906   2.531   4.795  2.8412 -2.5754 -0.1512
  336MOL   C11447684   2.702   2.593   4.934 -0.8254 -0.1967 -0.7722
  336MOL   C11547685   2.720   2.476   5.038  0.1011 -0.0503  0.2241
  336MOL   O11647686   2.852   2.442   5.059 -0.1934  0.4348  0.2243
  336MOL   H11747687   2.762   2.678   4.965 -1.8799  0.4416 -0.4216
  336MOL   H11847688   2.604   2.641   4.938 -0.2966  0.9995 -2.0855
  336MOL   H11947689   2.679   2.386   4.993 -0.4949 -0.1529  0.9677
  336MOL   H12047690   2.890   2.419   4.976  2.7513 -0.7264  1.8032
  336MOL   C12147691   2.657   2.490   5.178  0.5196  0.4624 -0.0767
  336MOL   C12247692   2.512   2.420   5.185 -0.7163  0.8464  0.2553
  336MOL   O12347693   2.532   2.287   5.230  1.0764 -0.0647  0.2339
  336MOL   H12447694   2.720   2.463   5.263  1.0911  1.8624 -0.0418
  336MOL   H12547695   2.646   2.597   5.194 -1.3690  0.2080  0.4193
  336MOL   H12647696   2.470   2.413   5.085 -0.8415 -0.7047  0.3995
  336MOL   H12747697   2.593   2.238   5.176  0.1940  1.2407 -2.0145
  336MOL   C12847698   2.416   2.488   5.281  0.3224  0.8297  0.5451
  336MOL   C12947699   2.353   2.622   5.237  0.2966  0.2015  0.1055
  336MOL   O13047700   2.252   2.609   5.131 -0.1764  0.2241  0.9644
  336MOL   H13147701   2.338   2.417   5.309  4.0271 -3.4461  0.3779
  336MOL   H13247702   2.469   2.506   5.374  2.2340 -0.9974 -0.1712
  336MOL   H13347703   2.430   2.694   5.210  0.5751 -0.4964 -1.0104
  336MOL   H13447704   2.212   2.525   5.150  2.9809 -1.2155  1.5682
  336MOL   C13547705   2.286   2.690   5.353 -0.0369  0.0677 -0.6123
  336MOL   C13647706   2.233   2.837   5.327 -0.0608 -0.6659  0.6799
  336MOL   O13747707   2.190   2.892   5.447 -0.2833  0.4222  0.1500
  336MOL   H13847708   2.199   2.629   5.378 -0.3057  0.9094  0.5578
  336MOL   H13947709   2.347   2.690   5.444 -0.8897  0.4754 -0.0340
  336MOL   H14047710   2.155   2.824   5.252  1.7617 -0.9443 -1.2272
  336MOL   H14147711   2.216   2.983   5.449  1.6066 -0.0538 -0.7245
  336MOL   H14247712   2.316   2.894   5.285  0.0517 -1.6341 -0.4598
  337MOL     C147713   5.502   4.202   2.336  0.1661 -0.2015 -0.4636
  337MOL     C247714   5.371   4.290   2.341  0.0895 -0.0818 -0.1584
  337MOL     O347715   5.256   4.215   2.348  0.1359  0.5565 -0.2939
  337MOL     H447716   5.586   4.253   2.290 -0.2639  2.7728  1.8807
  337MOL     H547717   5.480   4.116   2.272  1.6066 -1.0172  0.1030
  337MOL     H647718   5.364   4.363   2.260  1.0082 -0.0184 -0.1859
  337MOL     H747719   5.183   4.266   2.317  1.4896  2.3002 -0.7224
  337MOL     H847720   5.525   4.178   2.440  1.9909  1.6106 -0.4208
  337MOL     C947721   5.370   4.387   2.456  0.7764  0.1398 -0.6086
  337MOL    C1047722   5.472   4.489   2.451  0.1470  0.2194  0.1624
  337MOL    O1147723   5.446   4.585   2.355  0.1717 -0.0773  0.1848
  337MOL    H1247724   5.272   4.433   2.465  0.3422 -0.7443 -0.6904
  337MOL    H1347725   5.372   4.327   2.547 -0.7679 -1.3723 -1.5238
  337MOL    H1447726   5.559   4.429   2.425 -0.9598 -0.4562 -2.1926
  337MOL    H1547727   5.524   4.634   2.333 -0.8641  2.5733  2.1237
  337MOL    C1647728   5.488   4.571   2.583  0.0681 -0.3883  0.1319
  337MOL    C1747729   5.634   4.635   2.602 -1.2504 -0.3777  0.0472
  337MOL    O1847730   5.633   4.758   2.667  0.2562  0.0754 -0.4475
  337MOL    H1947731   5.418   4.654   2.591  0.3777 -0.3817  3.0196
  337MOL    H2047732   5.462   4.514   2.672 -0.4948 -0.1337  0.1306
  337MOL    H2147733   5.680   4.661   2.507 -0.8919 -1.5153 -0.0983
  337MOL    H2247734   5.707   4.765   2.727 -0.1770  2.8561 -0.1457
  337MOL    C2347735   5.736   4.539   2.665 -0.5153 -0.3529  0.0950
  337MOL    C2447736   5.882   4.585   2.639  0.0624  0.0852 -0.7454
  337MOL    O2547737   5.901   4.702   2.713  0.0457 -0.1038 -0.1307
  337MOL    H2647738   5.716   4.512   2.769  0.5660  2.8919  1.2177
  337MOL    H2747739   5.722   4.440   2.622 -0.6172 -0.1424 -0.3619
  337MOL    H2847740   5.894   4.604   2.532 -1.2464 -0.6188 -1.0391
  337MOL    H2947741   5.928   4.674   2.799 -0.3902  0.2574  0.1250
  337MOL    C3047742   5.987   4.479   2.673 -0.4673 -0.4938  0.0097
  337MOL    C3147743   6.137   4.502   2.621 -0.1345  0.4356  0.4366
  337MOL    O3247744   6.206   4.572   2.721 -0.1311 -0.1522  0.0356
  337MOL    H3347745   5.980   4.453   2.779  1.2003  0.3508  0.3482
  337MOL    H3447746   5.942   4.392   2.627 -2.3580  0.7275 -0.5102
  337MOL    H3547747   6.136   4.566   2.534 -3.2153 -0.0858  0.0280
  337MOL    H3647748   6.221   4.658   2.686  2.1342  0.2231  1.8112
  337MOL    C3747749   6.193   4.364   2.582  0.5053 -0.1204 -0.3606
  337MOL    C3847750   6.339   4.367   2.535 -0.6199 -0.0772  0.1152
  337MOL    O3947751   6.375   4.224   2.546  0.1402  0.1021  0.0593
  337MOL    H4047752   6.170   4.295   2.663  2.1709 -0.8102 -0.4354
  337MOL    H4147753   6.137   4.328   2.495 -2.6834  1.6816  0.8912
  337MOL    H4247754   6.396   4.430   2.604  0.7896 -0.2713 -0.8677
  337MOL    H4347755   6.444   4.204   2.484 -1.6750 -1.0352 -1.6623
  337MOL    C4447756   6.369   4.414   2.395  0.1734  0.2806 -0.2645
  337MOL    C4547757   6.368   4.571   2.363  0.4528  0.7463  0.5552
  337MOL    O4647758   6.497   4.609   2.327 -0.3662  0.0998  0.1628
  337MOL    H4747759   6.450   4.353   2.356 -2.4273 -2.6654 -1.3162
  337MOL    H4847760   6.285   4.369   2.342  0.6488  0.3955 -1.1193
  337MOL    H4947761   6.343   4.623   2.455 -1.6653  1.1566 -0.2305
  337MOL    H5047762   6.545   4.626   2.406 -1.2800  1.8705  0.3750
  337MOL    C5147763   6.261   4.604   2.251  0.1028 -1.2319  0.2760
  337MOL    C5247764   6.273   4.750   2.197  0.4937 -0.7729  0.4253
  337MOL    O5347765   6.163   4.748   2.106  0.2606  0.3022  0.8663
  337MOL    H5447766   6.277   4.538   2.166 -0.3833 -0.3889 -0.4810
  337MOL    H5547767   6.159   4.575   2.278 -0.3414  1.4585  1.6627
  337MOL    H5647768   6.367   4.771   2.146 -0.1841 -0.2193 -0.6201
  337MOL    H5747769   6.186   4.696   2.030  2.9748 -0.9314  2.4465
  337MOL    C5847770   6.258   4.866   2.300  0.4884 -0.0793  0.1122
  337MOL    C5947771   6.289   5.015   2.259 -0.0208 -0.2379 -0.3512
  337MOL    O6047772   6.254   5.110   2.358 -0.3179 -0.3085 -0.1692
  337MOL    H6147773   6.163   4.857   2.353  0.8212  0.9784  0.9301
  337MOL    H6247774   6.325   4.840   2.381  1.3969 -0.8922 -0.8959
  337MOL    H6347775   6.224   5.033   2.173  0.0731  0.0321 -0.3667
  337MOL    H6447776   6.312   5.099   2.431  0.2892  0.6532 -0.4898
  337MOL    C6547777   6.436   5.036   2.230 -0.2027  0.0055 -0.4016
  337MOL    C6647778   6.474   5.174   2.162 -0.1686  0.7326 -0.5316
  337MOL    O6747779   6.613   5.200   2.167 -0.5126 -0.4062 -0.5337
  337MOL    H6847780   6.490   5.027   2.324  0.1106 -3.7275 -0.8606
  337MOL    H6947781   6.477   4.962   2.161  0.6662  1.0703 -1.0276
  337MOL    H7047782   6.432   5.256   2.221  0.9147 -0.0650  1.3968
  337MOL    H7147783   6.665   5.165   2.097 -1.1414 -1.6097 -0.4118
  337MOL    C7247784   6.427   5.193   2.021 -0.4137 -0.3234 -0.4851
  337MOL    C7347785   6.305   5.281   2.005 -0.3618  0.4352  1.0113
  337MOL    O7447786   6.336   5.415   2.026  0.2089 -0.3360 -0.5107
  337MOL    H7547787   6.502   5.244   1.961 -1.4756  1.1158 -0.6145
  337MOL    H7647788   6.413   5.097   1.972 -1.0987  0.3599 -1.6464
  337MOL    H7747789   6.236   5.268   2.089 -0.5909 -0.9575  0.6215
  337MOL    H7847790   6.259   5.457   2.062  0.4904  0.3313 -0.7045
  337MOL    C7947791   6.250   5.266   1.869  0.2042  0.1672  0.0464
  337MOL    C8047792   6.163   5.139   1.862 -0.3074 -0.3415 -0.4040
  337MOL    O8147793   6.025   5.180   1.854  0.3214  0.5279 -0.3101
  337MOL    H8247794   6.187   5.354   1.860  1.9876  1.6683  1.7219
  337MOL    H8347795   6.315   5.276   1.783 -0.5442  2.4184 -0.2733
  337MOL    H8447796   6.182   5.078   1.950  1.2005  1.9312  0.8989
  337MOL    H8547797   6.007   5.218   1.939 -0.4011  0.1154 -0.2731
  337MOL    C8647798   6.213   5.052   1.745 -1.4694  0.2778 -0.3352
  337MOL    C8747799   6.137   4.911   1.730  0.2870 -0.0103  0.1794
  337MOL    O8847800   5.993   4.924   1.733  0.9638  0.3433 -0.2639
  337MOL    H8947801   6.193   5.089   1.644  1.0450 -1.2593 -1.4367
  337MOL    H9047802   6.319   5.032   1.755 -1.1127  1.9414 -0.6865
  337MOL    H9147803   6.156   4.857   1.823  1.9686  2.0341  1.0664
  337MOL    H9247804   5.979   4.991   1.798 -1.0430  1.1763 -1.5031
  337MOL    C9347805   6.175   4.828   1.600  0.1636  0.1785 -0.1207
  337MOL    C9447806   6.321   4.779   1.604 -0.0334  0.0378  0.8280
  337MOL    O9547807   6.332   4.714   1.733  0.0089 -0.0194  0.2234
  337MOL    H9647808   6.111   4.740   1.595  0.2446  0.1174 -0.0719
  337MOL    H9747809   6.153   4.888   1.511 -1.3550 -0.1817  0.0001
  337MOL    H9847810   6.393   4.861   1.611  0.7858 -0.7224  1.3398
  337MOL    H9947811   6.424   4.694   1.748 -0.3467 -0.8440  1.3842
  337MOL   C10047812   6.359   4.677   1.493 -0.4479 -0.4461  0.6122
  337MOL   C10147813   6.375   4.744   1.351  0.3799  1.0134  0.7060
  337MOL   O10247814   6.485   4.827   1.351 -0.4579  0.7845 -0.4090
  337MOL   H10347815   6.455   4.628   1.507  0.6079  1.4105  0.0918
  337MOL   H10447816   6.284   4.598   1.494 -0.8761 -0.0456  0.5049
  337MOL   H10547817   6.286   4.804   1.331  1.5942  2.5300 -0.3273
  337MOL   H10647818   6.474   4.895   1.287 -3.0329  2.1545  1.3857
  337MOL   C10747819   6.392   4.632   1.244  0.9111  0.3577 -0.0427
  337MOL   C10847820   6.260   4.556   1.200  0.7539  0.4018  0.0420
  337MOL   O10947821   6.166   4.658   1.173 -0.2689 -0.2219 -0.2166
  337MOL   H11047822   6.443   4.672   1.157 -0.3234 -0.2576 -1.0676
  337MOL   H11147823   6.451   4.550   1.285 -0.5547  0.4504  2.4068
  337MOL   H11247824   6.228   4.499   1.287  1.6744  2.3746  1.7217
  337MOL   H11347825   6.109   4.669   1.247  1.3191 -1.6330  1.2496
  337MOL   C11447826   6.280   4.462   1.084  0.6836  0.2188  0.5313
  337MOL   C11547827   6.351   4.329   1.117  0.2051 -0.0663  0.6906
  337MOL   O11647828   6.271   4.263   1.216  0.3091  0.0565  0.3640
  337MOL   H11747829   6.179   4.432   1.054  1.1977 -1.5417  0.4919
  337MOL   H11847830   6.327   4.500   0.994 -1.1738 -1.8071 -1.3536
  337MOL   H11947831   6.453   4.347   1.153  0.4726 -0.6625  0.2414
  337MOL   H12047832   6.224   4.186   1.189  1.5355 -0.9412  1.0372
  337MOL   C12147833   6.369   4.233   0.992  0.2595 -0.2572 -0.4025
  337MOL   C12247834   6.487   4.271   0.900 -0.0161  0.3201 -0.1206
  337MOL   O12347835   6.612   4.238   0.959 -0.3776 -0.4667 -0.4605
  337MOL   H12447836   6.378   4.129   1.021  0.6632  0.0393  0.5509
  337MOL   H12547837   6.284   4.232   0.924  0.3020  0.1729 -0.4672
  337MOL   H12647838   6.493   4.375   0.870  1.1998 -0.6402 -3.3638
  337MOL   H12747839   6.603   4.150   0.994  1.7516 -0.6984 -0.4733
  337MOL   C12847840   6.475   4.197   0.765 -0.4926  0.1730 -0.5287
  337MOL   C12947841   6.400   4.273   0.661  0.1485 -0.5513 -0.3105
  337MOL   O13047842   6.482   4.378   0.612  0.3689 -0.3741 -0.1758
  337MOL   H13147843   6.576   4.174   0.732 -0.4676 -1.1435  0.4128
  337MOL   H13247844   6.434   4.097   0.780 -0.5423  0.2847  0.1328
  337MOL   H13347845   6.308   4.315   0.701  1.8950  1.6432  1.5624
  337MOL   H13447846   6.429   4.439   0.563 -0.4617  1.3102  2.7294
  337MOL   C13547847   6.351   4.189   0.539 -0.1990 -0.1660 -0.5738
  337MOL   C13647848   6.242   4.089   0.554  0.0525  0.3502 -0.0504
  337MOL   O13747849   6.195   4.054   0.420  0.3581  0.2568  0.0120
  337MOL   H13847850   6.331   4.260   0.458 -1.7451 -0.2936 -0.3280
  337MOL   H13947851   6.438   4.133   0.506 -1.5523 -1.1636 -2.5460
  337MOL   H14047852   6.154   4.121   0.610 -0.4400  0.1873 -0.7252
  337MOL   H14147853   6.259   3.997   0.379  1.0435 -0.3587  1.8883
  337MOL   H14247854   6.284   4.007   0.611  1.8078  0.9974 -0.3822
  338MOL     C147855   2.197   3.046   1.994 -0.1309 -0.4890 -0.7987
  338MOL     C247856   2.341   3.060   2.047  0.3747 -0.2401  0.3733
  338MOL     O347857   2.372   2.984   2.164  0.2853  0.2927 -0.0146
  338MOL     H447858   2.173   3.112   1.911 -1.6793 -0.4064 -0.2871
  338MOL     H547859   2.118   3.072   2.064 -0.1685  2.2342 -1.7957
  338MOL     H647860   2.349   3.164   2.079  1.6634  0.0888 -0.9882
  338MOL     H747861   2.302   3.001   2.226  1.3865  2.3193  0.7493
  338MOL     H847862   2.177   2.941   1.975  0.7105 -0.5837 -1.2180
  338MOL     C947863   2.440   3.021   1.941  0.4362  0.4918 -0.2732
  338MOL    C1047864   2.587   3.024   1.960 -1.0240 -0.4618  0.2386
  338MOL    O1147865   2.653   2.953   1.850 -0.4436  0.0141 -0.3436
  338MOL    H1247866   2.411   2.919   1.917  1.8643 -0.5256  2.1956
  338MOL    H1347867   2.405   3.061   1.845 -1.3643 -0.2821  0.0326
  338MOL    H1447868   2.616   2.969   2.049 -1.6777  3.0236  2.6899
  338MOL    H1547869   2.739   2.931   1.884 -0.4463 -0.0652 -0.3897
  338MOL    C1647870   2.635   3.171   1.973 -0.1016 -1.1187  0.2533
  338MOL    C1747871   2.669   3.222   2.115 -0.2619  0.4711 -0.5919
  338MOL    O1847872   2.776   3.151   2.183  0.5300  0.4377 -0.1199
  338MOL    H1947873   2.724   3.173   1.912  0.1357 -1.4198  0.5837
  338MOL    H2047874   2.566   3.238   1.922  1.5486 -0.1947 -0.7683
  338MOL    H2147875   2.584   3.202   2.179  1.1365 -2.0287  0.6006
  338MOL    H2247876   2.851   3.154   2.125  1.0082 -1.1833  0.3981
  338MOL    C2347877   2.709   3.375   2.115  0.3822  0.8240  0.0056
  338MOL    C2447878   2.658   3.459   2.232  0.5385 -0.5072 -1.1906
  338MOL    O2547879   2.728   3.423   2.351  0.7294  0.2840  0.3276
  338MOL    H2647880   2.814   3.400   2.097  0.4444  0.1270 -0.6323
  338MOL    H2747881   2.659   3.417   2.028 -0.2471  0.8607  0.3873
  338MOL    H2847882   2.554   3.430   2.247  0.2956  0.0320 -1.8059
  338MOL    H2947883   2.719   3.329   2.354 -2.3899  0.4188 -2.6555
  338MOL    C3047884   2.669   3.606   2.211  0.2514 -0.4220  0.0717
  338MOL    C3147885   2.624   3.700   2.325 -0.1980  0.2251  0.6803
  338MOL    O3247886   2.675   3.829   2.288  0.1402  0.2220  0.6594
  338MOL    H3347887   2.777   3.620   2.214  0.2889  0.1784 -2.5183
  338MOL    H3447888   2.627   3.652   2.121  1.3883  2.5256  0.9670
  338MOL    H3547889   2.678   3.678   2.417  3.1934 -2.2059 -1.7728
  338MOL    H3647890   2.656   3.897   2.352 -0.1541  0.7548  0.0089
  338MOL    C3747891   2.475   3.719   2.341 -0.2885 -0.1540 -0.0955
  338MOL    C3847892   2.402   3.602   2.414 -0.6263  1.2938 -0.7477
  338MOL    O3947893   2.363   3.645   2.542 -0.1508 -0.0537 -0.1969
  338MOL    H4047894   2.458   3.804   2.408 -0.1184  0.5623 -0.9633
  338MOL    H4147895   2.439   3.739   2.240  1.2047  0.3338 -0.5380
  338MOL    H4247896   2.466   3.515   2.429 -0.6343  1.6913  1.8080
  338MOL    H4347897   2.442   3.672   2.587 -0.0853  0.2874 -0.5060
  338MOL    C4447898   2.279   3.547   2.334 -0.5830  0.7350  0.7253
  338MOL    C4547899   2.206   3.428   2.389 -0.2333  0.9092 -0.1760
  338MOL    O4647900   2.090   3.400   2.304 -0.2574  0.1709 -0.1872
  338MOL    H4747901   2.212   3.632   2.320  1.0636  2.0199  0.5292
  338MOL    H4847902   2.330   3.524   2.240 -1.2629  2.2417 -0.0356
  338MOL    H4947903   2.180   3.438   2.495 -0.9396  0.1692 -0.2768
  338MOL    H5047904   2.013   3.377   2.354  1.3964 -0.7889  2.0083
  338MOL    C5147905   2.299   3.299   2.392 -0.0688  0.1022 -0.1292
  338MOL    C5247906   2.225   3.175   2.454  0.0762 -0.5306  0.4699
  338MOL    O5347907   2.177   3.093   2.351 -0.0524 -0.2708 -0.6166
  338MOL    H5447908   2.340   3.267   2.296 -1.8691  0.0456 -0.9092
  338MOL    H5547909   2.386   3.319   2.454  1.4472 -2.1553 -1.4653
  338MOL    H5647910   2.145   3.199   2.524 -0.5279  0.1167 -0.4294
  338MOL    H5747911   2.088   3.119   2.330  0.1043  2.5721  1.8277
  338MOL    C5847912   2.316   3.077   2.536 -1.0906 -0.0354 -0.4340
  338MOL    C5947913   2.369   3.126   2.676  0.6664  0.5996 -0.8361
  338MOL    O6047914   2.254   3.160   2.758 -0.5341 -0.2713  0.5140
  338MOL    H6147915   2.251   2.990   2.547 -0.1659 -0.6364  0.3256
  338MOL    H6247916   2.388   3.039   2.463 -0.8294  0.0515 -0.2227
  338MOL    H6347917   2.428   3.217   2.659  1.4903  0.0129 -1.1669
  338MOL    H6447918   2.290   3.171   2.845  0.0850 -0.3621  0.2744
  338MOL    C6547919   2.446   3.020   2.757  0.3460 -0.4603  0.0705
  338MOL    C6647920   2.573   2.967   2.685  0.2780 -0.1079  0.0586
  338MOL    O6747921   2.661   3.077   2.679  0.3817 -0.2641 -0.1268
  338MOL    H6847922   2.467   3.064   2.854 -1.3485 -1.2420  0.8240
  338MOL    H6947923   2.381   2.934   2.778 -0.0446 -0.2155 -0.1206
  338MOL    H7047924   2.555   2.927   2.585  0.6939  1.4624 -0.6698
  338MOL    H7147925   2.712   3.070   2.600  1.1900 -0.3214  0.3951
  338MOL    C7247926   2.655   2.854   2.755 -0.3834 -0.1145  0.2883
  338MOL    C7347927   2.732   2.781   2.653  0.0320 -0.8764  0.8448
  338MOL    O7447928   2.852   2.736   2.711  0.3662 -0.7552 -0.0105
  338MOL    H7547929   2.725   2.910   2.817  1.1458 -1.1825 -0.4343
  338MOL    H7647930   2.586   2.794   2.814  1.3710 -2.0443  0.4413
  338MOL    H7747931   2.760   2.856   2.579 -3.3003 -1.4201 -1.1156
  338MOL    H7847932   2.928   2.757   2.658  0.7561 -0.6253  0.6026
  338MOL    C7947933   2.656   2.662   2.591 -0.0769  0.0907 -0.0527
  338MOL    C8047934   2.737   2.601   2.472 -0.4263  0.2689  0.4501
  338MOL    O8147935   2.688   2.471   2.451 -0.0004 -0.1432 -0.3066
  338MOL    H8247936   2.644   2.592   2.674  2.3651 -1.5036 -0.9974
  338MOL    H8347937   2.556   2.693   2.561 -0.4209  0.1167  1.0873
  338MOL    H8447938   2.834   2.582   2.517 -0.5945  2.0658  1.6040
  338MOL    H8547939   2.763   2.431   2.410  0.4934  0.0077  0.4385
  338MOL    C8647940   2.753   2.683   2.346  0.3495  0.1522 -0.3478
  338MOL    C8747941   2.876   2.626   2.269  0.0849 -0.0581 -0.3470
  338MOL    O8847942   2.854   2.487   2.221 -0.4418  0.1717 -0.7950
  338MOL    H8947943   2.666   2.659   2.286  0.4558 -1.9417  0.3138
  338MOL    H9047944   2.762   2.792   2.351  0.0187  0.2807 -2.1775
  338MOL    H9147945   2.952   2.623   2.347 -1.2232 -0.6846  0.9214
  338MOL    H9247946   2.783   2.486   2.159 -1.3894 -0.2926  0.2803
  338MOL    C9347947   2.929   2.708   2.157 -0.3811  0.0307 -1.3713
  338MOL    C9447948   2.846   2.728   2.026  0.1511  0.0770  0.7348
  338MOL    O9547949   2.889   2.843   1.961  0.4536  0.2312  0.2577
  338MOL    H9647950   2.940   2.808   2.199 -0.7209 -1.0981  1.5261
  338MOL    H9747951   3.028   2.673   2.127  1.7501  3.2496  1.6144
  338MOL    H9847952   2.741   2.741   2.052  0.6236  0.9381  2.2504
  338MOL    H9947953   2.983   2.843   1.969  0.3544  0.5502  1.6526
  338MOL   C10047954   2.869   2.613   1.924 -0.1290 -0.4624 -0.8731
  338MOL   C10147955   2.799   2.627   1.786  0.0601 -0.5896  0.8805
  338MOL   O10247956   2.846   2.530   1.696  0.4527  0.0354 -0.5069
  338MOL   H10347957   2.977   2.602   1.917 -0.0301  0.3963 -0.7112
  338MOL   H10447958   2.843   2.514   1.963  0.9589  0.0221  1.1640
  338MOL   H10547959   2.841   2.717   1.741  0.8630  0.2026  3.1353
  338MOL   H10647960   2.777   2.469   1.678  1.0210 -1.3492  1.7733
  338MOL   C10747961   2.647   2.614   1.792  0.8143 -0.2673 -0.4350
  338MOL   C10847962   2.569   2.642   1.656 -0.8256 -0.6183  0.2411
  338MOL   O10947963   2.563   2.519   1.585  0.5417 -0.6756  0.5838
  338MOL   H11047964   2.616   2.517   1.829 -1.7306  0.2587 -1.1169
  338MOL   H11147965   2.610   2.694   1.856  1.1125 -0.7607  0.3597
  338MOL   H11247966   2.636   2.708   1.601 -1.9185  0.1912 -0.1542
  338MOL   H11347967   2.627   2.522   1.516 -0.5452  0.2107 -0.4087
  338MOL   C11447968   2.425   2.708   1.670  0.0281 -0.1314 -0.3899
  338MOL   C11547969   2.328   2.670   1.789 -0.3566  1.0410 -0.4963
  338MOL   O11647970   2.207   2.745   1.765  0.3012 -0.4461  0.2892
  338MOL   H11747971   2.450   2.812   1.689 -2.8677  0.7212 -1.0848
  338MOL   H11847972   2.377   2.715   1.572  0.9967  1.3100 -0.7730
  338MOL   H11947973   2.379   2.707   1.878 -3.0073  1.8558  0.7459
  338MOL   H12047974   2.140   2.693   1.724  0.5427 -2.3070  2.1394
  338MOL   C12147975   2.299   2.521   1.815  0.4602  0.1192  0.4268
  338MOL   C12247976   2.229   2.493   1.947  1.3154  0.0198  0.4622
  338MOL   O12347977   2.090   2.455   1.938 -0.3798  0.1765 -0.4581
  338MOL   H12447978   2.245   2.482   1.729  1.5304 -2.0294  0.6865
  338MOL   H12547979   2.398   2.475   1.812  0.1015 -0.5773 -2.0047
  338MOL   H12647980   2.229   2.592   1.990  2.0640  0.0587  0.3889
  338MOL   H12747981   2.093   2.380   1.881 -1.7386  0.8142 -1.3920
  338MOL   C12847982   2.305   2.391   2.035  0.3749 -0.2404 -0.2424
  338MOL   C12947983   2.290   2.415   2.190 -0.2802 -0.2156  0.8610
  338MOL   O13047984   2.316   2.292   2.255  0.8696  0.1786 -0.6141
  338MOL   H13147985   2.273   2.291   2.005 -0.8574  0.0604  0.0813
  338MOL   H13247986   2.413   2.393   2.017  0.4238  1.1242  0.1522
  338MOL   H13347987   2.189   2.451   2.205 -0.4978 -0.3821 -0.1636
  338MOL   H13447988   2.298   2.304   2.347  0.8537  3.1283 -0.9370
  338MOL   C13547989   2.389   2.511   2.260  0.4121  0.9665 -0.2728
  338MOL   C13647990   2.358   2.657   2.237  0.0940 -0.7085  0.6196
  338MOL   O13747991   2.432   2.714   2.130 -0.5163 -0.0991  0.0325
  338MOL   H13847992   2.392   2.495   2.367 -1.0244 -1.7994 -0.5988
  338MOL   H13947993   2.488   2.495   2.217  1.1841 -0.9988  2.1550
  338MOL   H14047994   2.367   2.710   2.331 -3.7922  0.6983  0.3139
  338MOL   H14147995   2.418   2.806   2.145  1.3871  0.5160 -1.6407
  338MOL   H14247996   2.252   2.677   2.222  0.2306 -0.8102 -0.5044
  339MOL     C147997   6.922   1.197   5.963 -0.9604  0.6319 -0.2124
  339MOL     C247998   6.867   1.051   5.941 -0.6174  0.2394 -0.0329
  339MOL     O347999   6.835   1.025   5.805  0.0151 -0.1499  0.2134
  339MOL     H448000   6.935   1.221   6.069 -0.8813 -1.2841  0.2344
  339MOL     H548001   6.851   1.265   5.917  0.9765  2.7417 -0.1674
  339MOL     H648002   6.769   1.042   5.986 -0.7461  2.5496  0.2027
  339MOL     H748003   6.771   1.087   5.774  1.0296  1.1333  0.6537
  339MOL     H848004   7.012   1.222   5.908  0.0555 -0.0460  1.0908
  339MOL     C948005   6.972   0.945   5.988 -0.3937  0.3077 -0.5254
  339MOL    C1048006   6.915   0.801   5.977 -0.8630 -0.1202 -0.1929
  339MOL    O1148007   6.926   0.756   5.841 -0.1451 -0.2377  0.2159
  339MOL    H1248008   7.060   0.967   5.928  0.8005  0.9437  1.4223
  339MOL    H1348009   6.994   0.960   6.094 -2.1660 -2.1422  0.2334
  339MOL    H1448010   6.814   0.789   6.017 -0.2037  0.1648  1.6179
  339MOL    H1548011   6.895   0.829   5.790  0.1014 -1.9875 -2.5398
  339MOL    C1648012   7.000   0.697   6.053  0.0666  0.4292 -0.2825
  339MOL    C1748013   6.959   0.685   6.197 -0.4707 -0.3039 -0.5975
  339MOL    O1848014   6.853   0.592   6.218 -0.0257  0.5302 -0.0921
  339MOL    H1948015   6.979   0.601   6.006 -2.6467  1.6727 -1.7444
  339MOL    H2048016   7.106   0.722   6.049  0.5424 -1.5492 -0.4937
  339MOL    H2148017   6.927   0.785   6.227  1.7850  0.1580  0.3530
  339MOL    H2248018   6.793   0.591   6.145  0.0944 -1.5301 -0.1736
  339MOL    C2348019   7.075   0.618   6.284 -0.2378  0.2172  0.0602
  339MOL    C2448020   7.042   0.580   6.431  0.3955 -0.2334 -0.1597
  339MOL    O2548021   7.156   0.514   6.482 -0.5179 -0.4915 -0.2996
  339MOL    H2648022   7.116   0.526   6.242 -1.1781  0.4907 -1.4984
  339MOL    H2748023   7.151   0.695   6.293 -0.5312  0.8074 -2.1669
  339MOL    H2848024   6.960   0.509   6.423 -0.0009  0.0937  0.9333
  339MOL    H2948025   7.215   0.575   6.524 -1.5692  1.6424 -1.7961
  339MOL    C3048026   7.007   0.688   6.535 -0.4353  0.2323 -0.4896
  339MOL    C3148027   6.929   0.641   6.654 -0.0032  0.2031  0.2998
  339MOL    O3248028   6.953   0.723   6.762  0.1209 -0.3829  0.4023
  339MOL    H3348029   7.104   0.725   6.565  1.2015 -1.3692 -3.5792
  339MOL    H3448030   6.966   0.775   6.482  0.5394  1.7496  1.2188
  339MOL    H3548031   6.956   0.538   6.677 -0.7761  0.1204  0.8730
  339MOL    H3648032   7.018   0.685   6.819  1.1261  0.1196 -0.3888
  339MOL    C3748033   6.777   0.655   6.620 -0.4254 -0.1192  0.3830
  339MOL    C3848034   6.674   0.554   6.692 -0.3183 -0.0540  0.4131
  339MOL    O3948035   6.553   0.635   6.714 -0.4299  0.2124  0.2860
  339MOL    H4048036   6.740   0.757   6.635 -1.2861 -0.5295  1.0355
  339MOL    H4148037   6.765   0.640   6.512 -1.8735 -3.2156  0.9203
  339MOL    H4248038   6.718   0.523   6.787 -0.0524 -1.2236 -0.0797
  339MOL    H4348039   6.583   0.707   6.768 -1.8060  0.3658  0.8669
  339MOL    C4448040   6.629   0.440   6.593  0.3972 -0.4629 -0.4448
  339MOL    C4548041   6.731   0.329   6.576 -0.5609  0.1598  0.7568
  339MOL    O4648042   6.753   0.260   6.702  0.0017  0.0105 -0.1610
  339MOL    H4748043   6.537   0.407   6.641  0.1825 -1.0203 -1.2327
  339MOL    H4848044   6.591   0.486   6.502  2.0295 -2.0966 -2.0108
  339MOL    H4948045   6.816   0.388   6.544  0.0769 -1.1779 -0.0804
  339MOL    H5048046   6.667   0.240   6.736  0.3770  0.5692  1.1526
  339MOL    C5148047   6.695   0.234   6.465 -0.7147 -0.4038 -0.7145
  339MOL    C5248048   6.697   0.282   6.326 -0.5076  0.2612  0.0577
  339MOL    O5348049   6.830   0.314   6.289 -0.3916  0.0866 -0.2140
  339MOL    H5448050   6.761   0.148   6.456 -0.5451 -0.1202 -2.3694
  339MOL    H5548051   6.601   0.183   6.483 -0.8390  0.3745  0.9869
  339MOL    H5648052   6.645   0.377   6.317 -1.3712 -0.2174 -0.0949
  339MOL    H5748053   6.819   0.404   6.263 -1.6230 -0.3524 -1.3065
  339MOL    C5848054   6.635   0.179   6.233 -0.1575  0.1322 -0.5829
  339MOL    C5948055   6.491   0.213   6.189  0.1723  0.1553 -0.2368
  339MOL    O6048056   6.445   0.102   6.117  0.0908  0.2128 -0.4600
  339MOL    H6148057   6.698   0.180   6.143 -0.3858  1.6254 -0.7409
  339MOL    H6248058   6.637   0.082   6.282 -1.0601  0.5279  0.2509
  339MOL    H6348059   6.491   0.298   6.121  1.2486  1.2958  1.1543
  339MOL    H6448060   6.514   0.040   6.098  0.8501  0.7763  0.4123
  339MOL    C6548061   6.386   0.236   6.303  0.5344  0.2293  0.0402
  339MOL    C6648062   6.243   0.270   6.251 -1.5444  0.7519  0.5103
  339MOL    O6748063   6.142   0.256   6.347  0.5348 -0.5059 -0.1145
  339MOL    H6848064   6.385   0.149   6.370  1.7191  0.5304  0.4562
  339MOL    H6948065   6.435   0.317   6.358  1.1054 -1.2954  1.8493
  339MOL    H7048066   6.215   0.193   6.179  1.2410  1.3949 -1.2954
  339MOL    H7148067   6.131   0.165   6.371  1.1861 -0.2201  1.3140
  339MOL    C7248068   6.250   0.409   6.192  0.5189  0.7235 -0.4862
  339MOL    C7348069   6.132   0.465   6.114 -0.5570  0.3650  0.7154
  339MOL    O7448070   6.119   0.405   5.984 -0.2111  0.1462  0.1183
  339MOL    H7548071   6.265   0.470   6.280 -0.0902 -0.5775  0.5388
  339MOL    H7648072   6.341   0.414   6.132  1.4833 -0.3223  0.8597
  339MOL    H7748073   6.160   0.567   6.087 -0.0301  0.5419  1.9061
  339MOL    H7848074   6.086   0.316   5.983  0.9956 -0.3440  1.6231
  339MOL    C7948075   5.988   0.451   6.175  0.0449  0.3780  0.4788
  339MOL    C8048076   5.963   0.512   6.317  0.1604  0.1031  0.3678
  339MOL    O8148077   5.983   0.654   6.323  0.0233  0.3871 -0.0551
  339MOL    H8248078   5.917   0.500   6.109 -0.1419  0.5757  0.8250
  339MOL    H8348079   5.958   0.347   6.177 -1.3882  0.7910  1.3248
  339MOL    H8448080   6.041   0.471   6.380  0.7017  0.5947  0.0267
  339MOL    H8548081   6.072   0.686   6.321 -0.3077  1.3674  0.4938
  339MOL    C8648082   5.822   0.486   6.366  0.3800 -0.2130  0.7440
  339MOL    C8748083   5.790   0.513   6.517  0.4023  0.4132 -0.0187
  339MOL    O8848084   5.647   0.530   6.528 -0.0283 -0.1890 -0.2364
  339MOL    H8948085   5.772   0.567   6.312 -0.1483 -1.5319 -0.8137
  339MOL    H9048086   5.792   0.384   6.341 -0.7435  0.0965  0.7938
  339MOL    H9148087   5.830   0.610   6.548  2.6507 -0.5059  0.0430
  339MOL    H9248088   5.634   0.563   6.616 -1.0139 -0.4059 -0.3016
  339MOL    C9348089   5.823   0.396   6.613  0.4742  0.4154 -0.0780
  339MOL    C9448090   5.966   0.390   6.667 -0.5392 -0.3869 -0.6226
  339MOL    O9548091   6.002   0.500   6.748  0.5092  0.0295  0.6492
  339MOL    H9648092   5.768   0.407   6.706  1.6543 -0.2838  0.7112
  339MOL    H9748093   5.799   0.305   6.558  4.2345  0.2318 -1.5234
  339MOL    H9848094   6.029   0.388   6.578 -0.4777 -2.8104 -0.5631
  339MOL    H9948095   6.020   0.577   6.696 -2.0443  1.9922  2.5428
  339MOL   C10048096   5.991   0.260   6.742  0.7554  0.6658  0.0581
  339MOL   C10148097   6.117   0.240   6.824  0.2086 -0.8499  0.7772
  339MOL   O10248098   6.113   0.110   6.887  0.3474 -0.3429  0.2083
  339MOL   H10348099   5.904   0.227   6.799 -0.8835  0.7678 -2.3397
  339MOL   H10448100   5.983   0.174   6.675 -2.3084  0.1228  1.0422
  339MOL   H10548101   6.124   0.318   6.900  1.2041  0.1907 -0.3547
  339MOL   H10648102   6.062   0.051   6.834 -2.0819  0.1830  1.8615
  339MOL   C10748103   6.247   0.223   6.749 -0.4199 -0.3797 -0.2933
  339MOL   C10848104   6.384   0.191   6.822  0.5381 -0.2152  0.0400
  339MOL   O10948105   6.482   0.161   6.726 -0.0127  0.2992 -0.1040
  339MOL   H11048106   6.240   0.142   6.677  0.0839 -1.7769  1.1925
  339MOL   H11148107   6.264   0.315   6.694 -1.1246  1.2505  2.1049
  339MOL   H11248108   6.373   0.097   6.876  0.3371 -0.7407 -0.9068
  339MOL   H11348109   6.470   0.072   6.697  0.5378  0.1549  0.0985
  339MOL   C11448110   6.446   0.303   6.903 -0.7390  0.6203 -0.2259
  339MOL   C11548111   6.377   0.339   7.037 -0.4630  0.6374  0.5425
  339MOL   O11648112   6.359   0.226   7.117 -0.5342 -0.1546 -0.7449
  339MOL   H11748113   6.552   0.282   6.919 -1.0507 -1.3972 -0.6444
  339MOL   H11848114   6.437   0.385   6.832 -2.2948  1.5387  0.9815
  339MOL   H11948115   6.274   0.373   7.033 -0.4593  0.6530  0.5765
  339MOL   H12048116   6.271   0.195   7.104 -1.3911  0.6499  2.5317
  339MOL   C12148117   6.462   0.436   7.126  0.2812  0.1944 -0.5819
  339MOL   C12248118   6.520   0.555   7.041 -0.0893 -0.1640 -0.0743
  339MOL   O12348119   6.410   0.621   6.981 -0.3664  0.1650 -0.0502
  339MOL   H12448120   6.408   0.471   7.214 -0.7139 -1.6995 -0.4077
  339MOL   H12548121   6.547   0.379   7.164  0.7040  1.2287  0.0363
  339MOL   H12648122   6.573   0.508   6.959  0.9404 -1.8674  1.5024
  339MOL   H12748123   6.417   0.601   6.889 -0.6427  1.8419 -0.4542
  339MOL   C12848124   6.615   0.658   7.111 -0.1272  0.8460 -0.5515
  339MOL   C12948125   6.698   0.749   7.015  0.5717 -0.0844 -0.0608
  339MOL   O13048126   6.605   0.829   6.945  0.0791  0.1051  0.3072
  339MOL   H13148127   6.575   0.719   7.192 -0.3929  1.8936 -1.4710
  339MOL   H13248128   6.687   0.600   7.169  0.0128  1.4324 -0.1340
  339MOL   H13348129   6.755   0.695   6.939  0.1394  0.5221 -0.8286
  339MOL   H13448130   6.550   0.871   7.009 -0.7227 -1.3343  0.5796
  339MOL   C13548131   6.799   0.840   7.083  0.4938  0.2028  0.1281
  339MOL   C13648132   6.914   0.776   7.159 -0.5030 -0.7195 -0.1326
  339MOL   O13748133   6.999   0.868   7.221  0.1839  1.0047  0.3953
  339MOL   H13848134   6.843   0.902   7.005 -1.2834 -0.9458 -1.8189
  339MOL   H13948135   6.750   0.911   7.150 -0.0276  2.1946 -2.3066
  339MOL   H14048136   6.970   0.732   7.077 -2.5317 -0.7157 -1.5550
  339MOL   H14148137   6.954   0.922   7.285  2.2797 -0.9949  3.7364
  339MOL   H14248138   6.888   0.698   7.231 -0.8313 -1.5288 -1.1107
  340MOL     C148139   3.808   1.057   3.254  0.0267  0.3859  0.3371
  340MOL     C248140   3.659   1.090   3.256 -0.1704 -0.1489 -0.0527
  340MOL     O348141   3.630   1.117   3.397  0.3211  0.4252  0.0454
  340MOL     H448142   3.867   1.148   3.256 -1.3917  1.3272 -0.0491
  340MOL     H548143   3.828   1.008   3.159 -0.2834  0.2498  0.3401
  340MOL     H648144   3.606   1.001   3.222 -0.9099  0.0285  0.6286
  340MOL     H748145   3.676   1.050   3.444  1.5068  0.8495 -0.4674
  340MOL     H848146   3.831   0.983   3.331 -2.0479  0.7257  1.3353
  340MOL     C948147   3.610   1.202   3.163 -0.2506 -0.0414  0.5754
  340MOL    C1048148   3.659   1.189   3.013 -0.5059 -0.5147  0.2797
  340MOL    O1148149   3.596   1.081   2.948 -0.3378 -0.0649 -0.2545
  340MOL    H1248150   3.502   1.202   3.151  0.0319 -0.5054 -2.1248
  340MOL    H1348151   3.636   1.303   3.196 -0.8194 -0.1191  1.2871
  340MOL    H1448152   3.767   1.178   3.005 -0.3336  1.2115 -0.0154
  340MOL    H1548153   3.595   1.101   2.856  1.5381  0.9021 -0.0956
  340MOL    C1648154   3.625   1.322   2.938  0.8286  0.0497 -0.0762
  340MOL    C1748155   3.717   1.444   2.942  0.2165  0.2041  0.8403
  340MOL    O1848156   3.827   1.406   2.861 -0.7491 -0.7241 -0.8107
  340MOL    H1948157   3.632   1.297   2.832 -0.5363 -2.1689  0.3041
  340MOL    H2048158   3.523   1.360   2.941  0.6498 -0.0746 -3.3751
  340MOL    H2148159   3.758   1.461   3.041  1.1852  0.3532  0.4199
  340MOL    H2248160   3.903   1.445   2.901 -0.7617  0.1170 -1.5995
  340MOL    C2348161   3.653   1.574   2.888  0.3524  0.1759 -0.1441
  340MOL    C2448162   3.544   1.641   2.978 -0.1790  0.4395 -0.0995
  340MOL    O2548163   3.617   1.737   3.050  0.4209 -0.4214  0.0887
  340MOL    H2648164   3.736   1.643   2.872  0.0717  0.5775  0.1088
  340MOL    H2748165   3.615   1.561   2.787  1.6557 -1.0271 -0.4866
  340MOL    H2848166   3.490   1.565   3.036  1.2875 -0.8375 -0.3669
  340MOL    H2948167   3.564   1.765   3.123  0.1673  1.9973 -0.9754
  340MOL    C3048168   3.436   1.718   2.892  0.2148  0.5720  0.2571
  340MOL    C3148169   3.348   1.628   2.796  0.0628  0.3912  0.4982
  340MOL    O3248170   3.284   1.537   2.878  0.0899 -0.4880  0.1480
  340MOL    H3348171   3.367   1.773   2.955  1.6156  0.9918  1.4364
  340MOL    H3448172   3.486   1.797   2.835  0.3716 -0.5834 -1.2411
  340MOL    H3548173   3.411   1.574   2.725 -2.6851 -0.3495 -1.4666
  340MOL    H3648174   3.265   1.569   2.965 -1.6002  0.7252 -0.6193
  340MOL    C3748175   3.245   1.705   2.706 -0.6489  0.4178  0.1368
  340MOL    C3848176   3.313   1.762   2.585 -0.1300 -0.8176 -0.4051
  340MOL    O3948177   3.365   1.669   2.498  0.2240 -0.2292  0.0671
  340MOL    H4048178   3.160   1.647   2.669 -1.3835  1.9447 -0.6008
  340MOL    H4148179   3.213   1.789   2.767 -0.0868  1.0588 -0.4351
  340MOL    H4248180   3.393   1.820   2.632 -1.6025 -0.5992  1.9424
  340MOL    H4348181   3.457   1.686   2.484  0.4869 -1.0079  0.8454
  340MOL    C4448182   3.221   1.861   2.517  0.3707  0.3797 -0.4572
  340MOL    C4548183   3.282   1.958   2.408 -0.8034 -0.5722 -0.2563
  340MOL    O4648184   3.376   2.050   2.466  0.0666 -0.1483  0.0557
  340MOL    H4748185   3.134   1.817   2.468  0.7774 -1.7692  0.6856
  340MOL    H4848186   3.174   1.922   2.594 -0.1603  0.2443 -0.6705
  340MOL    H4948187   3.203   2.025   2.374  0.0449  1.1014  1.0133
  340MOL    H5048188   3.320   2.121   2.494  0.6786  0.7683 -1.0319
  340MOL    C5148189   3.352   1.894   2.285  0.4274  0.0543  0.0268
  340MOL    C5248190   3.259   1.809   2.190  0.4448  0.6419  1.3359
  340MOL    O5348191   3.201   1.892   2.090 -0.4280  0.6398 -0.1167
  340MOL    H5448192   3.387   1.969   2.215 -0.4541 -1.5355 -2.1825
  340MOL    H5548193   3.442   1.840   2.315  0.9614  1.2144  0.5242
  340MOL    H5648194   3.188   1.753   2.252  0.4305 -0.7719  0.0845
  340MOL    H5748195   3.157   1.838   2.025  0.8755 -0.6565  0.0475
  340MOL    C5848196   3.331   1.698   2.111 -0.7335  0.4137 -0.3592
  340MOL    C5948197   3.366   1.572   2.197 -0.6757 -1.0834 -0.5788
  340MOL    O6048198   3.260   1.526   2.274  0.6189 -0.0018 -0.1147
  340MOL    H6148199   3.276   1.662   2.024  0.5079 -1.2734 -0.4741
  340MOL    H6248200   3.425   1.744   2.081 -1.3110  1.1822 -1.0108
  340MOL    H6348201   3.434   1.622   2.266  0.2544  1.1949 -3.0927
  340MOL    H6448202   3.266   1.576   2.355  0.9705  1.7178 -1.1835
  340MOL    C6548203   3.424   1.454   2.107  0.2266 -0.2352 -0.9024
  340MOL    C6648204   3.559   1.493   2.032  0.1884  0.3056 -0.8937
  340MOL    O6748205   3.652   1.543   2.130  0.3301  0.5439 -0.1517
  340MOL    H6848206   3.443   1.367   2.171  0.9542  0.3600 -0.2999
  340MOL    H6948207   3.340   1.439   2.039 -0.2415 -0.0905 -0.3631
  340MOL    H7048208   3.533   1.570   1.958 -0.4802  1.4478  0.5168
  340MOL    H7148209   3.725   1.589   2.091 -0.0961 -0.3272 -2.0340
  340MOL    C7248210   3.626   1.375   1.955 -0.3107  0.8433  0.7091
  340MOL    C7348211   3.540   1.305   1.850  0.3569 -0.1662  1.0128
  340MOL    O7448212   3.492   1.403   1.756  0.2443 -0.3954  0.0106
  340MOL    H7548213   3.716   1.412   1.906 -1.8443  1.3716 -1.7881
  340MOL    H7648214   3.665   1.297   2.020  0.2846 -1.5118 -2.3493
  340MOL    H7748215   3.454   1.257   1.896 -0.9495  1.4502  0.2773
  340MOL    H7848216   3.496   1.352   1.676 -0.2080  0.0161 -0.2770
  340MOL    C7948217   3.627   1.202   1.777 -0.0768  0.2732 -0.0054
  340MOL    C8048218   3.554   1.125   1.665 -0.0163 -0.1340 -0.2080
  340MOL    O8148219   3.544   1.215   1.556 -0.3069 -0.6184 -0.2597
  340MOL    H8248220   3.715   1.251   1.733  0.4223 -1.4573 -1.0031
  340MOL    H8348221   3.648   1.124   1.851 -0.7595 -0.7710 -0.8964
  340MOL    H8448222   3.458   1.088   1.701  0.0266 -0.5288 -0.4975
  340MOL    H8548223   3.529   1.153   1.486  0.4437  1.1042 -1.9970
  340MOL    C8648224   3.646   1.015   1.620 -0.5364 -0.1112 -0.4738
  340MOL    C8748225   3.588   0.904   1.524 -0.2321  0.0198 -0.1161
  340MOL    O8848226   3.539   0.976   1.413 -0.9151 -0.3670  0.2952
  340MOL    H8948227   3.739   1.051   1.576 -2.3826  2.3707 -2.4910
  340MOL    H9048228   3.679   0.957   1.707  0.2446  1.5472  0.3431
  340MOL    H9148229   3.499   0.859   1.568  1.0969 -1.2644  1.2939
  340MOL    H9248230   3.485   0.927   1.353 -1.7992 -0.5385  1.2012
  340MOL    C9348231   3.692   0.799   1.469  0.4633 -0.1295  0.0069
  340MOL    C9448232   3.783   0.745   1.581  0.3513 -0.1330  0.7186
  340MOL    O9548233   3.688   0.679   1.671  0.0540  0.1258  0.1986
  340MOL    H9648234   3.644   0.718   1.415  0.4290 -0.2721  0.2500
  340MOL    H9748235   3.758   0.840   1.392 -2.2517 -0.8780 -2.7954
  340MOL    H9848236   3.829   0.833   1.626 -1.9837  2.3033 -1.5104
  340MOL    H9948237   3.654   0.734   1.740  0.9216  0.4495  0.3759
  340MOL   C10048238   3.880   0.635   1.529 -0.0305 -0.1323 -0.0324
  340MOL   C10148239   3.977   0.581   1.634 -0.1306  0.2247 -1.1764
  340MOL   O10248240   3.968   0.437   1.650  0.3264  0.3313 -0.1367
  340MOL   H10348241   3.833   0.546   1.489  0.0594 -0.5868  0.8582
  340MOL   H10448242   3.942   0.668   1.446 -0.7672 -0.5101 -0.7397
  340MOL   H10548243   3.940   0.624   1.727  2.2396 -0.4247  0.1077
  340MOL   H10648244   3.900   0.420   1.713  0.3308  0.7134 -0.0284
  340MOL   C10748245   4.131   0.621   1.615 -0.0107  0.4141 -0.4528
  340MOL   C10848246   4.220   0.620   1.737  0.2656 -0.1420 -0.5029
  340MOL   O10948247   4.163   0.684   1.852  0.1774 -0.1032 -0.5360
  340MOL   H11048248   4.182   0.583   1.527 -0.1265 -1.0968  0.1247
  340MOL   H11148249   4.121   0.728   1.594 -0.4814  1.7257  5.6068
  340MOL   H11248250   4.311   0.673   1.708  0.0454 -0.3088 -1.5250
  340MOL   H11348251   4.136   0.628   1.923 -0.4668  1.5844  0.5507
  340MOL   C11448252   4.264   0.480   1.785  0.0209 -0.7992 -0.4148
  340MOL   C11548253   4.341   0.391   1.683 -0.2012 -0.7978  0.2827
  340MOL   O11648254   4.432   0.304   1.747 -0.4124  0.3095  0.0896
  340MOL   H11748255   4.321   0.492   1.877  0.5383 -0.5908 -0.7587
  340MOL   H11848256   4.177   0.419   1.808  0.8993 -2.2025 -0.7538
  340MOL   H11948257   4.412   0.448   1.622 -1.8132  1.5611  0.5257
  340MOL   H12048258   4.498   0.356   1.792 -1.0226  1.8465 -0.7691
  340MOL   C12148259   4.256   0.305   1.596  0.0847  0.7701 -0.1130
  340MOL   C12248260   4.331   0.241   1.472  0.4159 -0.1490 -0.6151
  340MOL   O12348261   4.274   0.117   1.447 -0.6455  0.5838  0.6322
  340MOL   H12448262   4.228   0.221   1.660 -1.8275  0.7034 -0.9992
  340MOL   H12548263   4.164   0.351   1.558 -1.0486 -0.1609  1.4263
  340MOL   H12648264   4.435   0.221   1.500  1.3081  0.0004 -3.6206
  340MOL   H12748265   4.346   0.057   1.433  0.3475  1.9084 -0.0344
  340MOL   C12848266   4.335   0.335   1.342 -0.3756  0.1027 -0.4024
  340MOL   C12948267   4.406   0.467   1.353 -0.5037 -0.0085 -0.1603
  340MOL   O13048268   4.540   0.446   1.403 -0.1062 -0.2248  0.0307
  340MOL   H13148269   4.378   0.284   1.256  0.6157 -0.0549  0.1775
  340MOL   H13248270   4.236   0.374   1.316  0.3228  1.6586 -0.8149
  340MOL   H13348271   4.359   0.530   1.430 -2.6512 -1.9589  0.1697
  340MOL   H13448272   4.579   0.394   1.334 -1.6140 -2.7518  1.0079
  340MOL   C13548273   4.421   0.552   1.224  0.2369  0.2659 -1.0601
  340MOL   C13648274   4.289   0.624   1.178  1.4403 -0.8649  0.2908
  340MOL   O13748275   4.322   0.705   1.069  0.0627 -0.1263 -0.1872
  340MOL   H13848276   4.500   0.623   1.245  0.6330 -0.3633 -0.3913
  340MOL   H13948277   4.474   0.490   1.152  0.9808 -1.1591  0.6622
  340MOL   H14048278   4.241   0.685   1.254 -0.6560  1.2715 -2.6513
  340MOL   H14148279   4.240   0.733   1.030 -0.8531 -0.4128  1.4626
  340MOL   H14248280   4.210   0.549   1.169  0.4026  0.0766  1.3630
  341MOL     C148281   4.258   3.402   1.039  0.1647  0.4263 -0.0540
  341MOL     C248282   4.276   3.306   1.151 -0.7926  0.2473  0.0897
  341MOL     O348283   4.299   3.171   1.107 -0.0180 -0.0919  0.5354
  341MOL     H448284   4.349   3.420   0.981 -0.0467  2.6617  0.2648
  341MOL     H548285   4.227   3.501   1.072  2.2535  0.1669  2.8758
  341MOL     H648286   4.182   3.294   1.205 -0.3707  0.3804  0.8580
  341MOL     H748287   4.222   3.122   1.129 -0.9567  0.7736 -0.7770
  341MOL     H848288   4.197   3.353   0.963  1.9145 -1.9415  0.0258
  341MOL     C948289   4.386   3.337   1.260 -0.8562  0.5780 -0.4384
  341MOL    C1048290   4.408   3.486   1.311 -0.3141  0.2639 -0.6479
  341MOL    O1148291   4.287   3.524   1.374 -0.5557  0.1996 -0.0559
  341MOL    H1248292   4.356   3.262   1.334  3.2939 -0.7569  0.0421
  341MOL    H1348293   4.475   3.298   1.211 -0.8711  0.2569 -0.2149
  341MOL    H1448294   4.421   3.546   1.221  0.0970  2.5458  0.8996
  341MOL    H1548295   4.291   3.609   1.416 -0.2049  0.1633 -0.0150
  341MOL    C1648296   4.520   3.513   1.411 -0.3912 -0.7810 -0.1297
  341MOL    C1748297   4.656   3.444   1.374  0.2011 -0.6374 -0.8082
  341MOL    O1848298   4.707   3.477   1.244 -0.3930  0.1885 -0.3118
  341MOL    H1948299   4.530   3.621   1.419  1.2005 -1.0419  1.7234
  341MOL    H2048300   4.485   3.463   1.501 -1.4720 -1.3389 -0.8456
  341MOL    H2148301   4.647   3.336   1.382  2.2572 -0.8057 -0.4971
  341MOL    H2248302   4.774   3.414   1.223 -0.6789  0.0419 -0.8101
  341MOL    C2348303   4.770   3.486   1.471  0.7701  0.1001  0.4530
  341MOL    C2448304   4.739   3.474   1.623  0.7690 -0.7733  0.2125
  341MOL    O2548305   4.714   3.341   1.670 -0.1461 -0.4574  0.3995
  341MOL    H2648306   4.858   3.425   1.449 -0.6857 -2.0289  0.4265
  341MOL    H2748307   4.800   3.589   1.450 -0.6447  0.8467  1.9496
  341MOL    H2848308   4.651   3.535   1.645  1.2069 -0.3472  0.7965
  341MOL    H2948309   4.680   3.344   1.758  1.9238 -1.3572  1.2743
  341MOL    C3048310   4.848   3.543   1.715  0.0473 -0.4554 -0.9639
  341MOL    C3148311   4.883   3.695   1.701 -0.3103 -0.1457 -1.0752
  341MOL    O3248312   4.763   3.769   1.724  0.2464  0.5216  0.4910
  341MOL    H3348313   4.817   3.523   1.817  1.5225 -0.9213 -0.5948
  341MOL    H3448314   4.939   3.483   1.708 -0.3111 -1.2759  1.0653
  341MOL    H3548315   4.912   3.729   1.602 -1.1728  3.8909 -0.0755
  341MOL    H3648316   4.799   3.850   1.756  0.9832 -0.9284  3.5756
  341MOL    C3748317   4.984   3.754   1.801 -0.3612 -0.2254  0.4637
  341MOL    C3848318   5.132   3.700   1.807  0.1725  0.3079 -0.2089
  341MOL    O3948319   5.126   3.561   1.845  0.5396 -0.1140 -0.5203
  341MOL    H4048320   4.973   3.860   1.776 -3.6541 -0.1409  2.0152
  341MOL    H4148321   4.945   3.741   1.902  1.5738 -1.8664  1.0467
  341MOL    H4248322   5.177   3.753   1.890 -1.3591 -0.1079  0.9164
  341MOL    H4348323   5.116   3.570   1.938  1.6480  2.1182 -0.5828
  341MOL    C4448324   5.213   3.711   1.676 -0.2219 -1.0492  0.2659
  341MOL    C4548325   5.234   3.857   1.631  0.3400 -0.6414  0.0541
  341MOL    O4648326   5.307   3.913   1.732 -0.3858 -1.0616 -0.1789
  341MOL    H4748327   5.311   3.673   1.703  0.3688  0.0031 -0.3582
  341MOL    H4848328   5.160   3.656   1.599 -3.3063 -1.4131  2.5252
  341MOL    H4948329   5.143   3.914   1.617 -0.1521 -1.1511  1.1320
  341MOL    H5048330   5.296   4.006   1.718 -2.7016 -1.3743 -0.6355
  341MOL    C5148331   5.338   3.876   1.523  0.2079 -0.1568  0.0396
  341MOL    C5248332   5.300   3.801   1.394 -0.2692 -0.1178  0.8650
  341MOL    O5348333   5.360   3.883   1.294 -0.1751  0.4307  0.2510
  341MOL    H5448334   5.329   3.983   1.509  1.8914  0.0780  0.6255
  341MOL    H5548335   5.445   3.872   1.543  0.2552  1.7914  0.2494
  341MOL    H5648336   5.191   3.798   1.387 -0.2137 -1.1705  0.4953
  341MOL    H5748337   5.310   3.963   1.305 -1.5278 -0.6935  2.4477
  341MOL    C5848338   5.353   3.658   1.383  0.2947 -0.1969 -0.4764
  341MOL    C5948339   5.301   3.581   1.264  0.0897  0.6361 -0.4744
  341MOL    O6048340   5.388   3.483   1.223  0.0158 -0.6459 -0.0087
  341MOL    H6148341   5.461   3.647   1.383  0.5205  1.9355 -1.5405
  341MOL    H6248342   5.320   3.597   1.468  2.2512 -1.1125 -0.3491
  341MOL    H6348343   5.290   3.655   1.184  0.5921  1.7558  0.4880
  341MOL    H6448344   5.476   3.516   1.234 -0.0285 -0.2074 -0.9415
  341MOL    C6548345   5.165   3.512   1.294 -0.5347 -0.1242 -0.0644
  341MOL    C6648346   5.061   3.504   1.183  0.3334 -0.9572 -0.0272
  341MOL    O6748347   4.975   3.403   1.210 -0.1091 -0.6157 -0.3933
  341MOL    H6848348   5.193   3.413   1.332  3.0673  0.4916 -0.9298
  341MOL    H6948349   5.116   3.561   1.378  0.8948  0.3959  0.4839
  341MOL    H7048350   5.109   3.496   1.085  0.0821  0.6747 -0.2881
  341MOL    H7148351   5.012   3.343   1.274  0.1549 -0.7997 -0.7149
  341MOL    C7248352   4.993   3.646   1.171 -0.0877  0.1356 -0.3161
  341MOL    C7348353   4.902   3.660   1.044 -0.5156  0.7121  0.5113
  341MOL    O7448354   4.771   3.691   1.085 -0.0711  0.0650 -0.4416
  341MOL    H7548355   4.932   3.641   1.261  0.5493 -0.5600  0.0883
  341MOL    H7648356   5.059   3.730   1.192  0.2874 -0.6197  1.6413
  341MOL    H7748357   4.912   3.565   0.991  1.2480  0.1266  1.8381
  341MOL    H7848358   4.746   3.630   1.152  0.9388  0.5691  0.4097
  341MOL    C7948359   4.937   3.770   0.948  0.0193  0.8471  0.5124
  341MOL    C8048360   5.070   3.752   0.862 -0.5455  0.5229  0.1731
  341MOL    O8148361   5.046   3.822   0.746  0.1887  0.7355  0.1816
  341MOL    H8248362   4.857   3.764   0.875  0.3875  2.1263 -0.0045
  341MOL    H8348363   4.926   3.869   0.992  2.8106  1.6556 -0.5008
  341MOL    H8448364   5.090   3.649   0.832  3.6320  1.2641  0.1086
  341MOL    H8548365   5.082   3.762   0.683  0.0267 -1.1683  1.8253
  341MOL    C8648366   5.198   3.807   0.925  0.2036 -0.2417  0.3742
  341MOL    C8748367   5.329   3.782   0.842  0.1759 -0.2413 -0.1841
  341MOL    O8848368   5.433   3.856   0.908 -1.1822 -0.4456 -0.1305
  341MOL    H8948369   5.177   3.912   0.944  0.8153  0.1909 -1.3355
  341MOL    H9048370   5.216   3.769   1.025 -0.1659 -1.3986  0.0084
  341MOL    H9148371   5.315   3.829   0.745  0.7652 -0.3230 -0.3143
  341MOL    H9248372   5.403   3.928   0.961 -1.4581 -1.1962  0.7399
  341MOL    C9348373   5.373   3.631   0.834  0.0026 -0.2809 -0.3851
  341MOL    C9448374   5.505   3.605   0.756  0.0800  0.7120 -0.1327
  341MOL    O9548375   5.611   3.679   0.819 -0.3254  0.3087  0.9700
  341MOL    H9648376   5.381   3.591   0.935 -0.3197  1.2765  0.2720
  341MOL    H9748377   5.294   3.570   0.790  1.5547 -3.1830  0.6851
  341MOL    H9848378   5.493   3.651   0.658 -0.3419 -2.0005 -1.4030
  341MOL    H9948379   5.570   3.762   0.841 -2.1669 -0.4492  0.5008
  341MOL   C10048380   5.553   3.456   0.744 -0.4825 -0.0940  0.1947
  341MOL   C10148381   5.662   3.436   0.635  0.0415  0.1702  0.3397
  341MOL   O10248382   5.776   3.490   0.688 -0.1373  0.1970  0.2020
  341MOL   H10348383   5.591   3.416   0.838  0.8755  0.8705  0.0655
  341MOL   H10448384   5.463   3.396   0.728 -0.8066 -0.1172  2.0394
  341MOL   H10548385   5.632   3.493   0.547 -0.0363 -0.8688 -0.3226
  341MOL   H10648386   5.762   3.574   0.729  4.0247  1.8835 -1.5568
  341MOL   C10748387   5.684   3.288   0.597  0.7061  0.5285 -0.1263
  341MOL   C10848388   5.811   3.251   0.525  0.2567 -0.7757  0.3467
  341MOL   O10948389   5.797   3.120   0.461 -0.1836 -0.0979  0.4309
  341MOL   H11048390   5.669   3.222   0.683 -0.1593  2.1219  0.9713
  341MOL   H11148391   5.600   3.279   0.528 -0.3482 -1.2661  1.3549
  341MOL   H11248392   5.886   3.232   0.602 -1.6627  0.5570  2.6007
  341MOL   H11348393   5.760   3.128   0.374  0.0107 -2.0819  0.1293
  341MOL   C11448394   5.865   3.358   0.421 -0.1530 -0.6489  0.4443
  341MOL   C11548395   6.011   3.340   0.376  0.3121  0.3617  0.0289
  341MOL   O11648396   6.043   3.212   0.333 -0.1157  0.7333  0.5774
  341MOL   H11748397   5.796   3.340   0.339  0.0791 -1.5772  0.4458
  341MOL   H11848398   5.857   3.454   0.472  1.4356  0.0613 -0.6364
  341MOL   H11948399   6.084   3.369   0.452  0.2154  1.7097 -0.3621
  341MOL   H12048400   6.022   3.156   0.406  1.6347  1.2470  1.5037
  341MOL   C12148401   6.056   3.432   0.246  0.2594 -0.3961 -0.9025
  341MOL   C12248402   5.948   3.451   0.136  0.0889 -0.0308  0.4862
  341MOL   O12348403   5.855   3.552   0.174 -0.0569  0.2226 -0.0369
  341MOL   H12448404   6.075   3.534   0.277 -4.4561  0.7921 -1.4307
  341MOL   H12548405   6.147   3.390   0.204 -0.5070 -0.6736 -2.2924
  341MOL   H12648406   5.885   3.361   0.134  1.3631 -0.9241 -0.8797
  341MOL   H12748407   5.898   3.635   0.185 -2.0379  0.9634  2.6885
  341MOL   C12848408   6.001   3.482   7.512  0.2351 -0.7556  0.2128
  341MOL   C12948409   6.028   3.365   7.419  0.5150  0.2084  0.0735
  341MOL   O13048410   6.065   3.413   7.293  0.2885 -0.2011  0.3036
  341MOL   H13148411   5.929   3.544   7.458  0.7681 -0.1104  0.2408
  341MOL   H13248412   6.093   3.540   0.001  0.1705 -0.0498 -3.3960
  341MOL   H13348413   5.930   3.326   7.393  1.0025  0.6729 -2.6454
  341MOL   H13448414   6.064   3.344   7.229  0.3093 -0.6884  0.8244
  341MOL   C13548415   6.120   3.253   7.475  0.6146 -0.0734 -0.3403
  341MOL   C13648416   6.159   3.138   7.374  0.3228 -0.1634  0.5290
  341MOL   O13748417   6.234   3.037   7.428 -0.4319  0.0320  0.2496
  341MOL   H13848418   6.217   3.295   7.504  1.7762 -2.0115 -1.2696
  341MOL   H13948419   6.093   3.220   0.056 -2.1442  0.6263 -0.8246
  341MOL   H14048420   6.226   3.185   7.301 -1.1649  0.5151 -0.4104
  341MOL   H14148421   6.198   3.005   7.510  1.7775  0.8461  1.5775
  341MOL   H14248422   6.075   3.094   7.322 -1.6922  1.2201  2.5487
  342MOL     C148423   7.412   6.455   5.434 -0.6562 -0.0258 -0.1601
  342MOL     C248424   7.316   6.346   5.473 -0.6011 -0.1866 -0.0506
  342MOL     O348425   7.382   6.219   5.467  0.8848  0.2867 -0.0310
  342MOL     H448426   7.366   6.545   5.394  1.6883  0.3408 -2.0779
  342MOL     H548427   7.484   6.422   5.360 -2.2040 -1.0664 -1.2445
  342MOL     H648428   7.235   6.338   5.400 -1.5456  1.8818  0.7393
  342MOL     H748429   7.341   6.176   5.393  0.0441 -0.0743  0.6279
  342MOL     H848430   7.467   6.480   5.525 -1.1920 -2.1283  0.7879
  342MOL     C948431   7.257   6.355   5.616 -0.1963 -0.6527  0.3030
  342MOL    C1048432   7.173   6.235   5.668  0.2492  0.5967  0.1753
  342MOL    O1148433   7.133   6.269   5.795  0.2747  0.0169 -0.1312
  342MOL    H1248434   7.339   6.364   5.688  0.1435 -1.2511 -0.0006
  342MOL    H1348435   7.202   6.449   5.613  1.6231  0.4545  0.4427
  342MOL    H1448436   7.234   6.145   5.677  0.6592  0.9172  0.6635
  342MOL    H1548437   7.215   6.289   5.837 -0.2640 -1.2213  1.5895
  342MOL    C1648438   7.039   6.229   5.587  0.6874 -0.3146 -0.1633
  342MOL    C1748439   6.944   6.113   5.626  0.0468  0.7818 -0.6011
  342MOL    O1848440   6.911   6.117   5.761 -0.1517 -0.1568  0.2817
  342MOL    H1948441   6.983   6.322   5.588  0.5987 -0.3712  0.1686
  342MOL    H2048442   7.053   6.209   5.481  0.4185 -0.9737 -0.0798
  342MOL    H2148443   6.995   6.021   5.599  0.6863  1.0735 -0.4075
  342MOL    H2248444   6.986   6.166   5.790 -0.9959  2.1661 -1.3604
  342MOL    C2348445   6.805   6.117   5.557  0.4150 -0.0702  0.2475
  342MOL    C2448446   6.809   6.126   5.401 -0.2072  0.1945 -0.1374
  342MOL    O2548447   6.895   6.034   5.337  0.1682  0.1463 -0.6761
  342MOL    H2648448   6.749   6.031   5.593 -0.8741 -0.1195 -1.7754
  342MOL    H2748449   6.749   6.196   5.608  1.3549 -0.1251  1.4008
  342MOL    H2848450   6.846   6.223   5.371 -1.1960  0.5216 -0.2953
  342MOL    H2948451   6.924   6.082   5.261 -3.7445  1.1714 -1.6632
  342MOL    C3048452   6.665   6.105   5.334 -0.4118  0.8737 -0.7366
  342MOL    C3148453   6.559   6.198   5.393 -0.3979  0.4873 -0.1795
  342MOL    O3248454   6.611   6.329   5.378 -0.4012  0.0981  0.3344
  342MOL    H3348455   6.670   6.120   5.227  1.6916  2.1498 -0.4887
  342MOL    H3448456   6.630   6.005   5.357 -0.8624  1.1065 -0.4102
  342MOL    H3548457   6.552   6.170   5.499 -0.1352 -0.1228 -0.3204
  342MOL    H3648458   6.563   6.382   5.441  0.7998  1.5269  0.0628
  342MOL    C3748459   6.421   6.184   5.323 -0.1848 -0.0539 -0.6198
  342MOL    C3848460   6.300   6.222   5.412  0.4174 -0.3017  0.2335
  342MOL    O3948461   6.319   6.170   5.541  0.0764 -0.0473 -0.0549
  342MOL    H4048462   6.413   6.230   5.225 -1.2791 -0.6219 -0.8030
  342MOL    H4148463   6.403   6.081   5.293 -1.4501  0.2186 -0.8141
  342MOL    H4248464   6.203   6.190   5.372 -0.8222  0.5335  2.4946
  342MOL    H4348465   6.239   6.159   5.589  1.0641 -1.8047  1.2515
  342MOL    C4448466   6.284   6.373   5.431 -0.3325 -0.1895 -0.4506
  342MOL    C4548467   6.228   6.452   5.305 -0.5430  0.0917 -0.4238
  342MOL    O4648468   6.097   6.397   5.279 -0.6725 -0.1318 -0.6087
  342MOL    H4748469   6.197   6.388   5.495 -1.5067 -1.8856 -1.5891
  342MOL    H4848470   6.378   6.416   5.466 -0.2737  1.1424 -2.1756
  342MOL    H4948471   6.290   6.426   5.219 -0.7284 -1.7447 -0.0379
  342MOL    H5048472   6.083   6.410   5.186 -1.6830  2.6847 -0.0988
  342MOL    C5148473   6.226   6.601   5.336  0.5010  0.2645 -0.2934
  342MOL    C5248474   6.177   6.704   5.229  0.4277  0.0215  0.2613
  342MOL    O5348475   6.189   6.844   5.275 -0.0675 -0.4720 -1.1910
  342MOL    H5448476   6.166   6.618   5.426  0.8710 -1.5287  0.3105
  342MOL    H5548477   6.326   6.634   5.363  1.4239 -1.4816 -1.4902
  342MOL    H5648478   6.071   6.709   5.205  0.7669  2.4609 -0.8473
  342MOL    H5748479   6.123   6.889   5.225  0.6499  2.5739  0.5012
  342MOL    C5848480   6.248   6.690   5.097  0.1291 -0.0680 -0.2518
  342MOL    C5948481   6.183   6.594   4.996  0.1575 -0.4189  0.0331
  342MOL    O6048482   6.071   6.662   4.946  0.1261 -0.2053  0.2590
  342MOL    H6148483   6.249   6.788   5.049 -1.6567 -0.0416 -0.2455
  342MOL    H6248484   6.353   6.668   5.118 -0.4118 -1.3109  1.2372
  342MOL    H6348485   6.148   6.499   5.037 -0.0547  0.1784  1.2799
  342MOL    H6448486   6.000   6.625   4.996 -0.6258 -1.3214 -1.5790
  342MOL    C6548487   6.276   6.562   4.875 -0.5900 -0.0495 -0.1177
  342MOL    C6648488   6.386   6.461   4.908  0.5890 -0.4231 -0.5178
  342MOL    O6748489   6.332   6.332   4.936  0.3137  0.3804  0.2164
  342MOL    H6848490   6.216   6.530   4.790  1.2332 -0.0238 -1.4196
  342MOL    H6948491   6.325   6.654   4.845 -0.3784  0.1142  0.7081
  342MOL    H7048492   6.437   6.490   5.000 -1.1297  1.3894 -0.0914
  342MOL    H7148493   6.280   6.296   4.865 -0.7096  1.1081  0.5883
  342MOL    C7248494   6.485   6.442   4.794 -0.1068  0.3879 -0.5381
  342MOL    C7348495   6.586   6.327   4.800 -0.2240 -0.0371 -0.1428
  342MOL    O7448496   6.676   6.347   4.688 -0.5683  0.3008  0.6132
  342MOL    H7548497   6.429   6.443   4.700  0.1623 -1.8963 -0.7539
  342MOL    H7648498   6.549   6.530   4.793 -0.8789  0.9890  1.0841
  342MOL    H7748499   6.530   6.234   4.787 -2.4365  1.2039  0.1673
  342MOL    H7848500   6.756   6.389   4.715 -1.0430  3.1817 -2.1025
  342MOL    C7948501   6.677   6.314   4.932 -0.3306  0.2763  0.1901
  342MOL    C8048502   6.795   6.223   4.934  0.2272 -0.0834  0.0385
  342MOL    O8148503   6.849   6.233   5.067  0.2233  0.3566  0.5100
  342MOL    H8248504   6.696   6.415   4.970 -2.1721  1.0714 -0.9493
  342MOL    H8348505   6.610   6.272   5.007 -2.2257  1.4054 -0.8385
  342MOL    H8448506   6.880   6.252   4.873  0.1139  1.3145  0.5289
  342MOL    H8548507   6.855   6.322   5.100  2.3398  1.0743 -1.6725
  342MOL    C8648508   6.759   6.079   4.905  0.3256  0.2592 -1.1587
  342MOL    C8748509   6.815   6.005   4.784  0.0958 -0.6566 -0.4553
  342MOL    O8848510   6.765   5.870   4.802 -0.0431  0.2656 -0.0554
  342MOL    H8948511   6.784   6.024   4.996  0.7482 -1.2046 -2.1335
  342MOL    H9048512   6.652   6.061   4.912  0.8585 -3.0685 -0.4982
  342MOL    H9148513   6.923   5.999   4.798  0.2358  2.3671  0.0581
  342MOL    H9248514   6.674   5.874   4.775 -0.3726 -2.2440  0.5544
  342MOL    C9348515   6.786   6.070   4.649 -0.5525  0.8443  0.1179
  342MOL    C9448516   6.877   6.023   4.533 -0.5690 -0.1713  0.7930
  342MOL    O9548517   6.835   6.070   4.405  0.0040 -0.4406  0.8313
  342MOL    H9648518   6.680   6.089   4.628 -0.7293  1.9384  1.8891
  342MOL    H9748519   6.818   6.173   4.667  0.4742  0.4640  0.4712
  342MOL    H9848520   6.872   5.914   4.534  0.2750 -0.2529 -1.2245
  342MOL    H9948521   6.914   6.049   4.356 -0.0040  0.7323  0.3165
  342MOL   C10048522   7.025   6.076   4.540 -0.3362 -1.1096  0.0637
  342MOL   C10148523   7.131   6.016   4.449 -0.5500 -0.6197 -0.6860
  342MOL   O10248524   7.076   6.028   4.320  0.2636  0.4380 -0.2165
  342MOL   H10348525   7.029   6.185   4.532 -1.3661 -1.2007 -2.0728
  342MOL   H10448526   7.049   6.065   4.646  1.1527 -0.1279 -0.1492
  342MOL   H10548527   7.144   5.909   4.463  0.0473 -0.2065  2.0826
  342MOL   H10648528   7.137   5.988   4.259 -0.3267  0.6632 -0.9651
  342MOL   C10748529   7.273   6.079   4.450 -0.4121 -0.3711 -1.1111
  342MOL   C10848530   7.347   6.068   4.586 -0.5727  0.1698  0.0743
  342MOL   O10948531   7.489   6.042   4.565  0.9183  0.4387 -0.2727
  342MOL   H11048532   7.335   6.037   4.371  1.9372  0.5158  0.2075
  342MOL   H11148533   7.271   6.186   4.431  3.3268  0.5351  2.8537
  342MOL   H11248534   7.317   5.980   4.644 -2.1915  1.3424  1.0527
  342MOL   H11348535   7.485   5.957   4.525 -0.8436  0.9870 -1.3236
  342MOL   C11448536   7.322   6.183   4.676  0.0238  0.4986  0.2762
  342MOL   C11548537   7.363   6.154   4.824  0.8418  0.4017  0.5666
  342MOL   O11648538   7.504   6.126   4.818  0.2044  0.5353  0.0493
  342MOL   H11748539   7.368   6.274   4.638 -1.5027  0.5136 -1.5543
  342MOL   H11848540   7.219   6.217   4.673 -0.6915 -1.6955 -1.3187
  342MOL   H11948541   7.318   6.062   4.862 -0.8828  0.9140 -0.1527
  342MOL   H12048542   7.517   6.081   4.736  0.9908  0.0822  0.4117
  342MOL   C12148543   7.331   6.277   4.914  0.3475 -0.1563 -0.0581
  342MOL   C12248544   7.182   6.310   4.943  0.6508 -0.3845  0.0171
  342MOL   O12348545   7.129   6.188   4.972 -0.0765 -0.3360 -0.8495
  342MOL   H12448546   7.380   6.260   5.010  2.0205 -0.0535 -0.8739
  342MOL   H12548547   7.392   6.355   4.869 -0.2468  0.6568  0.5265
  342MOL   H12648548   7.131   6.354   4.858  0.7507  1.0917  0.7058
  342MOL   H12748549   7.037   6.198   4.987  0.3085  0.9427  0.7535
  342MOL   C12848550   7.173   6.406   5.069 -0.0929 -0.5395 -0.3999
  342MOL   C12948551   7.172   6.559   5.046  0.3340 -0.5504  0.1620
  342MOL   O13048552   7.301   6.595   4.988 -0.2992 -0.0217 -0.2446
  342MOL   H13148553   7.080   6.374   5.118 -0.3243  1.3512  0.4219
  342MOL   H13248554   7.244   6.376   5.146 -1.3410 -0.3745  0.8486
  342MOL   H13348555   7.165   6.604   5.145 -0.0721 -0.6942  0.2002
  342MOL   H13448556   7.286   6.682   4.955  1.3092  0.6192  0.6643
  342MOL   C13548557   7.049   6.601   4.955 -0.1593  0.3138 -0.4844
  342MOL   C13648558   7.005   6.748   4.954  0.3683  0.1799  0.0136
  342MOL   O13748559   6.870   6.760   4.897  0.4037 -0.6008 -0.3282
  342MOL   H13848560   7.079   6.575   4.854  1.4841  1.6531 -0.3777
  342MOL   H13948561   6.962   6.542   4.983  0.4243 -0.6109 -0.6086
  342MOL   H14048562   7.081   6.813   4.911  0.8862  0.3035  1.0892
  342MOL   H14148563   6.824   6.839   4.920  1.7600 -0.4639  2.1110
  342MOL   H14248564   6.993   6.769   5.060  0.8091 -0.5079  0.2065
  343MOL     C148565   4.850   3.582   5.052 -0.4428 -0.2721 -0.1269
  343MOL     C248566   4.910   3.525   5.177  0.0736 -0.3105  0.0674
  343MOL     O348567   5.049   3.487   5.161 -0.0263  0.2697 -0.9593
  343MOL     H448568   4.891   3.683   5.044  1.5848 -1.0728 -0.1450
  343MOL     H548569   4.742   3.594   5.044 -0.5500 -0.8098  0.4895
  343MOL     H648570   4.862   3.436   5.216  0.2483  0.4378  2.0303
  343MOL     H748571   5.091   3.450   5.237 -0.8497  2.1075  0.4580
  343MOL     H848572   4.871   3.513   4.970  0.9639  0.5110 -0.4381
  343MOL     C948573   4.910   3.616   5.302 -0.1961  0.0399 -0.0792
  343MOL    C1048574   4.778   3.632   5.381 -0.3808 -0.2962  0.0443
  343MOL    O1148575   4.797   3.739   5.472  0.2761  0.6015 -0.9012
  343MOL    H1248576   4.983   3.575   5.372 -0.1312 -0.0644 -0.2092
  343MOL    H1348577   4.954   3.713   5.276 -2.5635  0.7575 -1.5102
  343MOL    H1448578   4.745   3.538   5.424 -1.3597 -0.1105 -0.2738
  343MOL    H1548579   4.824   3.815   5.422  1.1848  0.8246 -0.0924
  343MOL    C1648580   4.652   3.671   5.300 -0.4360  0.1009 -0.1805
  343MOL    C1748581   4.523   3.701   5.378 -1.1639 -0.4318  0.1339
  343MOL    O1848582   4.445   3.791   5.303 -0.2012  0.1982 -0.3890
  343MOL    H1948583   4.678   3.764   5.250  0.1383 -0.1348 -0.3237
  343MOL    H2048584   4.630   3.593   5.227  1.0532 -0.1118 -0.4143
  343MOL    H2148585   4.548   3.749   5.472 -1.6304 -0.3900  0.2374
  343MOL    H2248586   4.412   3.745   5.227  1.9442 -1.0256 -0.6147
  343MOL    C2348587   4.434   3.585   5.412 -0.2170  0.6028  0.4023
  343MOL    C2448588   4.349   3.590   5.539  0.5108  0.2334 -0.4392
  343MOL    O2548589   4.268   3.473   5.533  0.3491  0.4857  0.0896
  343MOL    H2648590   4.377   3.555   5.324 -0.0209 -1.2857  0.8844
  343MOL    H2748591   4.496   3.498   5.432 -0.6355 -0.3326 -2.1802
  343MOL    H2848592   4.288   3.680   5.542 -1.6147 -1.1815  0.0070
  343MOL    H2948593   4.321   3.398   5.555 -2.0441 -1.1888  0.4310
  343MOL    C3048594   4.436   3.584   5.668 -0.3879 -0.9352 -0.6135
  343MOL    C3148595   4.460   3.721   5.738 -0.3389  0.8815  0.6313
  343MOL    O3248596   4.338   3.757   5.799 -1.0698 -0.3395 -0.1591
  343MOL    H3348597   4.392   3.510   5.735  0.3992 -0.9535 -0.1114
  343MOL    H3448598   4.536   3.549   5.642 -0.2348  0.5285 -2.0510
  343MOL    H3548599   4.486   3.801   5.669 -1.4728  1.0799  0.4237
  343MOL    H3648600   4.279   3.807   5.745 -2.1825  0.3068  1.6313
  343MOL    C3748601   4.565   3.724   5.847 -0.3149 -0.3529  0.2445
  343MOL    C3848602   4.701   3.718   5.790 -1.1249 -0.0479 -0.8484
  343MOL    O3948603   4.738   3.841   5.729  0.0833 -0.0609  0.2186
  343MOL    H4048604   4.561   3.813   5.910 -1.6227  0.9930 -1.6685
  343MOL    H4148605   4.543   3.632   5.900  1.8561 -0.6039  0.7302
  343MOL    H4248606   4.720   3.642   5.715 -1.3188 -0.5324 -0.4121
  343MOL    H4348607   4.751   3.819   5.637 -0.1162 -0.6359  0.3232
  343MOL    C4448608   4.801   3.698   5.903 -0.1689 -0.1281 -0.4491
  343MOL    C4548609   4.942   3.632   5.866 -0.1339  0.0551 -0.0379
  343MOL    O4648610   5.037   3.685   5.964  0.1017 -0.0757  0.2577
  343MOL    H4748611   4.817   3.790   5.960  1.4776 -0.4014 -0.4607
  343MOL    H4848612   4.753   3.636   5.978 -0.6375  1.1572  0.3393
  343MOL    H4948613   4.971   3.661   5.765  2.8206  1.2094  1.0980
  343MOL    H5048614   5.072   3.771   5.947  0.4331 -0.4385 -0.9270
  343MOL    C5148615   4.943   3.477   5.872 -0.8630  0.1508  0.2558
  343MOL    C5248616   5.081   3.401   5.857  0.5710  0.3879 -0.3272
  343MOL    O5348617   5.053   3.268   5.887 -0.3272  0.2367 -0.5077
  343MOL    H5448618   4.907   3.446   5.970 -0.3316 -2.8461 -0.4495
  343MOL    H5548619   4.864   3.434   5.810 -1.5785  0.8024  0.6926
  343MOL    H5648620   5.149   3.410   5.942  0.3076 -0.9857  0.0416
  343MOL    H5748621   5.060   3.255   5.981  0.6016  2.8434 -0.1762
  343MOL    C5848622   5.142   3.406   5.717 -0.2533 -0.5599  0.6499
  343MOL    C5948623   5.251   3.303   5.693 -0.1045 -0.5778  0.3841
  343MOL    O6048624   5.305   3.314   5.565 -0.4958 -0.1611 -0.0794
  343MOL    H6148625   5.055   3.395   5.653  0.3268  1.4255 -0.5117
  343MOL    H6248626   5.170   3.510   5.700  0.2421 -0.8376 -0.2708
  343MOL    H6348627   5.194   3.211   5.703  0.0397 -0.5113  1.9172
  343MOL    H6448628   5.334   3.228   5.538 -0.2994  0.2258 -1.0902
  343MOL    C6548629   5.360   3.276   5.795 -0.2025  0.3496  0.6143
  343MOL    C6648630   5.439   3.394   5.849 -0.3769 -0.1287  0.3776
  343MOL    O6748631   5.526   3.339   5.942  0.4925  0.2221 -0.2948
  343MOL    H6848632   5.312   3.227   5.880 -1.1710  1.6906  0.8485
  343MOL    H6948633   5.433   3.204   5.758 -0.7005  0.6076 -0.8685
  343MOL    H7048634   5.368   3.463   5.895  1.0488  0.4138  1.8352
  343MOL    H7148635   5.483   3.347   6.026 -0.3368 -1.2392 -0.5494
  343MOL    C7248636   5.524   3.464   5.745  0.4902 -0.7241 -0.2160
  343MOL    C7348637   5.622   3.571   5.792  0.1179  0.1083 -0.0822
  343MOL    O7448638   5.677   3.625   5.672 -0.9170 -0.5487  0.8710
  343MOL    H7548639   5.575   3.387   5.688  2.8625  0.0193  0.8332
  343MOL    H7648640   5.457   3.507   5.671  0.8527  0.2695  0.0285
  343MOL    H7748641   5.707   3.515   5.833  1.4779  0.9709 -1.6515
  343MOL    H7848642   5.706   3.708   5.707 -0.0342 -0.6931  0.4916
  343MOL    C7948643   5.560   3.687   5.872  0.1202 -0.3131  0.1179
  343MOL    C8048644   5.666   3.798   5.922  0.3808 -0.4883  0.1700
  343MOL    O8148645   5.709   3.875   5.808 -0.0014  0.0222 -0.5346
  343MOL    H8248646   5.480   3.739   5.821 -0.0065 -0.4430  0.1847
  343MOL    H8348647   5.509   3.644   5.958  2.6912 -1.0137  1.3677
  343MOL    H8448648   5.738   3.743   5.983  0.2017  1.6303  2.3568
  343MOL    H8548649   5.766   3.945   5.835  1.2809 -1.1729 -0.0983
  343MOL    C8648650   5.595   3.891   6.027 -0.5169  0.4895  0.2411
  343MOL    C8748651   5.586   3.833   6.166  0.3188 -0.8286 -0.0106
  343MOL    O8848652   5.626   3.929   6.260 -0.6347 -0.1386  0.3338
  343MOL    H8948653   5.667   3.973   6.033  1.4306 -1.0938 -0.9521
  343MOL    H9048654   5.498   3.929   5.995 -0.6394 -0.9718 -1.1556
  343MOL    H9148655   5.638   3.738   6.180  2.4941  0.4635  0.9818
  343MOL    H9248656   5.627   4.010   6.210 -0.7706  1.3341  2.6618
  343MOL    C9348657   5.439   3.796   6.204  0.4690 -0.7531 -0.1237
  343MOL    C9448658   5.427   3.702   6.332  0.4563  0.6620 -0.5839
  343MOL    O9548659   5.309   3.733   6.413 -0.5664 -0.2765  0.8275
  343MOL    H9648660   5.382   3.888   6.219  1.9079 -0.2585  2.6127
  343MOL    H9748661   5.393   3.748   6.118 -1.5914  2.8084 -1.1494
  343MOL    H9848662   5.505   3.732   6.402  1.2374 -1.8214 -0.3330
  343MOL    H9948663   5.232   3.708   6.364 -0.7266  1.1081  0.3605
  343MOL   C10048664   5.432   3.551   6.299 -0.4043 -0.2362  0.1480
  343MOL   C10148665   5.311   3.498   6.220  0.0810 -0.4342 -0.3660
  343MOL   O10248666   5.360   3.391   6.136 -0.2477  0.2933  0.2745
  343MOL   H10348667   5.524   3.520   6.249 -0.6383 -1.1639  0.2859
  343MOL   H10448668   5.433   3.502   6.396 -0.9461 -1.5597 -0.5059
  343MOL   H10548669   5.264   3.582   6.169  3.3589  0.8792 -1.3542
  343MOL   H10648670   5.390   3.321   6.191 -0.7376 -0.9435 -0.9748
  343MOL   C10748671   5.207   3.426   6.305 -0.0972  0.3104  0.3743
  343MOL   C10848672   5.087   3.367   6.224  0.3835 -0.0303 -0.7412
  343MOL   O10948673   5.132   3.253   6.154  0.0675  0.5241  0.3974
  343MOL   H11048674   5.249   3.342   6.359  0.1612  1.0645  1.3502
  343MOL   H11148675   5.163   3.492   6.379 -2.4485 -2.5498  1.6390
  343MOL   H11248676   5.054   3.440   6.150  1.8898  1.0340 -0.3950
  343MOL   H11348677   5.221   3.271   6.129 -0.3086  0.0404 -1.3843
  343MOL   C11448678   4.974   3.313   6.313  0.0507 -0.3914 -0.5627
  343MOL   C11548679   4.842   3.288   6.245  0.1718  0.1865  0.4208
  343MOL   O11648680   4.773   3.183   6.321  0.5527  0.1034  0.1716
  343MOL   H11748681   5.006   3.226   6.369  0.1140  1.3174  2.1686
  343MOL   H11848682   4.955   3.393   6.386 -2.2337 -0.5997 -0.8856
  343MOL   H11948683   4.856   3.248   6.145 -0.2847 -2.2526  1.3042
  343MOL   H12048684   4.733   3.220   6.399 -0.3753 -2.6697  1.0904
  343MOL   C12148685   4.740   3.405   6.223 -0.1671  0.4360  0.1396
  343MOL   C12248686   4.605   3.382   6.158  0.2054 -0.5733  0.7487
  343MOL   O12348687   4.548   3.506   6.157  0.1095 -0.4738 -0.0177
  343MOL   H12448688   4.722   3.448   6.321 -1.8588  1.1422 -0.4608
  343MOL   H12548689   4.795   3.476   6.161  1.3008 -1.3670 -0.6851
  343MOL   H12648690   4.540   3.322   6.222 -0.7901  0.8634  1.1007
  343MOL   H12748691   4.462   3.495   6.120  0.1399  0.0774 -0.2587
  343MOL   C12848692   4.620   3.324   6.017 -0.3510 -0.0100 -0.1648
  343MOL   C12948693   4.543   3.195   5.992 -0.4263  0.3198  0.5947
  343MOL   O13048694   4.572   3.164   5.861 -0.0439 -0.0649 -0.1540
  343MOL   H13148695   4.583   3.396   5.944  0.9475  0.9006  0.0556
  343MOL   H13248696   4.724   3.309   5.987 -0.9132 -0.7509 -1.8194
  343MOL   H13348697   4.436   3.213   5.991 -0.3596  0.8117  1.6824
  343MOL   H13448698   4.666   3.153   5.860  0.1967  1.8718 -0.7102
  343MOL   C13548699   4.558   3.083   6.103 -0.0039 -0.6942  0.2593
  343MOL   C13648700   4.464   2.968   6.077 -0.0690 -0.6396 -0.0356
  343MOL   O13748701   4.527   2.851   6.134  0.6133  0.3516 -0.2603
  343MOL   H13848702   4.666   3.065   6.100  0.3957  1.2628  1.5268
  343MOL   H13948703   4.537   3.131   6.199  0.5161  1.9354 -0.8958
  343MOL   H14048704   4.438   2.961   5.971 -0.3252  1.8366 -0.1473
  343MOL   H14148705   4.601   2.885   6.182  1.1134 -0.1285 -0.6710
  343MOL   H14248706   4.365   2.984   6.118  0.3187  1.5270  0.1168
  344MOL     C148707   7.155   5.720   0.661 -0.2325  0.1661 -0.3198
  344MOL     C248708   7.015   5.735   0.606 -0.6964  0.6473 -0.8642
  344MOL     O348709   6.970   5.866   0.641  0.3496  0.4572 -0.1011
  344MOL     H448710   7.228   5.784   0.610 -1.2268  3.2982  2.0406
  344MOL     H548711   7.188   5.618   0.641  0.4086  0.2535  0.2881
  344MOL     H648712   6.948   5.670   0.661  1.7350 -1.7249 -0.5923
  344MOL     H748713   6.876   5.869   0.628  0.3754 -0.4625 -0.6070
  344MOL     H848714   7.164   5.737   0.768  1.5942  0.4201 -0.4905
  344MOL     C948715   7.013   5.727   0.452  0.7910  0.2617  0.0372
  344MOL    C1048716   7.039   5.585   0.396  0.5545 -0.2754 -0.1299
  344MOL    O1148717   6.938   5.490   0.435 -0.0895 -0.3282 -0.2774
  344MOL    H1248718   6.911   5.744   0.418  0.7726  0.0386 -0.0167
  344MOL    H1348719   7.077   5.797   0.398  0.8809  1.0122  1.0895
  344MOL    H1448720   7.138   5.556   0.429 -0.6809 -3.3102  1.1504
  344MOL    H1548721   6.940   5.486   0.529  0.3607  3.5184 -0.0603
  344MOL    C1648722   7.037   5.580   0.242 -0.2874  0.1752  0.2487
  344MOL    C1748723   7.152   5.647   0.159  0.5302  0.3174  0.1402
  344MOL    O1848724   7.221   5.554   0.087 -0.0886 -0.1626 -0.4247
  344MOL    H1948725   7.031   5.477   0.205 -3.0021  0.4281 -0.1278
  344MOL    H2048726   6.947   5.627   0.202 -0.0405  2.4048  2.1862
  344MOL    H2148727   7.231   5.686   0.222  1.4033  1.6851 -1.7565
  344MOL    H2248728   7.294   5.597   0.046 -0.5996  1.0719 -0.0752
  344MOL    C2348729   7.104   5.754   0.056  0.1639 -0.4298  0.4876
  344MOL    C2448730   7.046   5.885   0.125  0.5991 -0.0959  0.1947
  344MOL    O2548731   7.153   5.970   0.165 -0.2515 -0.3045  0.0202
  344MOL    H2648732   7.188   5.770   7.508  0.8520  1.8908  1.8350
  344MOL    H2748733   7.034   5.708   7.506  1.8280 -0.1917 -1.4068
  344MOL    H2848734   6.997   5.857   0.218  1.8015  0.6808  1.0787
  344MOL    H2948735   7.182   6.021   0.091 -0.6257  0.4955  0.4117
  344MOL    C3048736   6.952   5.978   0.037  0.5081  0.5893  0.4520
  344MOL    C3148737   6.817   5.908   0.003 -0.2324  0.5372  0.0629
  344MOL    O3248738   6.743   5.893   0.121  0.1283  0.1871  0.1158
  344MOL    H3348739   6.939   6.079   0.075 -0.8920  0.6191 -0.0769
  344MOL    H3448740   7.005   5.993   7.463 -1.3184  2.3804 -0.3289
  344MOL    H3548741   6.840   5.807   7.488  1.2483  0.3346  1.5860
  344MOL    H3648742   6.733   5.980   0.156 -1.5400  0.3855 -0.8064
  344MOL    C3748743   6.724   5.988   7.427  0.4419  0.0341 -0.2358
  344MOL    C3848744   6.771   5.975   7.283  0.5074  0.1669  0.5095
  344MOL    O3948745   6.704   5.865   7.227 -0.1465 -0.3021  0.1586
  344MOL    H4048746   6.624   5.944   7.438  1.1501 -1.5977 -0.0946
  344MOL    H4148747   6.713   6.091   7.459 -2.1820  0.2556 -1.6532
  344MOL    H4248748   6.877   5.962   7.266  0.6948  0.3089  1.5163
  344MOL    H4348749   6.616   5.865   7.262 -0.4029 -1.7298 -0.4565
  344MOL    C4448750   6.727   6.098   7.195 -0.1367 -0.1768 -0.1540
  344MOL    C4548751   6.798   6.230   7.228  0.1002 -0.1355  0.7831
  344MOL    O4648752   6.921   6.226   7.159  0.4377 -0.1114 -0.2674
  344MOL    H4748753   6.717   6.081   7.088 -2.3391  2.4437 -0.4409
  344MOL    H4848754   6.621   6.094   7.219 -0.2823 -0.5332 -0.8355
  344MOL    H4948755   6.813   6.246   7.335  0.1464  1.2361  0.5881
  344MOL    H5048756   6.987   6.287   7.190 -1.2666  0.9631  1.3594
  344MOL    C5148757   6.728   6.352   7.178 -0.1503  0.0729  0.5375
  344MOL    C5248758   6.588   6.380   7.238 -0.2535  0.0169  1.0920
  344MOL    O5348759   6.581   6.356   7.376 -0.0396  0.3002  0.3398
  344MOL    H5448760   6.795   6.436   7.194 -2.6533  1.9790  1.2026
  344MOL    H5548761   6.721   6.342   7.069  5.0469 -0.4329  0.1165
  344MOL    H5648762   6.518   6.317   7.184 -0.2719  1.5469 -0.7112
  344MOL    H5748763   6.637   6.416   7.424  1.4752 -0.6296 -0.2457
  344MOL    C5848764   6.533   6.521   7.209  0.8750 -0.0257 -0.4279
  344MOL    C5948765   6.380   6.533   7.218  0.3271 -0.7101 -0.3433
  344MOL    O6048766   6.329   6.512   7.356  0.0897 -0.3812  0.3034
  344MOL    H6148767   6.588   6.592   7.270  2.9837  0.3730 -2.7212
  344MOL    H6248768   6.559   6.548   7.107 -0.2732  1.7262 -0.2902
  344MOL    H6348769   6.329   6.457   7.159 -2.2080  1.1700 -0.6444
  344MOL    H6448770   6.400   6.472   7.403  2.0933  1.4811 -1.0229
  344MOL    C6548771   6.318   6.665   7.173 -1.0895  0.4066  0.9994
  344MOL    C6648772   6.357   6.725   7.033  0.4212 -0.6254 -0.8645
  344MOL    O6748773   6.307   6.637   6.936  0.0582 -0.8761 -0.0895
  344MOL    H6848774   6.209   6.669   7.176 -1.0900  0.8743  0.4802
  344MOL    H6948775   6.352   6.739   7.246  3.4206 -1.4987  0.9981
  344MOL    H7048776   6.466   6.726   7.028  0.5292  1.7161  1.1761
  344MOL    H7148777   6.363   6.561   6.925  0.9999 -0.3511  1.0200
  344MOL    C7248778   6.309   6.871   7.004  0.2914 -0.1300  0.0731
  344MOL    C7348779   6.340   6.983   7.104 -0.2875 -0.1771 -0.0827
  344MOL    O7448780   6.477   6.990   7.141  0.6017 -0.1128 -0.1842
  344MOL    H7548781   6.357   6.900   6.911  1.6260  0.4868  0.9391
  344MOL    H7648782   6.203   6.857   6.981  1.1249 -3.4122 -2.0833
  344MOL    H7748783   6.294   6.963   7.200 -1.1194  1.9656 -0.0008
  344MOL    H7848784   6.527   7.017   7.065  0.1220  2.2113  0.2829
  344MOL    C7948785   6.299   7.128   7.061 -0.2402  0.1419 -0.7701
  344MOL    C8048786   6.271   7.227   7.179 -0.6201 -0.9202  0.0138
  344MOL    O8148787   6.387   7.243   7.254  0.5408  0.2424 -0.0806
  344MOL    H8248788   6.377   7.162   6.993  0.0059 -0.5518 -0.8317
  344MOL    H8348789   6.205   7.124   7.005 -0.3578  0.2897 -0.5870
  344MOL    H8448790   6.201   7.176   7.245 -2.3081  1.0015 -0.2513
  344MOL    H8548791   6.431   7.160   7.247 -0.1807 -0.1597  0.1735
  344MOL    C8648792   6.227   7.366   7.130 -0.5287 -0.0427 -0.2691
  344MOL    C8748793   6.094   7.420   7.165  0.1338  0.1670 -0.6692
  344MOL    O8848794   6.087   0.041   7.158 -0.3851  0.0633 -0.2734
  344MOL    H8948795   6.304   7.431   7.172 -0.2382 -0.0497 -0.7898
  344MOL    H9048796   6.243   7.373   7.023 -0.0400 -1.2768 -0.2776
  344MOL    H9148797   6.085   7.411   7.273  1.7140 -2.3519 -0.7065
  344MOL    H9248798   6.114   0.068   7.072  1.6819 -1.7089 -0.2596
  344MOL    C9348799   5.977   7.347   7.093 -0.1293  0.6178 -0.1595
  344MOL    C9448800   5.837   7.405   7.141 -0.5360  0.7180  0.1590
  344MOL    O9548801   5.820   0.022   7.109 -0.7250 -0.0124 -0.2663
  344MOL    H9648802   5.966   7.349   6.985 -0.6586  0.2787 -0.1170
  344MOL    H9748803   5.976   7.241   7.118  2.2310  0.2556 -1.5224
  344MOL    H9848804   5.822   7.398   7.248  0.6177 -0.2132  0.2701
  344MOL    H9948805   5.900   0.065   7.136  0.0344 -1.9595  0.6883
  344MOL   C10048806   5.725   7.330   7.082  0.0992  0.5057  0.1354
  344MOL   C10148807   5.593   7.344   7.158 -0.5575  0.1966 -0.1086
  344MOL   O10248808   5.502   7.296   7.065  0.5415  0.2162  0.0767
  344MOL   H10348809   5.709   7.352   6.976  2.1739 -0.1037 -0.3186
  344MOL   H10448810   5.741   7.222   7.089  0.7820  0.5976 -0.0785
  344MOL   H10548811   5.565   7.449   7.162  0.9559  0.5983  0.3192
  344MOL   H10648812   5.497   7.365   7.001  3.1866  0.1655 -0.2476
  344MOL   C10748813   5.569   7.263   7.288 -0.1101  0.5773  0.1470
  344MOL   C10848814   5.425   7.272   7.352 -0.3704  0.0222 -0.1439
  344MOL   O10948815   5.420   7.200   7.474  0.6340 -0.0642  0.5460
  344MOL   H11048816   5.590   7.156   7.279 -0.8451  0.4370  0.0758
  344MOL   H11148817   5.648   7.297   7.354 -0.4326  2.6935 -0.5224
  344MOL   H11248818   5.355   7.225   7.284 -1.7603  3.2913 -1.0964
  344MOL   H11348819   5.488   7.235   0.011  0.9578  0.3679 -0.1010
  344MOL   C11448820   5.391   7.423   7.391 -0.2701 -0.6953  0.0975
  344MOL   C11548821   5.245   7.436   7.448 -0.4408  0.4384  0.6356
  344MOL   O11648822   5.228   0.032   0.004  0.3051  0.1750 -0.1922
  344MOL   H11748823   5.454   7.468   7.467  1.2736 -0.8349 -1.0889
  344MOL   H11848824   5.397   7.485   7.302 -0.5742 -0.2322  0.3995
  344MOL   H11948825   5.228   7.357   0.002  0.1899 -0.3386 -0.0367
  344MOL   H12048826   5.265   0.012   0.089  1.2363 -1.9642 -1.0597
  344MOL   C12148827   5.146   7.423   7.323 -0.2453 -0.0628  0.4197
  344MOL   C12248828   5.007   7.364   7.344 -0.1862 -0.6337  0.2486
  344MOL   O12348829   4.924   7.390   7.226 -0.9446  0.1074 -0.3303
  344MOL   H12448830   5.133   0.002   7.277  1.0240 -0.6514 -1.2666
  344MOL   H12548831   5.190   7.361   7.245 -2.3496 -2.6128  1.1682
  344MOL   H12648832   4.959   7.422   7.423  0.1586 -0.0809  0.0571
  344MOL   H12748833   4.917   7.482   7.202  1.1533 -0.0947 -1.9138
  344MOL   C12848834   5.013   7.213   7.383 -0.3445 -0.8734 -0.2891
  344MOL   C12948835   4.877   7.153   7.414  1.1712 -0.5755 -0.8235
  344MOL   O13048836   4.860   7.030   7.356 -0.0273  0.0214 -0.5905
  344MOL   H13148837   5.056   7.162   7.296 -0.6656  0.4634 -1.2548
  344MOL   H13248838   5.085   7.213   7.465  0.4832  0.5108 -0.9932
  344MOL   H13348839   4.794   7.216   7.383  0.6290 -0.0066  1.6544
  344MOL   H13448840   4.775   7.030   7.315  0.0178 -1.1873 -0.7208
  344MOL   C13548841   4.877   7.151   0.052 -0.3087  0.0109 -1.3114
  344MOL   C13648842   4.894   7.286   0.119 -0.3750  0.3115 -0.2170
  344MOL   O13748843   4.861   7.284   0.257 -0.4651  0.0849 -0.3659
  344MOL   H13848844   4.786   7.106   0.093  0.2762 -0.1296 -0.1624
  344MOL   H13948845   4.961   7.095   0.093 -0.2386  2.0071  1.3782
  344MOL   H14048846   4.826   7.362   0.080 -1.7574 -0.3449  0.8943
  344MOL   H14148847   4.768   7.267   0.266  0.1187 -2.0784  2.3585
  344MOL   H14248848   4.992   7.332   0.102  0.4076 -1.0654  0.5687
  345MOL     C148849   0.025   6.194   5.988  0.2407  0.4470 -0.0169
  345MOL     C248850   7.422   6.250   6.058 -0.0571  1.0420  0.0771
  345MOL     O348851   7.351   6.331   5.964 -0.0475 -0.2917  0.4406
  345MOL     H448852   0.105   6.165   6.056 -1.2555 -1.3942  1.0270
  345MOL     H548853   0.071   6.265   5.920  1.2869 -0.8926 -0.7551
  345MOL     H648854   7.446   6.314   6.143 -0.8543  0.0103  1.0971
  345MOL     H748855   7.383   6.420   5.973  1.1744 -0.3329 -2.8184
  345MOL     H848856   7.518   6.104   5.931 -2.5053  1.3534 -0.2351
  345MOL     C948857   7.331   6.136   6.090  0.1470 -0.1139  0.5837
  345MOL    C1048858   7.197   6.161   6.146  0.4832 -0.4676  0.1443
  345MOL    O1148859   7.134   6.039   6.173  0.0207 -0.0022 -0.1757
  345MOL    H1248860   7.325   6.077   5.999 -2.9690  1.5463 -0.3553
  345MOL    H1348861   7.381   6.083   6.170 -1.0626  0.4668  1.7498
  345MOL    H1448862   7.139   6.204   6.064  0.9654 -2.6678 -1.4173
  345MOL    H1548863   7.189   5.998   6.239 -0.1944  1.3603  0.8741
  345MOL    C1648864   7.203   6.238   6.274  0.6898  0.4239  0.1174
  345MOL    C1748865   7.063   6.290   6.325  0.9008  0.0961 -0.3901
  345MOL    O1848866   7.086   6.360   6.445  0.1419 -0.1938 -0.7585
  345MOL    H1948867   7.263   6.181   6.344  1.9806  0.2420 -1.1249
  345MOL    H2048868   7.259   6.328   6.250 -0.1011  0.6911 -0.7647
  345MOL    H2148869   6.994   6.205   6.331 -0.3876  1.0699 -1.1475
  345MOL    H2248870   7.013   6.418   6.461  1.0813  0.1562  2.7185
  345MOL    C2348871   7.011   6.397   6.227  0.0055  0.0892 -0.2364
  345MOL    C2448872   6.854   6.431   6.245 -0.1219 -0.4861  1.0103
  345MOL    O2548873   6.863   6.543   6.331  0.4260 -0.0750 -0.3806
  345MOL    H2648874   7.073   6.486   6.219 -0.3674  0.3082 -0.7566
  345MOL    H2748875   7.018   6.351   6.128  0.2528  1.1874 -0.7461
  345MOL    H2848876   6.807   6.348   6.297 -0.9134 -0.0306  1.0207
  345MOL    H2948877   6.841   6.505   6.415 -0.5770  1.6333  0.1546
  345MOL    C3048878   6.772   6.479   6.123  0.1990  0.2678 -0.1349
  345MOL    C3148879   6.740   6.362   6.036  0.4492 -0.0677  0.1931
  345MOL    O3248880   6.649   6.281   6.107  0.3248  0.0899 -0.1781
  345MOL    H3348881   6.680   6.524   6.158  0.8581 -0.7167  2.9984
  345MOL    H3448882   6.831   6.558   6.076 -2.9647  1.8586 -1.5553
  345MOL    H3548883   6.822   6.297   6.005 -0.9799 -2.5088  1.3756
  345MOL    H3648884   6.626   6.209   6.049 -1.4552  1.2567 -0.9734
  345MOL    C3748885   6.661   6.408   5.910  0.3494 -0.0186 -0.0286
  345MOL    C3848886   6.741   6.464   5.790 -0.3127 -0.8628  0.8489
  345MOL    O3948887   6.652   6.480   5.680  0.5027  0.3525  0.4740
  345MOL    H4048888   6.604   6.328   5.864  1.4108 -1.0701  0.4489
  345MOL    H4148889   6.582   6.477   5.939  0.2000 -0.3718  0.3970
  345MOL    H4248890   6.804   6.385   5.750 -0.0419 -0.0044 -0.4174
  345MOL    H4348891   6.579   6.535   5.705 -0.9070 -0.5154 -1.5264
  345MOL    C4448892   6.813   6.599   5.821 -0.2652  0.7694  0.1342
  345MOL    C4548893   6.863   6.676   5.700 -0.0241  0.1063 -0.5206
  345MOL    O4648894   6.895   6.807   5.746 -0.3818  0.4108  0.5965
  345MOL    H4748895   6.748   6.661   5.883  0.2154 -0.0860  1.5394
  345MOL    H4848896   6.904   6.579   5.877  0.6545  0.4026 -1.4611
  345MOL    H4948897   6.779   6.687   5.632 -0.3027 -2.3308 -0.6230
  345MOL    H5048898   6.819   6.861   5.737 -0.4647  0.4199  1.3562
  345MOL    C5148899   6.985   6.618   5.627  0.0698  0.0791  0.2320
  345MOL    C5248900   6.986   6.640   5.476 -1.0247  0.1601  0.2534
  345MOL    O5348901   7.125   6.647   5.432 -0.0201  0.5602  0.5889
  345MOL    H5448902   7.071   6.669   5.671  0.5478  2.0761 -2.8883
  345MOL    H5548903   7.009   6.515   5.656 -1.3275 -0.1266  0.6956
  345MOL    H5648904   6.944   6.738   5.458 -1.0024  0.3465  1.1790
  345MOL    H5748905   7.161   6.729   5.462  1.0203  0.7157 -1.0203
  345MOL    C5848906   6.915   6.531   5.399  0.3269 -0.6012  0.2130
  345MOL    C5948907   6.836   6.579   5.273  0.4617  0.0457 -0.0716
  345MOL    O6048908   6.789   6.467   5.196  0.4125 -0.2110  0.3608
  345MOL    H6148909   6.992   6.458   5.375 -0.2865 -0.9874 -0.5901
  345MOL    H6248910   6.844   6.475   5.461  0.8433 -1.8483 -0.3171
  345MOL    H6348911   6.912   6.632   5.216  0.8787  1.5490  1.8170
  345MOL    H6448912   6.737   6.423   5.261 -2.3999 -0.3097 -1.8771
  345MOL    C6548913   6.714   6.672   5.310 -0.8827  0.4371  0.6020
  345MOL    C6648914   6.679   6.771   5.199 -0.4162  0.0923 -0.1309
  345MOL    O6748915   6.646   6.691   5.083  0.0194  0.3561  0.1507
  345MOL    H6848916   6.628   6.612   5.340  1.6591 -2.3215  2.6963
  345MOL    H6948917   6.738   6.728   5.401  1.6091 -1.1896  0.9736
  345MOL    H7048918   6.759   6.834   5.163  0.1219 -0.5607 -0.0902
  345MOL    H7148919   6.721   6.635   5.070  0.8209  1.4462 -0.0061
  345MOL    C7248920   6.561   6.854   5.249 -0.1053 -0.3205  0.4641
  345MOL    C7348921   6.512   6.968   5.148 -0.2493  0.3461  0.1381
  345MOL    O7448922   6.394   7.024   5.198  0.1484  0.0255 -0.5229
  345MOL    H7548923   6.483   6.784   5.278 -0.7847  0.9774  1.8231
  345MOL    H7648924   6.594   6.903   5.340  0.4992 -1.0116  0.6142
  345MOL    H7748925   6.489   6.925   5.050 -1.1963  1.1306  0.0136
  345MOL    H7848926   6.349   6.946   5.229  1.1403 -0.1784  0.4372
  345MOL    C7948927   6.617   7.082   5.132  0.4869 -0.2959  0.1601
  345MOL    C8048928   6.634   7.130   4.989 -0.0120  0.4731 -0.2859
  345MOL    O8148929   6.702   7.044   4.908 -0.3959 -0.0876  0.0167
  345MOL    H8248930   6.595   7.163   5.201 -1.3591 -1.4387  0.9409
  345MOL    H8348931   6.712   7.049   5.174 -0.1786 -1.8172  0.4786
  345MOL    H8448932   6.710   7.208   4.995  1.6481 -1.0256 -1.3792
  345MOL    H8548933   6.691   7.098   4.831 -0.6023 -0.5160 -0.2531
  345MOL    C8648934   6.512   7.186   4.910  0.5410  0.0192  0.1352
  345MOL    C8748935   6.551   7.289   4.803  0.1228  0.9734  0.1903
  345MOL    O8848936   6.612   7.207   4.700 -0.2425 -0.1948 -0.4576
  345MOL    H8948937   6.464   7.106   4.855 -0.9697  0.0565  1.3768
  345MOL    H9048938   6.434   7.215   4.980 -0.9049  1.2534 -1.9259
  345MOL    H9148939   6.627   7.356   4.842  1.8605 -1.3756  0.9296
  345MOL    H9248940   6.658   7.264   4.639  0.1627  1.0834  1.0038
  345MOL    C9348941   6.437   7.383   4.757 -0.1393  0.0232 -0.0248
  345MOL    C9448942   6.385   7.477   4.868  0.1312  0.1790 -0.1593
  345MOL    O9548943   6.490   0.054   4.868 -0.6890  0.0102 -0.5940
  345MOL    H9648944   6.462   7.442   4.669 -0.0254 -1.6437 -1.1428
  345MOL    H9748945   6.353   7.321   4.724  0.0981 -0.2650 -0.0943
  345MOL    H9848946   6.369   7.419   4.959 -1.8282 -0.3004 -0.7911
  345MOL    H9948947   6.471   0.114   4.797 -0.0576  1.1749  0.2231
  345MOL   C10048948   6.236   0.008   4.852  0.0997 -0.3543  0.1231
  345MOL   C10148949   6.191   0.094   4.968  0.0187  0.7294 -0.3103
  345MOL   O10248950   6.058   0.149   4.938 -0.5266 -0.0812  0.4249
  345MOL   H10348951   6.248   0.069   4.762 -0.4940  0.1141  0.3538
  345MOL   H10448952   6.171   7.442   4.832  0.2012 -0.2448 -0.7166
  345MOL   H10548953   6.257   0.181   4.977 -0.5564  0.9676  1.7616
  345MOL   H10648954   5.997   0.079   4.956 -0.6315 -0.5140 -1.5261
  345MOL   C10748955   6.191   0.020   5.106 -0.0019  0.2600  0.5111
  345MOL   C10848956   6.146   0.094   5.233  0.0857 -0.8456 -0.3891
  345MOL   O10948957   6.090   0.001   5.322  0.0757 -0.5742 -0.8907
  345MOL   H11048958   6.135   7.446   5.096 -0.5676  0.8573 -2.2018
  345MOL   H11148959   6.290   7.500   5.129  0.3078  1.9429  2.1991
  345MOL   H11248960   6.075   0.170   5.202 -0.7355 -1.0651  0.9167
  345MOL   H11348961   6.090   0.038   5.409 -0.3195 -0.4425 -0.9481
  345MOL   C11448962   6.259   0.171   5.310 -0.3299 -0.0627  0.6386
  345MOL   C11548963   6.327   0.291   5.245 -0.2150  0.4878 -0.4207
  345MOL   O11648964   6.230   0.394   5.243  0.0010 -0.2195  0.7791
  345MOL   H11748965   6.210   0.192   5.405 -1.9528 -0.5237 -0.0628
  345MOL   H11848966   6.341   0.101   5.327  0.9161  0.7085 -1.9163
  345MOL   H11948967   6.351   0.275   5.140  2.6887  1.3932  0.0473
  345MOL   H12048968   6.194   0.395   5.156 -1.1090 -1.4364  1.2017
  345MOL   C12148969   6.446   0.345   5.325  0.1370 -0.1556  0.3577
  345MOL   C12248970   6.510   0.484   5.292 -0.5418  0.0372 -0.1901
  345MOL   O12348971   6.616   0.508   5.380  0.0428 -0.8760  0.0955
  345MOL   H12448972   6.418   0.350   5.431  1.5225 -1.4606  0.8097
  345MOL   H12548973   6.522   0.268   5.307 -0.4047 -0.5876 -0.0957
  345MOL   H12648974   6.436   0.564   5.301  0.9579  1.5448 -1.1377
  345MOL   H12748975   6.653   0.423   5.396 -1.0959 -1.0524  1.9298
  345MOL   C12848976   6.577   0.484   5.149  0.3202 -0.7845 -0.5050
  345MOL   C12948977   6.481   0.488   5.028  0.2043 -0.0770 -0.1616
  345MOL   O13048978   6.471   0.621   4.979 -0.1013  0.0296  0.3128
  345MOL   H13148979   6.637   0.575   5.146 -0.5367 -0.1037  1.7589
  345MOL   H13248980   6.647   0.400   5.148  1.9682  0.4444  3.2959
  345MOL   H13348981   6.378   0.458   5.047  0.3034  0.1614  0.7904
  345MOL   H13448982   6.402   0.620   4.914 -1.5344  0.3805  1.7905
  345MOL   C13548983   6.534   0.407   4.910  0.0778 -0.5280  0.0899
  345MOL   C13648984   6.449   0.413   4.783 -0.2527 -0.2731  0.7606
  345MOL   O13748985   6.497   0.306   4.695 -0.2343  0.4737 -0.4467
  345MOL   H13848986   6.639   0.429   4.889  0.3527 -1.1882  0.7410
  345MOL   H13948987   6.541   0.307   4.954  1.8244  0.0559  1.1989
  345MOL   H14048988   6.443   0.511   4.736  2.0615 -0.3400  0.2532
  345MOL   H14148989   6.436   0.296   4.624 -2.3602 -0.0866  1.3915
  345MOL   H14248990   6.351   0.373   4.811  0.2002 -2.8143 -1.0803
  346MOL     C148991   5.316   4.333   0.310  0.8594 -0.2803 -0.1818
  346MOL     C248992   5.292   4.342   0.157 -0.2379  0.6759 -0.0182
  346MOL     O348993   5.154   4.351   0.131  0.2370  0.1302  0.3165
  346MOL     H448994   5.268   4.244   0.352  2.9419 -1.9153 -1.1746
  346MOL     H548995   5.270   4.420   0.356  0.4913 -0.4736 -0.1826
  346MOL     H648996   5.325   4.247   0.114  0.3623  1.3890 -1.1386
  346MOL     H748997   5.140   4.415   0.063 -2.9228  2.1698  2.7294
  346MOL     H848998   5.420   4.333   0.342  0.8251 -0.2899 -0.0698
  346MOL     C948999   5.369   4.454   0.080 -0.2357 -0.8664  0.3897
  346MOL    C1049000   5.510   4.418   0.041  0.8399 -0.2334 -0.0323
  346MOL    O1149001   5.499   4.312   7.467  0.0780 -1.2570 -0.0372
  346MOL    H1249002   5.318   4.507   7.519 -0.3181 -0.9874  0.3626
  346MOL    H1349003   5.383   4.538   0.148  1.2111  0.1003 -1.0848
  346MOL    H1449004   5.553   4.374   0.131  0.7969 -1.6755 -0.6976
  346MOL    H1549005   5.583   4.269   7.469 -0.4914 -2.3662  0.9714
  346MOL    C1649006   5.585   4.545   7.499 -0.0035  0.4033  0.2268
  346MOL    C1749007   5.732   4.516   7.495 -0.6193  0.1895 -0.6043
  346MOL    O1849008   5.800   4.617   7.422  0.0252 -0.0770 -0.3431
  346MOL    H1949009   5.541   4.554   7.399 -1.1487  0.2268  0.7092
  346MOL    H2049010   5.557   4.638   0.028  0.3513  0.4377  0.3696
  346MOL    H2149011   5.747   4.421   7.444 -1.3059 -0.4515  0.3866
  346MOL    H2249012   5.777   4.616   7.331 -0.8104 -2.5995 -0.1386
  346MOL    C2349013   5.794   4.513   0.114  0.4444  0.2941 -0.0576
  346MOL    C2449014   5.946   4.482   0.115 -0.7588 -0.1850  0.5324
  346MOL    O2549015   6.003   4.605   0.075 -0.1143 -0.3284  0.2263
  346MOL    H2649016   5.774   4.610   0.159 -2.0295  0.1683 -0.8601
  346MOL    H2749017   5.735   4.445   0.175 -2.0888  1.8331 -0.7226
  346MOL    H2849018   5.974   4.406   0.042 -1.5304  1.1252 -1.1696
  346MOL    H2949019   5.959   4.641   7.519  0.6437  1.4663  0.6142
  346MOL    C3049020   5.985   4.431   0.259 -0.1432  0.0278  0.1896
  346MOL    C3149021   6.126   4.363   0.285  0.2018 -0.2429  0.6477
  346MOL    O3249022   6.119   4.239   0.226 -0.2105 -0.1082  0.1192
  346MOL    H3349023   5.961   4.507   0.333  1.1126  1.1733 -0.5568
  346MOL    H3449024   5.917   4.347   0.275  0.2747 -0.9280 -2.5832
  346MOL    H3549025   6.132   4.358   0.393  2.4545  2.1990  0.6792
  346MOL    H3649026   6.132   4.171   0.290  0.8629  0.9956  1.0993
  346MOL    C3749027   6.247   4.438   0.232 -0.7253  0.3675  0.1055
  346MOL    C3849028   6.281   4.566   0.315  0.2485  0.1477 -0.7238
  346MOL    O3949029   6.309   4.545   0.452  0.4267 -0.2307 -0.5055
  346MOL    H4049030   6.333   4.371   0.237 -1.9123 -1.0931  1.5583
  346MOL    H4149031   6.227   4.456   0.127 -0.7916  0.1775  0.0846
  346MOL    H4249032   6.191   4.626   0.324  1.5312  1.8901  0.6858
  346MOL    H4349033   6.334   4.633   0.476  1.5657 -0.3875 -1.0825
  346MOL    C4449034   6.397   4.639   0.256  0.1929  0.5722  0.4362
  346MOL    C4549035   6.370   4.788   0.226 -0.5576 -0.1636  0.4006
  346MOL    O4649036   6.496   4.828   0.174 -0.0080 -0.0291  0.1993
  346MOL    H4749037   6.482   4.628   0.324  0.8690 -0.3879 -0.5497
  346MOL    H4849038   6.427   4.587   0.166 -1.9623  0.9689 -0.5255
  346MOL    H4949039   6.338   4.843   0.314  2.7298  2.4495  0.0948
  346MOL    H5049040   6.500   4.792   0.087 -1.2597  0.2752  0.0047
  346MOL    C5149041   6.272   4.828   0.115  0.8057 -0.2680  0.8450
  346MOL    C5249042   6.146   4.904   0.163 -0.0870 -0.8568  0.4803
  346MOL    O5349043   6.189   5.037   0.208 -0.3121  0.3954  0.0521
  346MOL    H5449044   6.312   4.879   0.027 -2.0838 -0.8666 -0.8850
  346MOL    H5549045   6.247   4.732   0.069  2.8375 -1.1841  1.6105
  346MOL    H5649046   6.082   4.849   0.233 -1.7687 -1.7923 -1.7493
  346MOL    H5749047   6.230   5.081   0.135  1.0825 -1.2523 -0.1929
  346MOL    C5849048   6.060   4.935   0.035 -0.0295  0.3518 -0.6671
  346MOL    C5949049   5.932   5.013   0.059  0.2452  0.1807 -0.6563
  346MOL    O6049050   5.884   5.072   7.456  0.1706 -0.1160  0.3623
  346MOL    H6149051   6.125   4.989   7.486  1.0089  1.3905  1.0832
  346MOL    H6249052   6.030   4.842   7.507 -2.9852  0.3727  0.9686
  346MOL    H6349053   5.943   5.097   0.128 -2.9632  1.6617 -1.7995
  346MOL    H6449054   5.796   5.040   7.444  0.0393 -1.0206  3.4314
  346MOL    C6549055   5.818   4.928   0.124 -0.5433  0.0665  0.3905
  346MOL    C6649056   5.695   5.007   0.166  0.0548  1.1245  0.6513
  346MOL    O6749057   5.577   4.927   0.178 -0.8675  0.1839 -0.1999
  346MOL    H6849058   5.783   4.859   0.048  2.1775 -1.0094  0.0772
  346MOL    H6949059   5.858   4.859   0.198 -2.0424 -1.6544 -0.3673
  346MOL    H7049060   5.685   5.080   0.085 -1.8249  1.4825  1.1758
  346MOL    H7149061   5.599   4.862   0.243  2.0008 -0.9618 -2.2534
  346MOL    C7249062   5.719   5.084   0.297 -0.0442 -0.3947 -0.0169
  346MOL    C7349063   5.609   5.189   0.326 -0.2087 -0.6611 -0.3479
  346MOL    O7449064   5.600   5.192   0.469 -0.6327 -0.1520 -0.1717
  346MOL    H7549065   5.732   5.010   0.376 -0.8444  0.1461  0.6239
  346MOL    H7649066   5.816   5.135   0.296 -0.2131  0.1722  3.7462
  346MOL    H7749067   5.513   5.155   0.289 -1.8480 -0.4533  3.4087
  346MOL    H7849068   5.594   5.107   0.509 -2.2622 -0.1386 -0.3473
  346MOL    C7949069   5.634   5.337   0.281  0.1232 -0.1965  0.2316
  346MOL    C8049070   5.638   5.362   0.130 -0.4402 -0.3735 -0.8131
  346MOL    O8149071   5.509   5.377   0.078 -0.2362  0.9356 -0.0638
  346MOL    H8249072   5.569   5.405   0.337  0.6753 -0.1922  0.8772
  346MOL    H8349073   5.731   5.362   0.326 -0.0662  0.6463  0.1843
  346MOL    H8449074   5.692   5.284   0.078  0.6416  0.3646 -0.8121
  346MOL    H8549075   5.457   5.434   0.133 -0.2725  0.4462  0.4116
  346MOL    C8649076   5.722   5.491   0.103  0.1263 -0.5283  0.2759
  346MOL    C8749077   5.736   5.547   7.486  0.3056  0.2110  0.9929
  346MOL    O8849078   5.822   5.661   7.498 -0.9068  0.2240 -0.1829
  346MOL    H8949079   5.671   5.568   0.161 -1.3972 -1.0620 -0.3304
  346MOL    H9049080   5.822   5.468   0.141  1.2658  0.2884 -2.1614
  346MOL    H9149081   5.638   5.589   7.463 -0.2587 -1.7223 -0.3024
  346MOL    H9249082   5.805   5.721   7.427 -0.1816  0.4352 -0.1809
  346MOL    C9349083   5.773   5.448   7.379 -0.8448  0.6156  0.5528
  346MOL    C9449084   5.904   5.375   7.383  0.0773  1.1977  0.1580
  346MOL    O9549085   5.899   5.284   7.271  0.8198  0.1105 -0.5954
  346MOL    H9649086   5.705   5.363   7.369  2.6509 -2.3175  0.4741
  346MOL    H9749087   5.776   5.496   7.281 -0.0175 -1.8081 -0.6437
  346MOL    H9849088   5.918   5.318   7.475 -0.3194 -2.3340 -1.8974
  346MOL    H9949089   5.897   5.197   7.310 -0.9935  0.0602 -0.7271
  346MOL   C10049090   6.022   5.479   7.362 -0.1070 -0.6550  0.1123
  346MOL   C10149091   6.159   5.408   7.338 -0.1560  0.5515  0.8997
  346MOL   O10249092   6.259   5.511   7.320 -0.0706 -0.5575 -0.2692
  346MOL   H10349093   6.005   5.568   7.301  0.0928 -0.6121  0.1198
  346MOL   H10449094   6.040   5.523   7.460 -0.3182 -0.1242 -0.0881
  346MOL   H10549095   6.151   5.372   7.235 -2.2100 -0.2138  1.2938
  346MOL   H10649096   6.266   5.530   7.227 -0.7981  0.7598 -0.0721
  346MOL   C10749097   6.192   5.286   7.430 -0.4702  0.2025 -0.5095
  346MOL   C10849098   6.315   5.210   7.384 -0.0388  0.1728  0.0615
  346MOL   O10949099   6.374   5.142   7.499 -0.0093 -0.4427 -0.4640
  346MOL   H11049100   6.212   5.316   0.014  0.1187 -1.3240 -0.1744
  346MOL   H11149101   6.114   5.211   7.420 -2.1595  2.0705 -1.7026
  346MOL   H11249102   6.395   5.281   7.364  1.8300 -2.2818 -1.5085
  346MOL   H11349103   6.438   5.196   0.024  1.3223 -2.2006 -0.2136
  346MOL   C11449104   6.292   5.113   7.260 -0.5151 -0.4239 -0.6139
  346MOL   C11549105   6.389   5.107   7.140 -0.6784  0.6060  0.0698
  346MOL   O11649106   6.355   4.997   7.060 -0.4741  0.1048 -0.3106
  346MOL   H11749107   6.254   5.017   7.296 -1.2346  0.0451 -0.1145
  346MOL   H11849108   6.200   5.155   7.218 -0.0042  1.0005 -0.3130
  346MOL   H11949109   6.492   5.092   7.169 -0.9408  1.6699  1.6303
  346MOL   H12049110   6.388   4.918   7.101 -0.7296  0.9374  1.5182
  346MOL   C12149111   6.377   5.229   7.048  0.0712 -0.0297  0.1871
  346MOL   C12249112   6.492   5.270   6.961 -0.5666  0.0132 -0.6558
  346MOL   O12349113   6.451   5.382   6.886  0.1703 -0.0595  0.0543
  346MOL   H12449114   6.284   5.218   6.992 -0.1190  0.9292  0.3037
  346MOL   H12549115   6.360   5.310   7.119 -0.2726 -1.2859  1.5580
  346MOL   H12649116   6.514   5.189   6.891 -0.8910 -0.3213 -0.3751
  346MOL   H12749117   6.395   5.350   6.817 -0.0013  1.7588 -0.6890
  346MOL   C12849118   6.624   5.314   7.035 -0.6718  0.1189 -0.7892
  346MOL   C12949119   6.753   5.356   6.949 -0.1496  0.2260  0.4922
  346MOL   O13049120   6.787   5.266   6.847  0.6503  0.2008 -0.2325
  346MOL   H13149121   6.598   5.399   7.098  0.6715 -1.6473  2.2273
  346MOL   H13249122   6.660   5.244   7.110  0.4995  1.4800 -0.0360
  346MOL   H13349123   6.846   5.358   7.005  0.9993 -0.5463 -1.3815
  346MOL   H13449124   6.764   5.177   6.867 -0.3482  0.8129  1.4756
  346MOL   C13549125   6.754   5.504   6.904 -0.0395  0.2847 -0.1943
  346MOL   C13649126   6.745   5.598   7.025  0.0271 -0.1642  0.0508
  346MOL   O13749127   6.769   5.733   6.975 -0.4223  0.5013  0.2537
  346MOL   H13849128   6.852   5.518   6.860 -0.6459  1.0581 -1.3155
  346MOL   H13949129   6.685   5.515   6.820 -0.5843 -4.0191 -0.4556
  346MOL   H14049130   6.821   5.562   7.094  0.4351 -0.8428 -0.7510
  346MOL   H14149131   6.742   5.781   7.051  0.3702 -1.9497  2.1425
  346MOL   H14249132   6.642   5.608   7.062 -0.3453 -0.7567 -0.8314
  347MOL     C149133   3.997   7.228   1.198  0.4630 -0.8754 -0.2448
  347MOL     C249134   3.945   7.150   1.069 -0.4830 -0.2164 -0.1169
  347MOL     O349135   3.882   7.029   1.106  0.6057 -0.6528  0.5883
  347MOL     H449136   4.091   7.187   1.233  0.5421  0.2850  0.9288
  347MOL     H549137   3.924   7.234   1.278 -0.1783  0.9997 -0.9302
  347MOL     H649138   4.037   7.122   1.016  0.3775  0.8397  0.7871
  347MOL     H749139   3.883   6.975   1.028  2.0445  0.7789 -0.4107
  347MOL     H849140   4.020   7.329   1.164 -0.0259 -1.0397 -1.0829
  347MOL     C949141   3.850   7.225   0.974 -0.0297 -0.3998  0.0990
  347MOL    C1049142   3.910   7.357   0.907 -0.2176  0.4880 -0.4059
  347MOL    O1149143   4.039   7.338   0.856  0.4286 -0.0613 -0.1008
  347MOL    H1249144   3.832   7.152   0.895 -1.4584 -2.7975  2.5633
  347MOL    H1349145   3.750   7.236   1.015  0.2927  1.7190  0.3744
  347MOL    H1449146   3.929   7.432   0.984  1.1023  0.1064 -0.3434
  347MOL    H1549147   4.039   7.396   0.780  1.3864  1.3612  0.9622
  347MOL    C1649148   3.818   7.429   0.804  0.7365  0.3945 -0.1571
  347MOL    C1749149   3.872   0.043   0.755 -0.5676  0.0703 -0.5967
  347MOL    O1849150   4.003   0.017   0.690  0.2699  0.0344  0.5681
  347MOL    H1949151   3.782   7.368   0.721 -1.2263 -0.3862  1.2254
  347MOL    H2049152   3.717   7.441   0.844  0.0901  1.6742 -2.0917
  347MOL    H2149153   3.891   0.113   0.837  0.8462  0.7041 -1.4650
  347MOL    H2249154   4.032   0.100   0.653 -1.4794 -0.3227 -1.6896
  347MOL    C2349155   3.785   0.117   0.652 -0.4711 -0.1387  0.0722
  347MOL    C2449156   3.646   0.147   0.704 -0.1060  0.2195  0.5529
  347MOL    O2549157   3.647   0.201   0.835  0.0827  0.7494  0.6662
  347MOL    H2649158   3.832   0.213   0.633 -0.2833  0.0764  1.5342
  347MOL    H2749159   3.773   0.065   0.557  1.3151  1.5941 -1.1446
  347MOL    H2849160   3.588   0.055   0.702  0.1565  0.0304  1.6116
  347MOL    H2949161   3.679   0.290   0.832  3.4350 -0.3858  0.7595
  347MOL    C3049162   3.577   0.247   0.608  0.1064 -0.1431  0.5856
  347MOL    C3149163   3.542   0.198   0.467  0.8943 -0.3824 -0.6574
  347MOL    O3249164   3.457   0.079   0.464  0.2669  0.2583 -0.5483
  347MOL    H3349165   3.485   0.285   0.652 -0.9056  2.0824 -3.1751
  347MOL    H3449166   3.638   0.337   0.597 -0.5009  0.3196  0.9965
  347MOL    H3549167   3.640   0.172   0.426  0.3705 -1.4948 -1.2317
  347MOL    H3649168   3.509   0.011   0.425 -3.1345 -1.1719 -2.7984
  347MOL    C3749169   3.477   0.308   0.389  0.3538 -0.9035  0.7383
  347MOL    C3849170   3.571   0.422   0.345 -0.3509  1.1860 -0.1626
  347MOL    O3949171   3.639   0.382   0.228  0.4577  0.3043 -0.3457
  347MOL    H4049172   3.433   0.264   0.299 -1.2525 -2.2616  2.1545
  347MOL    H4149173   3.390   0.350   0.440 -0.6578 -1.1516 -0.7436
  347MOL    H4249174   3.647   0.440   0.421 -0.3652  2.0498 -0.3517
  347MOL    H4349175   3.716   0.329   0.243  0.5583  0.8740  1.2382
  347MOL    C4449176   3.509   0.549   0.303  0.4703 -0.5108  0.0333
  347MOL    C4549177   3.444   0.633   0.418 -0.0098  0.8475 -0.1803
  347MOL    O4649178   3.535   0.640   0.520  0.5843 -0.7117  0.0834
  347MOL    H4749179   3.592   0.606   0.261  0.8497 -1.7871 -0.9721
  347MOL    H4849180   3.437   0.528   0.224  0.0409 -1.1368  0.5870
  347MOL    H4949181   3.358   0.578   0.459  0.7844 -0.6052 -0.4270
  347MOL    H5049182   3.503   0.629   0.608 -3.8451 -1.1005 -1.4599
  347MOL    C5149183   3.391   0.770   0.366  0.3117  0.2670 -0.0046
  347MOL    C5249184   3.252   0.764   0.297  0.2504 -0.0757  0.8578
  347MOL    O5349185   3.155   0.776   0.397  0.3688 -0.6555  0.4873
  347MOL    H5449186   3.375   0.844   0.445  1.3143 -0.7715  1.2068
  347MOL    H5549187   3.460   0.824   0.301 -0.4741 -0.7346 -1.6920
  347MOL    H5649188   3.244   0.672   0.239  0.0694  1.1871 -1.1722
  347MOL    H5749189   3.131   0.687   0.415  1.7217 -0.8526  1.4078
  347MOL    C5849190   3.235   0.878   0.198  0.6502  0.4569 -0.3415
  347MOL    C5949191   3.095   0.869   0.126  0.9807  0.4119 -0.5709
  347MOL    O6049192   3.056   1.004   0.100  0.2411  0.1986  0.0624
  347MOL    H6149193   3.248   0.970   0.255  1.4523  0.5772 -0.7071
  347MOL    H6249194   3.326   0.887   0.138 -0.6007 -2.4416 -2.7952
  347MOL    H6349195   3.018   0.833   0.194  1.3272 -1.2516 -1.0139
  347MOL    H6449196   2.983   1.023   0.158 -0.1026 -2.0367  0.4200
  347MOL    C6549197   3.100   0.788   7.517 -1.1460 -0.9061 -0.3858
  347MOL    C6649198   2.961   0.762   7.452  0.6463  0.1451 -0.2232
  347MOL    O6749199   2.983   0.706   7.327 -0.0693  0.8564  0.3896
  347MOL    H6849200   3.159   0.844   7.445  1.5151 -2.4696  0.5118
  347MOL    H6949201   3.143   0.689   0.014 -0.0905 -0.3054  0.5790
  347MOL    H7049202   2.914   0.858   7.429  0.4856  1.2017  3.9923
  347MOL    H7149203   3.036   0.628   7.337 -0.9099  0.2147 -0.0516
  347MOL    C7249204   2.863   0.679   0.015 -0.3220 -0.1670 -0.2714
  347MOL    C7349205   2.721   0.655   7.482  0.3613 -0.8717  0.0722
  347MOL    O7449206   2.668   0.532   0.019  0.0566  0.1902 -0.2530
  347MOL    H7549207   2.914   0.583   0.024  1.4901  0.9187  1.2288
  347MOL    H7649208   2.849   0.713   0.117 -0.9098 -0.0025 -0.4042
  347MOL    H7749209   2.719   0.633   7.375 -0.5992  2.0987 -0.5496
  347MOL    H7849210   2.607   0.490   7.480  0.2207  2.7655 -2.3800
  347MOL    C7949211   2.627   0.775   0.000  0.2972 -0.1376  0.0311
  347MOL    C8049212   2.495   0.774   7.439  0.2067 -0.9333  0.3049
  347MOL    O8149213   2.388   0.848   7.502 -0.5332  0.2150 -0.0589
  347MOL    H8249214   2.600   0.769   0.105 -2.1719 -1.8236 -0.6550
  347MOL    H8349215   2.660   0.878   7.505  0.3198 -0.4677 -2.4147
  347MOL    H8449216   2.456   0.673   7.450 -1.0526 -0.4440  0.3344
  347MOL    H8549217   2.320   0.865   7.438  0.5814 -2.8409 -2.1829
  347MOL    C8649218   2.497   0.816   7.288  0.2932 -0.2931 -0.5805
  347MOL    C8749219   2.580   0.941   7.250 -0.7676  0.7099 -0.1363
  347MOL    O8849220   2.722   0.908   7.258  0.6468  0.1081  0.6732
  347MOL    H8949221   2.527   0.730   7.228 -2.0063 -0.4836 -1.4986
  347MOL    H9049222   2.394   0.827   7.253  0.8716  0.0264 -2.2616
  347MOL    H9149223   2.576   1.012   7.332 -2.2658 -0.6629  1.0270
  347MOL    H9249224   2.773   0.988   7.251  2.6032 -0.9202  2.5720
  347MOL    C9349225   2.556   1.009   7.116 -0.2938 -0.6535 -0.5357
  347MOL    C9449226   2.523   0.925   6.997 -0.5998  0.0779  0.3914
  347MOL    O9549227   2.471   1.012   6.892 -0.2110 -0.1033  0.2676
  347MOL    H9649228   2.472   1.078   7.123 -0.8960 -1.3799 -0.5101
  347MOL    H9749229   2.640   1.078   7.106 -0.6400  0.2954  2.4812
  347MOL    H9849230   2.442   0.855   7.016 -1.7347  1.3961  0.4473
  347MOL    H9949231   2.377   1.001   6.886 -0.3216  0.9600 -0.0506
  347MOL   C10049232   2.629   0.824   6.947 -0.0293 -0.5319  0.5793
  347MOL   C10149233   2.568   0.704   6.869 -0.4252 -0.0815 -0.8714
  347MOL   O10249234   2.518   0.758   6.749  0.0689 -0.4872  0.2483
  347MOL   H10349235   2.704   0.880   6.891  0.3869 -2.0400 -0.4230
  347MOL   H10449236   2.688   0.794   7.034  0.2721 -0.1904  0.4954
  347MOL   H10549237   2.489   0.659   6.930 -0.8219  1.1893 -0.4292
  347MOL   H10649238   2.513   0.852   6.757  1.9928 -0.0538 -2.8092
  347MOL   C10749239   2.681   0.610   6.824 -0.4753  0.7931 -0.4203
  347MOL   C10849240   2.740   0.520   6.943  0.7813 -0.4627 -0.7089
  347MOL   O10949241   2.641   0.443   7.010 -0.1669 -0.2050  0.1003
  347MOL   H11049242   2.645   0.550   6.741 -0.4180 -1.1269  0.9241
  347MOL   H11149243   2.765   0.667   6.785  0.3067 -0.6173 -0.8018
  347MOL   H11249244   2.781   0.585   7.021  0.8969  0.2385 -1.3466
  347MOL   H11349245   2.591   0.402   6.941  0.9961 -0.0062 -0.8735
  347MOL   C11449246   2.847   0.426   6.890  0.5373 -0.6760 -0.2459
  347MOL   C11549247   2.917   0.342   7.006 -0.5596 -0.4857  0.5187
  347MOL   O11649248   3.016   0.259   6.955 -0.1513 -0.2493  0.1822
  347MOL   H11749249   2.797   0.359   6.819  2.3683 -0.4356 -1.8096
  347MOL   H11849250   2.928   0.473   6.835 -0.8180  0.5670 -1.2531
  347MOL   H11949251   2.849   0.278   7.062 -1.1591 -0.6746 -0.4159
  347MOL   H12049252   2.987   0.169   6.948  3.4428 -1.7500  2.5553
  347MOL   C12149253   2.997   0.430   7.102  0.2843 -0.1266 -0.1091
  347MOL   C12249254   3.054   0.361   7.229  0.0861 -0.4240 -0.4086
  347MOL   O12349255   3.150   0.446   7.292  0.1599  0.0006  0.0270
  347MOL   H12449256   3.076   0.485   7.051 -0.0287 -0.7068 -1.2369
  347MOL   H12549257   2.929   0.506   7.141  0.4782  1.4734 -2.7413
  347MOL   H12649258   3.110   0.272   7.202 -1.6577 -1.1959 -1.5439
  347MOL   H12749259   3.240   0.426   7.272  0.1124  0.7437 -0.9323
  347MOL   C12849260   2.950   0.331   7.342  0.3002  0.3343 -0.6165
  347MOL   C12949261   2.998   0.302   7.483  0.0462 -0.2058 -0.0495
  347MOL   O13049262   2.883   0.304   0.043  0.4859 -0.4783 -0.0314
  347MOL   H13149263   2.874   0.409   7.342 -0.9789 -0.8890 -0.5196
  347MOL   H13249264   2.900   0.242   7.305 -1.0393  1.0974 -0.6570
  347MOL   H13349265   3.066   0.380   7.517  0.9500 -0.5263 -1.1008
  347MOL   H13449266   2.854   0.394   0.041  2.3320  0.1245 -1.2053
  347MOL   C13549267   3.061   0.161   7.494 -0.6083 -0.0776 -0.2651
  347MOL   C13649268   3.102   0.113   0.114  0.1239  0.2104  0.9778
  347MOL   O13749269   3.127   7.490   0.109  0.4838 -0.0421  0.0492
  347MOL   H13849270   2.980   0.093   7.466 -0.2588 -0.0371 -1.3783
  347MOL   H13949271   3.144   0.146   7.425  0.3442 -0.5719  0.9580
  347MOL   H14049272   3.016   0.121   0.181 -1.6154 -0.3986 -1.1315
  347MOL   H14149273   3.210   7.477   0.066  0.2123  0.2121 -0.5594
  347MOL   H14249274   3.183   0.178   0.147  0.1071  1.3021 -1.0527
  348MOL     C149275   6.310   1.111   5.110 -0.3549 -0.3166 -0.5162
  348MOL     C249276   6.410   1.104   5.230  0.8632 -0.6248  0.8333
  348MOL     O349277   6.355   1.183   5.332 -0.5579  0.1826  0.3913
  348MOL     H449278   6.280   1.214   5.097  1.6797 -0.0424 -3.4530
  348MOL     H549279   6.219   1.056   5.133  1.5100 -3.1228  0.4904
  348MOL     H649280   6.501   1.153   5.195  1.6460 -1.7262  1.2937
  348MOL     H749281   6.420   1.171   5.399  0.0612  1.8529  0.1070
  348MOL     H849282   6.359   1.079   5.018 -0.1081  1.7212 -1.1175
  348MOL     C949283   6.448   0.963   5.290 -0.1104  0.0842  0.0075
  348MOL    C1049284   6.581   0.970   5.373 -0.0433  0.7373  0.4984
  348MOL    O1149285   6.548   1.042   5.488  0.6676  0.0617  0.0833
  348MOL    H1249286   6.371   0.933   5.361 -1.2246 -0.0644 -1.2404
  348MOL    H1349287   6.451   0.887   5.213  1.5271 -0.3148  0.4397
  348MOL    H1449288   6.658   1.028   5.322  1.0018 -1.0297 -0.0019
  348MOL    H1549289   6.480   0.992   5.530  2.0439 -1.5596  0.4391
  348MOL    C1649290   6.635   0.835   5.418  0.3256 -0.2692 -0.0790
  348MOL    C1749291   6.766   0.848   5.501  0.2726  1.3025  0.2251
  348MOL    O1849292   6.779   0.719   5.567  0.1477 -0.1384  0.4066
  348MOL    H1949293   6.556   0.793   5.480 -0.2136  2.0592  0.8393
  348MOL    H2049294   6.655   0.776   5.328 -1.2718 -0.7446 -0.1457
  348MOL    H2149295   6.757   0.934   5.568 -0.7229 -0.4874  2.4447
  348MOL    H2249296   6.753   0.652   5.506 -1.0841  1.4033 -0.8377
  348MOL    C2349297   6.889   0.861   5.406 -1.0880  0.1534 -0.3292
  348MOL    C2449298   7.028   0.853   5.472 -0.2652  0.1324 -0.5166
  348MOL    O2549299   7.056   0.711   5.464 -0.2296 -0.1460 -0.0803
  348MOL    H2649300   6.905   0.798   5.319  2.3834 -2.3088  1.9507
  348MOL    H2749301   6.865   0.956   5.360  0.3228  1.3820  1.3881
  348MOL    H2849302   7.023   0.893   5.573  0.0445 -2.5263  0.5857
  348MOL    H2949303   6.996   0.681   5.531 -2.5299  2.2261 -1.0239
  348MOL    C3049304   7.135   0.927   5.393  0.0831  0.2981  0.5982
  348MOL    C3149305   7.278   0.927   5.450  0.0910 -0.1247  0.4309
  348MOL    O3249306   7.364   0.979   5.348 -0.0496  0.2726 -0.5513
  348MOL    H3349307   7.130   0.889   5.291  0.6651  2.5976 -0.3409
  348MOL    H3449308   7.101   1.030   5.379 -1.3741 -0.5628 -3.0489
  348MOL    H3549309   7.302   0.825   5.478  0.6374  0.3348  1.6850
  348MOL    H3649310   7.349   0.917   5.278 -0.9964 -2.8991  2.3129
  348MOL    C3749311   7.295   1.026   5.567  0.3960  0.6755  0.1935
  348MOL    C3849312   7.418   1.003   5.657  0.2122  0.0628  0.2354
  348MOL    O3949313   0.015   1.029   5.580  0.9008  0.6647 -0.1415
  348MOL    H4049314   7.290   1.128   5.528 -0.7746  1.2632  1.8039
  348MOL    H4149315   7.200   1.019   5.620 -0.0718  3.2386 -0.2034
  348MOL    H4249316   7.432   0.896   5.673  0.1619 -0.2695 -1.7314
  348MOL    H4349317   0.001   1.004   5.490 -0.5721 -0.0549  0.2713
  348MOL    C4449318   7.412   1.097   5.781 -0.1834  0.5533 -0.0121
  348MOL    C4549319   7.508   1.054   5.892 -0.1759  0.2917  0.7925
  348MOL    O4649320   0.125   1.077   5.842 -0.6833  0.3511 -0.5100
  348MOL    H4749321   7.435   1.199   5.749 -1.9049  0.7875 -0.5779
  348MOL    H4849322   7.307   1.091   5.807 -0.5828 -1.0380 -1.8506
  348MOL    H4949323   7.494   0.948   5.913 -0.1573  0.5566  2.1734
  348MOL    H5049324   0.128   1.054   5.750  1.7340 -0.2320 -0.3205
  348MOL    C5149325   7.479   1.144   6.015  0.4445  0.7928 -0.1973
  348MOL    C5249326   0.009   1.096   6.153  0.4619  0.6696 -0.0435
  348MOL    O5349327   7.509   1.194   6.246  0.2488 -0.3034 -0.2873
  348MOL    H5449328   0.000   1.241   5.990  1.6181  0.1228 -0.9161
  348MOL    H5549329   7.372   1.164   6.021  0.2303 -0.3985  0.1806
  348MOL    H5649330   0.117   1.082   6.150  0.8886  3.8650 -0.8969
  348MOL    H5749331   0.000   1.145   6.326  2.7533  0.6265  0.0066
  348MOL    C5849332   7.459   0.971   6.211 -0.1154 -0.1936 -0.2659
  348MOL    C5949333   0.012   0.834   6.190 -0.0550 -0.5708  0.4023
  348MOL    O6049334   0.067   0.806   6.315  0.5040  0.1941 -0.4638
  348MOL    H6149335   7.411   0.979   6.309 -1.4230  0.9627 -0.9917
  348MOL    H6249336   7.371   0.962   6.148 -0.2846 -0.6862  0.0351
  348MOL    H6349337   0.084   0.832   6.108  0.6557  2.0263  0.9282
  348MOL    H6449338   0.065   0.712   6.325  4.1999  0.1024  0.1432
  348MOL    C6549339   7.426   0.727   6.166  0.4266  0.5410  0.0079
  348MOL    C6649340   7.482   0.580   6.147  0.2200 -0.0991 -0.3332
  348MOL    O6749341   0.032   0.537   6.265 -0.0657 -0.0568 -0.4157
  348MOL    H6849342   7.364   0.730   6.255 -0.5127  2.2191 -0.6789
  348MOL    H6949343   7.361   0.753   6.082 -0.0392  1.3809  0.6231
  348MOL    H7049344   0.039   0.592   6.070  2.2152  0.0130  1.6181
  348MOL    H7149345   0.078   0.461   6.235  1.0635  0.0578  0.9644
  348MOL    C7249346   7.389   0.465   6.111  0.2183 -0.3884  0.2092
  348MOL    C7349347   7.328   0.498   5.978 -0.4016  0.2444 -0.5123
  348MOL    O7449348   7.420   0.524   5.874 -0.4509  0.5196 -0.0384
  348MOL    H7549349   7.443   0.371   6.097 -0.9422 -0.8813 -1.0880
  348MOL    H7649350   7.319   0.452   6.193 -1.8457 -1.2566 -1.6604
  348MOL    H7749351   7.281   0.596   5.982  1.5163  1.1872 -0.3932
  348MOL    H7849352   7.386   0.552   5.790  0.9438  2.4145 -0.0054
  348MOL    C7949353   7.216   0.400   5.955  0.0129  0.6687 -1.3439
  348MOL    C8049354   7.255   0.256   5.916 -0.3058 -0.2529 -0.5441
  348MOL    O8149355   7.148   0.160   5.943  0.1926 -0.7417 -0.2263
  348MOL    H8249356   7.163   0.399   6.050 -0.0830  1.1946 -1.3946
  348MOL    H8349357   7.141   0.431   5.882 -2.3113 -0.3654  0.5537
  348MOL    H8449358   7.332   0.225   5.987  0.0430 -1.5312 -1.4602
  348MOL    H8549359   7.144   0.160   6.037  1.4964  2.6535 -0.0592
  348MOL    C8649360   7.325   0.221   5.780 -0.6440 -0.2957 -0.1762
  348MOL    C8749361   7.245   0.214   5.658  0.6011 -0.0329  0.0452
  348MOL    O8849362   7.196   0.341   5.620  0.7340 -0.6228 -0.5675
  348MOL    H8949363   7.403   0.295   5.762 -0.6459 -0.0822  0.6801
  348MOL    H9049364   7.382   0.129   5.795  0.4422  0.3921  0.0009
  348MOL    H9149365   7.175   0.140   5.696 -0.3620  0.5610 -0.5317
  348MOL    H9249366   7.123   0.366   5.675  2.1022 -2.9365  2.4369
  348MOL    C9349367   7.336   0.168   5.537  1.1852  0.2621 -0.5144
  348MOL    C9449368   7.256   0.133   5.413 -0.2832  0.0081  0.3949
  348MOL    O9549369   7.337   0.140   5.293  0.0617 -0.3976  0.4592
  348MOL    H9649370   7.410   0.243   5.507  0.7700  1.3112  1.0714
  348MOL    H9749371   7.391   0.081   5.573 -1.7801 -1.4286  0.0965
  348MOL    H9849372   7.181   0.210   5.399 -1.8449 -1.8077 -1.5053
  348MOL    H9949373   7.387   0.220   5.288  0.6350 -0.8821 -2.9217
  348MOL   C10049374   7.184   7.516   5.428  0.4159  0.0751 -0.5218
  348MOL   C10149375   7.071   7.499   5.320  0.5249  0.1178 -0.1381
  348MOL   O10249376   7.053   7.361   5.303  0.3187 -0.6840 -0.5138
  348MOL   H10349377   7.261   7.439   5.419 -0.0306 -0.2058 -2.1768
  348MOL   H10449378   7.136   7.500   5.524 -0.1094 -0.8506 -0.9254
  348MOL   H10549379   7.107   0.032   5.231 -2.0042  0.6042 -0.9263
  348MOL   H10649380   7.131   7.326   5.261  0.8292  2.7710 -2.6681
  348MOL   C10749381   6.939   0.054   5.347  0.5991 -0.0993 -0.7610
  348MOL   C10849382   6.810   7.499   5.322 -0.7842  0.0787  0.1193
  348MOL   O10949383   6.704   0.069   5.350 -0.3386  0.3963  0.0802
  348MOL   H11049384   6.937   0.080   5.453 -3.0137 -1.4935 -0.4071
  348MOL   H11149385   6.934   0.151   5.297 -1.9085  0.7452  0.9744
  348MOL   H11249386   6.810   7.414   5.390  1.7980  1.2758  1.6718
  348MOL   H11349387   6.672   0.099   5.266  3.9477  1.6146 -1.2675
  348MOL   C11449388   6.794   7.443   5.172  0.3707  0.4976 -0.3308
  348MOL   C11549389   6.758   0.019   5.055  0.3787 -0.6959  0.3597
  348MOL   O11649390   6.633   0.081   5.094 -0.1754 -0.1642 -0.1709
  348MOL   H11749391   6.880   7.382   5.143 -0.1247  0.1836 -1.1429
  348MOL   H11849392   6.724   7.359   5.169 -1.3128  1.7684  1.7757
  348MOL   H11949393   6.723   7.484   4.967  1.2610  2.1062 -1.8086
  348MOL   H12049394   6.564   0.063   5.031 -1.4591 -2.5347  1.8097
  348MOL   C12149395   6.863   0.122   5.020 -0.3368  0.0302  0.4816
  348MOL   C12249396   6.862   0.168   4.873 -0.2480 -0.5388  0.0883
  348MOL   O12349397   6.957   0.270   4.865  0.4223 -0.4642 -0.1888
  348MOL   H12449398   6.836   0.204   5.086 -2.2885  0.7010 -1.1004
  348MOL   H12549399   6.959   0.087   5.060  0.6967  2.3759  0.1662
  348MOL   H12649400   6.761   0.205   4.854  0.7802  1.0139 -2.5661
  348MOL   H12749401   6.935   0.337   4.929 -0.7315  0.8396 -1.9153
  348MOL   C12849402   6.905   0.054   4.774  0.2996  0.7559 -0.1169
  348MOL   C12949403   6.923   0.107   4.628 -0.3324  0.1471  0.1734
  348MOL   O13049404   6.953   7.514   4.549  0.6793 -0.1579  0.0655
  348MOL   H13149405   7.001   0.015   4.805  0.7550  1.5462 -0.5063
  348MOL   H13249406   6.828   7.497   4.769  0.5271  0.3535  2.0509
  348MOL   H13349407   7.013   0.168   4.625  0.5640 -1.2451 -2.9265
  348MOL   H13449408   6.998   0.029   4.473  0.7576  2.4062  1.2515
  348MOL   C13549409   6.803   0.190   4.566  0.1169  0.6675 -0.0383
  348MOL   C13649410   6.801   0.339   4.595  0.0204 -0.7782 -0.0146
  348MOL   O13749411   6.691   0.397   4.521 -0.3886 -0.7028 -0.1897
  348MOL   H13849412   6.814   0.184   4.458  2.2664 -1.9306  0.2771
  348MOL   H13949413   6.708   0.144   4.594  0.2453  0.5686  0.2433
  348MOL   H14049414   6.890   0.385   4.554 -1.1381 -0.4074 -2.1993
  348MOL   H14149415   6.610   0.397   4.569  0.1923  1.3339  0.8426
  348MOL   H14249416   6.800   0.381   4.696  1.9039 -0.7964  0.0251
  349MOL     C149417   3.614   2.169   0.128  0.3185  0.3496 -0.4212
  349MOL     C249418   3.605   2.306   0.202 -0.1009  0.0289  0.4947
  349MOL     O349419   3.601   2.273   0.340 -0.4268 -0.2127  0.3643
  349MOL     H449420   3.542   2.099   0.171 -0.0431  0.4810 -0.8170
  349MOL     H549421   3.718   2.135   0.128  0.2449  0.0801  0.8007
  349MOL     H649422   3.511   2.354   0.172  1.3092  1.3622 -1.9552
  349MOL     H749423   3.531   2.213   0.360  1.2079 -2.4793 -0.4052
  349MOL     H849424   3.589   2.185   0.024  0.9038 -2.4181 -1.0285
  349MOL     C949425   3.718   2.396   0.172 -0.1123  0.2362  0.8397
  349MOL    C1049426   3.717   2.455   0.030 -0.4727 -0.7813  0.7400
  349MOL    O1149427   3.778   2.584   0.039  0.4809  0.3744 -0.0593
  349MOL    H1249428   3.720   2.478   0.243  3.5866 -0.1244  1.2250
  349MOL    H1349429   3.816   2.355   0.196  0.0570 -0.4936 -0.9867
  349MOL    H1449430   3.617   2.467   7.508  0.4769 -1.5151 -1.9120
  349MOL    H1549431   3.718   2.647   0.003  0.7600 -1.1083 -3.2373
  349MOL    C1649432   3.798   2.369   7.448 -0.2037  0.6741  0.8447
  349MOL    C1749433   3.861   2.449   7.332  0.0910 -0.4529  0.5620
  349MOL    O1849434   3.945   2.365   7.262 -0.3265  0.2877  0.5815
  349MOL    H1949435   3.874   2.316   7.505  1.1073  0.0929 -1.3586
  349MOL    H2049436   3.732   2.297   7.399  0.2116  0.3391  0.7710
  349MOL    H2149437   3.936   2.517   7.370  0.9360  1.3397 -4.0014
  349MOL    H2249438   3.895   2.299   7.218  1.6304  0.6315 -2.2984
  349MOL    C2349439   3.759   2.526   7.246 -0.8140 -0.6289 -0.4133
  349MOL    C2449440   3.820   2.599   7.119  0.1332 -0.1210  0.4362
  349MOL    O2549441   3.720   2.624   7.028 -0.0512 -0.4970  0.5322
  349MOL    H2649442   3.690   2.453   7.204 -2.1061 -0.6120  1.6061
  349MOL    H2749443   3.709   2.604   7.302  1.7890  1.1938 -0.5657
  349MOL    H2849444   3.886   2.524   7.076 -0.1903 -2.6276  4.0740
  349MOL    H2949445   3.648   2.667   7.072 -0.3365  0.5961 -0.9606
  349MOL    C3049446   3.898   2.724   7.153  0.4274 -0.0959  0.9378
  349MOL    C3149447   4.000   2.776   7.048  0.0418  0.5391 -0.0113
  349MOL    O3249448   3.933   2.797   6.923 -0.1590  0.4482 -0.3568
  349MOL    H3349449   3.824   2.799   7.183  1.5434  1.6913 -0.6654
  349MOL    H3449450   3.942   2.712   7.252  0.2837  3.0890  1.4627
  349MOL    H3549451   4.074   2.699   7.028  0.0439  1.1767 -2.6460
  349MOL    H3649452   3.848   2.755   6.925  0.1083 -0.0499  0.9982
  349MOL    C3749453   4.050   2.914   7.091  0.0007 -0.0113 -0.6549
  349MOL    C3849454   4.182   2.969   7.028 -0.2816  0.1786  0.0832
  349MOL    O3949455   4.161   2.994   6.894 -0.3241 -0.4641 -0.1875
  349MOL    H4049456   3.972   2.990   7.084 -1.3360 -1.3957 -1.0523
  349MOL    H4149457   4.053   2.913   7.200 -0.8913  2.2923 -0.5837
  349MOL    H4249458   4.254   2.888   7.036 -1.6757 -0.8593  3.0513
  349MOL    H4349459   4.096   2.934   6.861 -1.8399  1.9840 -1.7497
  349MOL    C4449460   4.231   3.100   7.093 -0.2734 -1.0898 -0.5553
  349MOL    C4549461   4.375   3.140   7.047  0.3682  0.1721 -0.5804
  349MOL    O4649462   4.372   3.194   6.919 -0.0880  0.1859 -0.6218
  349MOL    H4749463   4.172   3.189   7.071  0.0174 -1.3376 -2.4521
  349MOL    H4849464   4.229   3.081   7.200 -3.8046 -1.4893 -0.6230
  349MOL    H4949465   4.440   3.053   7.051 -0.2115 -0.2746 -0.8674
  349MOL    H5049466   4.321   3.130   6.872 -0.9756  1.6783 -1.7779
  349MOL    C5149467   4.432   3.247   7.141  0.0304  0.0593 -0.3131
  349MOL    C5249468   4.583   3.273   7.139 -0.4611 -0.0565 -0.1484
  349MOL    O5349469   4.598   3.391   7.224 -0.2626  0.2406  0.4667
  349MOL    H5449470   4.382   3.344   7.130 -0.3640  0.1556  2.1247
  349MOL    H5549471   4.403   3.212   7.240 -0.0128 -2.4629 -1.1810
  349MOL    H5649472   4.610   3.309   7.040 -2.9887  0.9648 -0.5038
  349MOL    H5749473   4.591   3.358   7.312 -0.6090  0.2519  0.4440
  349MOL    C5849474   4.678   3.163   7.188  0.1439  0.1916  0.9230
  349MOL    C5949475   4.787   3.144   7.083 -0.0175  0.2499  0.1415
  349MOL    O6049476   4.899   3.106   7.153 -0.3464  0.3779 -0.3147
  349MOL    H6149477   4.721   3.180   7.286  1.7453  0.5277  0.1770
  349MOL    H6249478   4.628   3.069   7.209  0.7073 -0.2550  0.3064
  349MOL    H6349479   4.812   3.234   7.028 -2.9416  1.1977  0.2525
  349MOL    H6449480   4.943   3.180   7.191  1.9540 -0.8258 -0.5454
  349MOL    C6549481   4.747   3.033   6.990 -0.1393 -0.1242 -0.0964
  349MOL    C6649482   4.847   3.013   6.877  0.4494 -0.5492  0.0819
  349MOL    O6749483   4.810   2.898   6.814  0.0653  0.5067  0.3634
  349MOL    H6849484   4.732   2.940   7.045  0.3384  0.6807  1.4358
  349MOL    H6949485   4.648   3.056   6.950  0.3787  1.4942 -0.4665
  349MOL    H7049486   4.949   3.004   6.915  0.3348  0.2254  0.5746
  349MOL    H7149487   4.862   2.831   6.855 -0.2310  0.3942  0.5492
  349MOL    C7249488   4.865   3.135   6.777 -0.1313  0.4597 -0.1290
  349MOL    C7349489   4.742   3.200   6.704  0.0563 -0.7742  0.0530
  349MOL    O7449490   4.809   3.299   6.630  0.0754 -0.3026 -0.5019
  349MOL    H7549491   4.908   3.215   6.838 -1.2190  1.6964 -0.9413
  349MOL    H7649492   4.939   3.114   6.700 -0.7442  2.1276 -1.1831
  349MOL    H7749493   4.672   3.234   6.781 -0.2381 -0.1615 -0.4874
  349MOL    H7849494   4.749   3.351   6.579 -0.1174 -2.2772 -2.3822
  349MOL    C7949495   4.653   3.114   6.608 -0.3595 -0.0546 -0.3106
  349MOL    C8049496   4.521   3.180   6.565  0.4595  0.1335  0.4288
  349MOL    O8149497   4.568   3.284   6.478 -0.1097  0.1036 -0.7072
  349MOL    H8249498   4.709   3.059   6.532  0.0133 -3.5434  2.3563
  349MOL    H8349499   4.612   3.037   6.673 -1.5279  2.2602  1.7825
  349MOL    H8449500   4.474   3.238   6.645 -0.1441  0.3395 -0.0679
  349MOL    H8549501   4.502   3.351   6.471 -1.6243 -1.3850 -1.0406
  349MOL    C8649502   4.408   3.098   6.496 -0.3831  0.4467  0.0385
  349MOL    C8749503   4.321   3.019   6.598 -0.3787 -0.3700  1.0173
  349MOL    O8849504   4.206   3.096   6.628  0.2277 -0.4109  0.4090
  349MOL    H8949505   4.355   3.165   6.429  2.5016  0.0511 -2.7871
  349MOL    H9049506   4.461   3.028   6.431  0.3922  1.3716 -0.3522
  349MOL    H9149507   4.387   3.011   6.684  1.3277  1.1143 -0.1271
  349MOL    H9249508   4.174   3.068   6.712 -0.8217 -1.2219 -0.2379
  349MOL    C9349509   4.282   2.880   6.550 -0.9565 -0.4247 -0.7989
  349MOL    C9449510   4.384   2.773   6.590 -0.5212  0.1928  0.1141
  349MOL    O9549511   4.351   2.728   6.719  0.4072 -0.4176 -0.0490
  349MOL    H9649512   4.180   2.854   6.580 -1.5131 -0.6509 -2.8588
  349MOL    H9749513   4.291   2.867   6.443  1.4426 -0.3839 -0.6234
  349MOL    H9849514   4.476   2.831   6.602 -0.8467  0.3454  2.1086
  349MOL    H9949515   4.262   2.695   6.714  0.3451 -0.3782  0.6658
  349MOL   C10049516   4.402   2.657   6.488  0.5792 -0.6856  0.4442
  349MOL   C10149517   4.509   2.546   6.511 -0.1554 -0.3633 -0.1256
  349MOL   O10249518   4.507   2.452   6.401 -0.4908  0.1600 -0.0250
  349MOL   H10349519   4.305   2.622   6.452  0.7434 -0.1023 -0.5742
  349MOL   H10449520   4.434   2.701   6.394  1.1580 -0.8394  0.5637
  349MOL   H10549521   4.480   2.486   6.597  2.3073 -0.2096  0.8745
  349MOL   H10649522   4.465   2.369   6.414  3.1144 -1.6553  0.4270
  349MOL   C10749523   4.656   2.599   6.533  0.4092  0.7363  0.1674
  349MOL   C10849524   4.740   2.510   6.627  0.3044  0.3372  0.1170
  349MOL   O10949525   4.880   2.527   6.604 -0.2327  0.0443  0.1224
  349MOL   H11049526   4.706   2.592   6.437 -0.7131  1.1117 -0.4514
  349MOL   H11149527   4.649   2.700   6.573 -0.0018  0.8366 -0.1538
  349MOL   H11249528   4.713   2.407   6.604  1.0474 -0.1189  1.2426
  349MOL   H11349529   4.915   2.508   6.690  0.5283  0.1956 -0.1438
  349MOL   C11449530   4.711   2.545   6.775  0.5559 -0.1122  0.3742
  349MOL   C11549531   4.753   2.450   6.886  0.0043  0.0313 -0.0431
  349MOL   O11649532   4.891   2.421   6.871  1.0377  0.3564 -0.2511
  349MOL   H11749533   4.747   2.645   6.799 -0.0336  0.2533 -0.2488
  349MOL   H11849534   4.604   2.555   6.794  0.8390 -2.2024  3.6423
  349MOL   H11949535   4.691   2.361   6.875 -3.7222  2.6619 -1.4271
  349MOL   H12049536   4.920   2.332   6.885 -1.4526 -0.3255  0.8697
  349MOL   C12149537   4.733   2.513   7.022  0.3704 -0.2459 -0.7114
  349MOL   C12249538   4.590   2.531   7.065 -0.0613 -0.2647  0.2074
  349MOL   O12349539   4.516   2.417   7.048  0.2736 -0.4529 -0.2314
  349MOL   H12449540   4.771   2.445   7.098 -0.6055 -2.2223 -1.9715
  349MOL   H12549541   4.783   2.610   7.019 -2.1760  1.1908  1.4091
  349MOL   H12649542   4.548   2.612   7.005  0.8007  0.5042  0.6212
  349MOL   H12749543   4.536   2.353   7.115  0.3820 -1.4607 -1.2192
  349MOL   C12849544   4.588   2.582   7.219  0.2900 -0.2568  0.0511
  349MOL   C12949545   4.627   2.729   7.250 -0.3977 -0.2395 -0.0941
  349MOL   O13049546   4.526   2.814   7.198 -0.0156  0.3364  0.4649
  349MOL   H13149547   4.484   2.570   7.251  0.3055 -1.4867 -0.3051
  349MOL   H13249548   4.647   2.521   7.287 -0.9853  0.5613  1.9224
  349MOL   H13349549   4.719   2.755   7.199  0.4625  0.1643  1.6200
  349MOL   H13449550   4.455   2.813   7.260 -0.4042 -0.9377  0.0217
  349MOL   C13549551   4.653   2.746   7.397 -0.2657 -0.4753 -0.6353
  349MOL   C13649552   4.701   2.886   7.431 -0.8362  0.5436 -0.0905
  349MOL   O13749553   4.751   2.884   0.042 -0.0886  0.0878 -0.0085
  349MOL   H13849554   4.572   2.712   7.461  0.1331 -0.3770 -0.0733
  349MOL   H13949555   4.750   2.704   7.423  0.7292 -0.2726 -3.7944
  349MOL   H14049556   4.621   2.960   7.432 -1.5796 -0.2557 -0.4675
  349MOL   H14149557   4.692   2.828   0.089 -1.7111  0.7294 -1.2246
  349MOL   H14249558   4.776   2.910   7.355 -0.6443  0.0691 -0.0505
  350MOL     C149559   0.398   0.162   3.117  0.0617  0.0990 -0.0127
  350MOL     C249560   0.490   0.280   3.067 -0.8460 -0.5921  0.1305
  350MOL     O349561   0.567   0.244   2.957  0.0622 -0.4649  0.4527
  350MOL     H449562   0.335   0.183   3.203  0.2829 -1.9866  0.6871
  350MOL     H549563   0.466   0.079   3.136  0.0761  0.0073 -0.4578
  350MOL     H649564   0.551   0.301   3.154 -1.7063  2.6068  0.0499
  350MOL     H749565   0.639   0.305   2.947  0.8866 -1.2785  1.3233
  350MOL     H849566   0.339   0.130   3.031  1.0204 -0.6082 -0.4240
  350MOL     C949567   0.410   0.403   3.035  0.1053  0.0764 -0.2387
  350MOL    C1049568   0.305   0.445   3.141  0.3281  0.3443 -1.0345
  350MOL    O1149569   0.361   0.483   3.266 -0.3239 -0.1966  0.1049
  350MOL    H1249570   0.479   0.484   3.010 -2.4886  1.5255 -2.9674
  350MOL    H1349571   0.362   0.370   2.943 -2.3545 -0.8269  1.3067
  350MOL    H1449572   0.232   0.367   3.163  0.7536  0.0666 -0.6041
  350MOL    H1549573   0.334   0.424   3.335 -0.2144 -1.6252 -1.0296
  350MOL    C1649574   0.239   0.575   3.092  0.2859 -0.5469 -0.3231
  350MOL    C1749575   0.134   0.550   2.978  0.4311  0.6138  0.2458
  350MOL    O1849576   0.036   0.464   3.032 -0.1150  0.0369 -0.2481
  350MOL    H1949577   0.187   0.619   3.177  0.3147  0.2355 -0.7122
  350MOL    H2049578   0.310   0.654   3.069 -0.3891 -0.1668 -1.1157
  350MOL    H2149579   0.177   0.517   2.883  0.1714 -0.9568  0.6611
  350MOL    H2249580   0.018   0.500   3.117  0.1833  0.2516 -0.2728
  350MOL    C2349581   0.063   0.686   2.930  0.2073  0.3251  0.3996
  350MOL    C2449582   7.483   0.661   2.810  0.0118 -0.7697 -0.4488
  350MOL    O2549583   7.395   0.771   2.786  0.2978 -0.6951 -0.4958
  350MOL    H2649584   0.009   0.717   3.019 -1.0095  1.5813 -0.7546
  350MOL    H2749585   0.134   0.766   2.908  1.7329 -1.3892 -1.0940
  350MOL    H2849586   7.440   0.561   2.814 -1.2815 -0.2298 -0.6998
  350MOL    H2949587   7.359   0.798   2.868  0.0118  3.1186 -1.8046
  350MOL    C3049588   0.058   0.662   2.673 -0.3905  1.0773  0.6309
  350MOL    C3149589   7.494   0.621   2.542 -0.2017 -0.4018 -0.2991
  350MOL    O3249590   0.072   0.602   2.440 -0.3296  0.2938  0.1894
  350MOL    H3349591   0.094   0.764   2.662 -0.9662  1.3380  1.0981
  350MOL    H3449592   0.148   0.602   2.680 -1.2055 -0.2525 -0.1260
  350MOL    H3549593   7.432   0.704   2.510 -0.6564 -0.7523 -0.3349
  350MOL    H3649594   0.117   0.684   2.427 -2.9218  1.5334 -1.4237
  350MOL    C3749595   7.398   0.498   2.566  0.0012  0.3476 -0.9078
  350MOL    C3849596   7.348   0.427   2.438  0.5630  0.5978 -0.1453
  350MOL    O3949597   7.474   0.368   2.395 -0.2832  0.1164 -0.0927
  350MOL    H4049598   7.452   0.429   2.631  0.4084  1.8294  0.3396
  350MOL    H4149599   7.308   0.534   2.617  0.2015  1.3569 -1.2650
  350MOL    H4249600   7.325   0.499   2.360 -0.5292 -0.7272 -1.0714
  350MOL    H4349601   0.022   0.434   2.405 -0.3641  0.6898 -2.8414
  350MOL    C4449602   7.231   0.322   2.458  0.3383 -0.1020  1.0022
  350MOL    C4549603   7.084   0.381   2.481  0.4089  0.3909 -0.4366
  350MOL    O4649604   7.058   0.496   2.402 -0.7817  0.2007  0.8465
  350MOL    H4749605   7.225   0.252   2.375  1.2506  1.9584 -0.8424
  350MOL    H4849606   7.250   0.273   2.553  0.2544 -2.8669 -0.3566
  350MOL    H4949607   7.082   0.409   2.586 -0.5767  0.6558 -0.5227
  350MOL    H5049608   7.056   0.572   2.458 -0.4510  0.1030  0.9887
  350MOL    C5149609   6.974   0.280   2.460  0.1158 -0.0928  0.0182
  350MOL    C5249610   6.839   0.302   2.535  0.3676 -0.0224 -0.0537
  350MOL    O5349611   6.761   0.204   2.476 -0.5086  0.1414  0.5651
  350MOL    H5449612   6.954   0.273   2.353 -1.0674 -1.4390  0.3136
  350MOL    H5549613   7.000   0.175   2.478 -2.0293 -0.7545 -0.6613
  350MOL    H5649614   6.794   0.392   2.494 -0.2713  0.3208  1.3566
  350MOL    H5749615   6.687   0.244   2.433  1.3409  2.5847 -0.4950
  350MOL    C5849616   6.841   0.282   2.690  0.8642  0.3502  0.4645
  350MOL    C5949617   6.708   0.308   2.758 -0.6709 -0.2129  0.2431
  350MOL    O6049618   6.714   0.266   2.894  0.4860 -0.3947  0.0264
  350MOL    H6149619   6.854   0.174   2.698 -0.2587  0.1574 -0.2502
  350MOL    H6249620   6.925   0.334   2.737  0.9720  0.8672 -0.3045
  350MOL    H6349621   6.633   0.253   2.701  2.4136 -2.1123 -2.1265
  350MOL    H6449622   6.624   0.268   2.923  0.3416  2.8102 -0.4621
  350MOL    C6549623   6.669   0.461   2.753 -0.3415  0.5796  0.5573
  350MOL    C6649624   6.558   0.498   2.655 -0.0671  0.3451 -0.1698
  350MOL    O6749625   6.445   0.425   2.694  0.3272 -0.0580  0.0994
  350MOL    H6849626   6.626   0.505   2.842 -2.2421 -1.6916  0.8034
  350MOL    H6949627   6.761   0.517   2.734 -0.2612 -0.5598 -2.8692
  350MOL    H7049628   6.590   0.459   2.558  2.3938 -2.1744  1.5830
  350MOL    H7149629   6.370   0.456   2.645 -0.7711  1.0640  2.4572
  350MOL    C7249630   6.538   0.652   2.667  0.0159  0.2881 -0.1458
  350MOL    C7349631   6.476   0.726   2.551  0.0886 -0.5368 -0.3052
  350MOL    O7449632   6.359   0.657   2.509  0.1181  0.4200  0.0927
  350MOL    H7549633   6.484   0.664   2.762  0.2689 -0.1004  0.0487
  350MOL    H7649634   6.636   0.695   2.688 -0.7568  2.7338 -1.3524
  350MOL    H7749635   6.549   0.729   2.470  0.6379  0.6333  0.2272
  350MOL    H7849636   6.295   0.720   2.479 -0.0486  0.6060  0.8208
  350MOL    C7949637   6.455   0.867   2.591  0.2746 -0.2557 -0.4862
  350MOL    C8049638   6.404   0.957   2.474 -1.5702  0.9838  0.4652
  350MOL    O8149639   6.274   0.906   2.434 -0.1135 -0.2845 -0.1130
  350MOL    H8249640   6.381   0.874   2.671 -2.2358 -2.0246 -2.5504
  350MOL    H8349641   6.553   0.907   2.617  0.1680  1.5246 -2.6986
  350MOL    H8449642   6.478   0.971   2.396 -1.8785 -2.0008 -0.4282
  350MOL    H8549643   6.250   0.932   2.346  1.7661 -0.3493 -0.6589
  350MOL    C8649644   6.372   1.101   2.534  0.4013  0.7438 -0.5188
  350MOL    C8749645   6.323   1.211   2.441  0.0327 -0.2736 -0.5581
  350MOL    O8849646   6.299   1.318   2.538 -0.4280  0.6667 -0.7262
  350MOL    H8949647   6.304   1.090   2.618 -0.2272  0.9754 -0.9959
  350MOL    H9049648   6.468   1.131   2.574  0.0242 -0.1479  1.0790
  350MOL    H9149649   6.225   1.183   2.401  0.1395 -0.7697 -0.4748
  350MOL    H9249650   6.285   1.271   2.618 -0.4657  0.2830 -0.9577
  350MOL    C9349651   6.431   1.258   2.333  0.6349 -0.4577  0.6380
  350MOL    C9449652   6.390   1.381   2.253  0.0817  0.5413 -0.7530
  350MOL    O9549653   6.356   1.476   2.345  0.3760  0.4535 -0.6218
  350MOL    H9649654   6.530   1.269   2.377  1.3437  0.9128 -1.2406
  350MOL    H9749655   6.454   1.176   2.266  2.6793  0.2090  0.4750
  350MOL    H9849656   6.305   1.361   2.188 -1.0551  1.2746  0.4814
  350MOL    H9949657   6.309   1.423   2.408 -0.2316  0.0087 -1.4203
  350MOL   C10049658   6.508   1.442   2.169 -0.1421 -0.5831  0.0689
  350MOL   C10149659   6.579   1.365   2.052 -0.3347 -0.3552  0.1236
  350MOL   O10249660   6.660   1.255   2.100 -0.1716  0.1067 -0.0191
  350MOL   H10349661   6.480   1.544   2.142  2.6329 -0.3889 -2.3818
  350MOL   H10449662   6.582   1.462   2.246  2.0481  1.2966 -2.4189
  350MOL   H10549663   6.645   1.446   2.021 -1.7205  1.2203  1.1751
  350MOL   H10649664   6.715   1.300   2.162 -0.1353 -0.4263  0.3384
  350MOL   C10749665   6.496   1.329   1.930 -0.3278 -0.4554  0.7855
  350MOL   C10849666   6.442   1.444   1.833  0.2002  1.0114 -0.3797
  350MOL   O10949667   6.551   1.529   1.803  0.7011 -0.1999  0.7772
  350MOL   H11049668   6.544   1.250   1.873  2.1517 -0.3343  2.6518
  350MOL   H11149669   6.414   1.265   1.964 -0.1162 -1.2098 -0.1043
  350MOL   H11249670   6.374   1.509   1.890  1.0377  0.8280  0.8490
  350MOL   H11349671   6.516   1.616   1.803 -1.6348 -1.0988  0.2280
  350MOL   C11449672   6.374   1.403   1.700  0.2943 -0.0246 -0.1430
  350MOL   C11549673   6.222   1.381   1.730  0.1889  0.2344 -0.2656
  350MOL   O11649674   6.153   1.433   1.614 -0.3596  0.1121  0.1657
  350MOL   H11749675   6.389   1.482   1.627 -1.1674  0.5687  0.1930
  350MOL   H11849676   6.415   1.320   1.641 -1.3200 -0.3551 -0.8200
  350MOL   H11949677   6.184   1.431   1.818 -1.5872 -1.0430 -0.2847
  350MOL   H12049678   6.168   1.526   1.616  1.3657 -0.1700  1.6600
  350MOL   C12149679   6.202   1.227   1.750 -0.4793 -0.3437 -0.5501
  350MOL   C12249680   6.072   1.186   1.813  0.3090 -0.3382 -0.1714
  350MOL   O12349681   6.069   1.046   1.798  0.0351  0.0379  0.5305
  350MOL   H12449682   6.198   1.184   1.650 -1.0555  0.3916 -0.8510
  350MOL   H12549683   6.282   1.173   1.800 -1.7840  0.0907  2.1038
  350MOL   H12649684   5.983   1.229   1.769 -0.3971 -3.0651 -1.5517
  350MOL   H12749685   6.019   1.021   1.874 -1.3136  0.7982 -0.0843
  350MOL   C12849686   6.053   1.216   1.968 -0.7075  0.8982  0.3593
  350MOL   C12949687   5.940   1.135   2.045 -0.2533 -0.8115 -0.1368
  350MOL   O13049688   5.963   0.997   2.037  0.6305 -0.4442  0.0680
  350MOL   H13149689   6.146   1.211   2.024 -1.0521  2.3137  1.0798
  350MOL   H13249690   6.026   1.320   1.987 -0.7773  0.7614  1.0241
  350MOL   H13349691   5.843   1.141   1.994  0.3385  1.1081 -1.0631
  350MOL   H13449692   5.880   0.953   2.052 -0.5076  1.0295 -1.6516
  350MOL   C13549693   5.917   1.164   2.185 -0.3742 -0.4509 -0.0805
  350MOL   C13649694   5.906   1.318   2.207 -0.4044 -0.8289  0.2987
  350MOL   O13749695   5.879   1.338   2.345 -0.3450  0.1526  0.7686
  350MOL   H13849696   5.823   1.116   2.214 -1.9035  1.5170 -1.5903
  350MOL   H13949697   5.996   1.117   2.243  1.2756  0.1839 -1.7665
  350MOL   H14049698   5.827   1.366   2.150 -0.0395  0.1358  0.5868
  350MOL   H14149699   5.823   1.275   2.387  0.0686  0.1769  1.3734
  350MOL   H14249700   6.003   1.362   2.186 -0.3243 -2.0177 -2.0532
  351MOL     C149701   4.313   0.134   4.437  0.0114 -0.0146  0.2582
  351MOL     C249702   4.287   0.072   4.304 -0.1569  0.0689 -0.2533
  351MOL     O349703   4.333   0.167   4.208 -0.1416  0.0243  0.3012
  351MOL     H449704   4.273   0.236   4.440  0.3363  0.1580 -1.0507
  351MOL     H549705   4.419   0.129   4.462  0.1384 -2.4651 -0.7005
  351MOL     H649706   4.179   0.059   4.295  0.0448 -1.6474 -0.2229
  351MOL     H749707   4.426   0.158   4.193  0.1205  0.4039  1.6389
  351MOL     H849708   4.263   0.082   4.519 -1.0064  0.2745 -0.1690
  351MOL     C949709   4.365   7.464   4.271 -0.2504 -0.3771  0.7127
  351MOL    C1049710   4.347   7.340   4.362  1.0874  0.1889  0.0615
  351MOL    O1149711   4.214   7.310   4.343  0.5142  0.1764 -0.4603
  351MOL    H1249712   4.357   7.442   4.165  2.0175  1.7605  0.0529
  351MOL    H1349713   4.470   7.492   4.280  0.3548 -1.5711 -2.2811
  351MOL    H1449714   4.363   7.366   4.466 -4.2919  2.1689  0.5225
  351MOL    H1549715   4.174   7.272   4.420 -0.6394  1.0948 -0.5933
  351MOL    C1649716   4.425   7.224   4.297  0.0870  0.3536  0.0187
  351MOL    C1749717   4.579   7.255   4.306 -0.4335  0.4410 -0.2312
  351MOL    O1849718   4.619   7.307   4.433 -0.0272  0.2579 -0.4260
  351MOL    H1949719   4.397   7.129   4.343  0.1473  0.4399  0.2300
  351MOL    H2049720   4.411   7.223   4.189 -1.4227 -2.6404  0.1774
  351MOL    H2149721   4.605   7.331   4.233 -0.5329 -1.7943 -2.6437
  351MOL    H2249722   4.667   7.385   4.410 -1.3701  1.2758  0.1420
  351MOL    C2349723   4.662   7.126   4.282  0.7384 -0.0231 -0.2197
  351MOL    C2449724   4.643   7.050   4.148  0.2915  0.4112 -0.8784
  351MOL    O2549725   4.695   7.124   4.042  0.3104  0.0221 -0.2855
  351MOL    H2649726   4.768   7.152   4.292  0.9900 -0.9614 -0.4345
  351MOL    H2749727   4.632   7.054   4.358  0.1398  1.1818  0.7082
  351MOL    H2849728   4.539   7.023   4.126  0.2296 -1.8362  1.8226
  351MOL    H2949729   4.675   7.070   3.967 -2.9670 -0.5103  0.9075
  351MOL    C3049730   4.719   6.920   4.139 -0.0358 -0.1679  0.2489
  351MOL    C3149731   4.667   6.821   4.025 -0.3123  0.0063 -0.1875
  351MOL    O3249732   4.687   6.869   3.896  0.4768  0.0660  0.3123
  351MOL    H3349733   4.827   6.936   4.132  0.0125 -0.0577  1.1296
  351MOL    H3449734   4.712   6.872   4.237 -0.4022 -0.0703  0.2703
  351MOL    H3549735   4.560   6.824   4.044 -0.2791 -1.3116  0.2030
  351MOL    H3649736   4.631   6.815   3.843 -1.3701  0.6536  1.5894
  351MOL    C3749737   4.714   6.678   4.046 -0.3904  0.2967  0.5897
  351MOL    C3849738   4.679   6.614   4.189 -0.4927  0.4082 -0.2089
  351MOL    O3949739   4.541   6.612   4.203  0.0781 -0.0933 -0.7938
  351MOL    H4049740   4.689   6.618   3.959 -0.4575 -0.1818  0.9348
  351MOL    H4149741   4.822   6.671   4.032 -0.4786  1.1262 -0.5867
  351MOL    H4249742   4.712   6.675   4.273  2.3033 -2.6422  1.0025
  351MOL    H4349743   4.502   6.561   4.134 -0.2887  0.7922 -1.2476
  351MOL    C4449744   4.746   6.478   4.205  0.3892  0.0357  0.2451
  351MOL    C4549745   4.833   6.455   4.335 -0.4050  0.3103  0.4305
  351MOL    O4649746   4.938   6.551   4.343  0.2598  0.2452 -0.0967
  351MOL    H4749747   4.679   6.396   4.179  0.3535 -0.2208  1.1275
  351MOL    H4849748   4.808   6.460   4.118  2.2859 -1.7584  1.9323
  351MOL    H4949749   4.871   6.353   4.331  0.7504  0.7875 -1.0450
  351MOL    H5049750   5.015   6.523   4.295 -1.0507  1.6574 -3.1702
  351MOL    C5149751   4.747   6.467   4.468 -0.2977 -0.7854 -0.2952
  351MOL    C5249752   4.632   6.366   4.483 -0.1102 -0.4598 -0.1984
  351MOL    O5349753   4.681   6.232   4.517 -0.1831  0.1818 -0.3388
  351MOL    H5449754   4.824   6.463   4.545 -0.7671 -0.3570  0.1974
  351MOL    H5549755   4.705   6.567   4.470  1.6781  0.0515  1.1059
  351MOL    H5649756   4.562   6.356   4.401 -0.2703  0.4910 -0.1913
  351MOL    H5749757   4.610   6.175   4.540  0.1193  0.3376  1.0006
  351MOL    C5849758   4.535   6.398   4.603 -0.1359  0.9275 -0.1704
  351MOL    C5949759   4.408   6.301   4.622 -0.0236  0.4878 -0.1233
  351MOL    O6049760   4.354   6.336   4.745  0.1096  0.2655  0.2071
  351MOL    H6149761   4.591   6.420   4.693  0.7829  0.9720 -0.7488
  351MOL    H6249762   4.486   6.495   4.593  1.9178  2.0638  0.7085
  351MOL    H6349763   4.438   6.197   4.630 -0.5407  0.2235 -1.5574
  351MOL    H6449764   4.431   6.330   4.800 -0.2470  0.8603  0.7758
  351MOL    C6549765   4.297   6.319   4.514 -0.1292  0.2173  0.3304
  351MOL    C6649766   4.171   6.245   4.537  0.0890 -0.2287 -0.1054
  351MOL    O6749767   4.096   6.316   4.631  1.0946  0.0570 -0.6813
  351MOL    H6849768   4.264   6.423   4.508  2.0970  0.9004 -0.5587
  351MOL    H6949769   4.351   6.292   4.423 -0.9666  0.1407 -0.1447
  351MOL    H7049770   4.187   6.146   4.579 -0.5642  0.7168  2.4795
  351MOL    H7149771   4.154   6.326   4.704  0.1502  1.2256 -0.0732
  351MOL    C7249772   4.077   6.232   4.410 -0.1078 -0.7144 -0.7056
  351MOL    C7349773   4.134   6.162   4.286 -0.1331 -0.0353 -0.6690
  351MOL    O7449774   4.054   6.050   4.266 -0.7395  0.3721  1.0893
  351MOL    H7549775   3.976   6.198   4.432 -0.4205  0.4840 -0.2436
  351MOL    H7649776   4.071   6.337   4.380 -0.0317 -1.1196 -2.1755
  351MOL    H7749777   4.238   6.133   4.300 -0.9836 -2.1117  1.6577
  351MOL    H7849778   4.074   5.996   4.341  0.2183  0.1702  0.6962
  351MOL    C7949779   4.119   6.242   4.151  0.1798  0.2512 -0.7815
  351MOL    C8049780   4.233   6.340   4.116 -0.1314  0.2559 -0.1316
  351MOL    O8149781   4.360   6.268   4.121 -0.0674  0.0382 -0.3528
  351MOL    H8249782   4.107   6.171   4.070 -1.2344 -1.0169  0.4821
  351MOL    H8349783   4.026   6.298   4.161 -0.2554 -0.8125  1.7595
  351MOL    H8449784   4.235   6.419   4.191  0.7367  1.3318 -1.2783
  351MOL    H8549785   4.426   6.328   4.090 -0.8234  2.4371  2.4125
  351MOL    C8649786   4.217   6.403   3.986  0.2100 -0.0635 -0.0132
  351MOL    C8749787   4.300   6.535   3.966 -0.2326 -0.3030  0.6842
  351MOL    O8849788   4.433   6.492   3.967 -0.6664 -0.9945 -0.2242
  351MOL    H8949789   4.238   6.334   3.904 -1.1440  0.7597 -1.0824
  351MOL    H9049790   4.111   6.425   3.979  0.3650  0.5836 -0.3880
  351MOL    H9149791   4.301   6.599   4.054 -1.9311  2.5249 -1.2685
  351MOL    H9249792   4.468   6.478   3.880  0.6405  0.8128 -0.0132
  351MOL    C9349793   4.269   6.621   3.841  0.0511 -0.4054  0.2581
  351MOL    C9449794   4.125   6.694   3.845 -0.5248 -0.3471  0.3042
  351MOL    O9549795   4.142   6.793   3.937 -0.1337  0.3641 -0.0649
  351MOL    H9649796   4.352   6.674   3.794 -0.2209  0.1631  0.4275
  351MOL    H9749797   4.272   6.555   3.755  0.5252  0.5254 -0.4418
  351MOL    H9849798   4.045   6.626   3.875  1.0966 -2.8624 -0.9352
  351MOL    H9949799   4.117   6.759   4.022 -1.2930 -0.7113 -0.8189
  351MOL   C10049800   4.099   6.765   3.715 -0.4840  0.0841  0.9544
  351MOL   C10149801   3.981   6.858   3.713 -0.1972 -0.7358 -0.4153
  351MOL   O10249802   3.997   6.943   3.608 -0.0764  0.6225 -0.2940
  351MOL   H10349803   4.190   6.816   3.684 -1.7383  0.8391 -1.5577
  351MOL   H10449804   4.090   6.689   3.638  1.0040  1.9573 -1.1244
  351MOL   H10549805   3.975   6.916   3.805  0.5502 -0.4483 -0.5450
  351MOL   H10649806   3.931   7.011   3.613  0.3510  0.9585  0.9877
  351MOL   C10749807   3.855   6.773   3.676  0.5526 -0.4409 -0.2788
  351MOL   C10849808   3.710   6.851   3.671 -0.1632  0.2806  0.4901
  351MOL   O10949809   3.613   6.752   3.638  0.4927  0.8434  0.8409
  351MOL   H11049810   3.878   6.728   3.580 -2.2004 -1.2239 -0.6213
  351MOL   H11149811   3.838   6.690   3.744  1.0643 -0.5229 -0.2538
  351MOL   H11249812   3.719   6.925   3.592 -1.1665  0.3374  0.4290
  351MOL   H11349813   3.633   6.721   3.551 -3.4957  2.1123 -0.6118
  351MOL   C11449814   3.679   6.918   3.802 -0.0417 -0.2440  0.1933
  351MOL   C11549815   3.560   7.016   3.785  0.1595 -0.4979  0.3937
  351MOL   O11649816   3.448   6.948   3.735  0.3063 -0.0472 -0.4278
  351MOL   H11749817   3.663   6.859   3.893 -1.9889  0.7207  0.5221
  351MOL   H11849818   3.763   6.978   3.837 -3.5082  4.3605  1.2114
  351MOL   H11949819   3.587   7.091   3.711 -0.9918 -0.2381  0.2284
  351MOL   H12049820   3.480   6.868   3.697 -0.9658 -0.6926 -0.1670
  351MOL   C12149821   3.519   7.090   3.912 -0.5869 -0.8323  0.1326
  351MOL   C12249822   3.617   7.197   3.951 -0.7446 -1.1367 -0.0322
  351MOL   O12349823   3.631   7.295   3.853 -0.1398  0.4157  0.3485
  351MOL   H12449824   3.426   7.142   3.887  0.9620  1.7445 -0.4751
  351MOL   H12549825   3.498   7.026   3.998 -0.3525  1.1996  1.7521
  351MOL   H12649826   3.710   7.148   3.979 -1.6827 -3.2165 -0.4524
  351MOL   H12749827   3.694   7.363   3.873 -1.6075  2.8985 -2.9696
  351MOL   C12849828   3.573   7.267   4.079 -0.6774  0.2483  0.8560
  351MOL   C12949829   3.672   7.366   4.151  0.2520 -0.5154 -0.4478
  351MOL   O13049830   3.661   7.490   4.075  0.4325  0.3354 -0.0747
  351MOL   H13149831   3.478   7.316   4.065  0.4971  2.2349 -0.3750
  351MOL   H13249832   3.543   7.197   4.158  2.9302 -0.4619  1.7195
  351MOL   H13349833   3.777   7.337   4.139  1.0222  1.7422  0.4297
  351MOL   H13449834   3.575   0.004   4.096  0.6840  0.9460 -0.0104
  351MOL   C13549835   3.628   7.378   4.296 -0.5354  0.1448 -0.2042
  351MOL   C13649836   3.692   7.496   4.372  0.0882 -0.4537  0.2401
  351MOL   O13749837   3.636   7.505   4.499 -0.4378  0.0273 -0.2931
  351MOL   H13849838   3.521   7.368   4.315  0.1662 -3.2897  2.4522
  351MOL   H13949839   3.657   7.286   4.347 -1.4065 -0.0628 -0.0646
  351MOL   H14049840   3.672   0.070   4.319  0.0729  0.0711  1.1645
  351MOL   H14149841   3.588   0.066   4.509  1.0691  0.9061  0.1077
  351MOL   H14249842   3.801   7.488   4.377 -0.1055 -1.8198  3.3891
  352MOL     C149843   6.517   1.395   0.280 -0.1902  0.1994  0.2878
  352MOL     C249844   6.403   1.492   0.313 -0.4770  0.0269 -0.7490
  352MOL     O349845   6.310   1.424   0.401 -0.3042 -0.0840  0.1059
  352MOL     H449846   6.487   1.298   0.239 -0.4618  0.1235  0.6686
  352MOL     H549847   6.580   1.391   0.368  0.1914  1.8973  0.1084
  352MOL     H649848   6.357   1.514   0.217 -2.3712  0.7917  0.3072
  352MOL     H749849   6.272   1.494   0.452  0.0001  0.1196  0.0580
  352MOL     H849850   6.580   1.431   0.198 -3.0714  1.3648 -1.4939
  352MOL     C949851   6.455   1.629   0.366 -0.0324 -0.0364  0.4200
  352MOL    C1049852   6.514   1.628   0.508 -0.3324 -0.8825 -0.6176
  352MOL    O1149853   6.655   1.667   0.488 -0.0111 -0.5305  0.0385
  352MOL    H1249854   6.520   1.673   0.291  0.0193  1.4382  1.3080
  352MOL    H1349855   6.372   1.700   0.367  0.0627  0.0888 -0.1280
  352MOL    H1449856   6.524   1.526   0.544  0.4224 -0.5433  0.1418
  352MOL    H1549857   6.697   1.657   0.572 -0.8048 -0.9912  0.3834
  352MOL    C1649858   6.447   1.720   0.615 -1.0634 -0.0718  0.3685
  352MOL    C1749859   6.319   1.659   0.683  0.2345 -0.3406 -0.8206
  352MOL    O1849860   6.216   1.630   0.590  0.2218 -0.0606  0.0385
  352MOL    H1949861   6.525   1.762   0.679  0.0214 -1.5711  0.0656
  352MOL    H2049862   6.412   1.808   0.562 -0.1727 -0.4656 -0.8938
  352MOL    H2149863   6.276   1.743   0.738 -0.4356  0.2523 -2.1995
  352MOL    H2249864   6.184   1.709   0.549 -1.2602 -0.4482  0.4183
  352MOL    C2349865   6.328   1.551   0.781  0.4925  1.3712 -0.2177
  352MOL    C2449866   6.429   1.573   0.897 -0.7726 -0.5811 -0.1032
  352MOL    O2549867   6.376   1.674   0.983 -0.1182 -0.7471 -0.3956
  352MOL    H2649868   6.236   1.522   0.831  0.8392  2.4268  1.0754
  352MOL    H2749869   6.349   1.458   0.728 -3.0177  0.4564 -0.0803
  352MOL    H2849870   6.529   1.606   0.870 -0.7631 -1.0504 -0.6459
  352MOL    H2949871   6.440   1.680   1.053 -1.9175  2.2967  1.0874
  352MOL    C3049872   6.447   1.440   0.976 -0.0651  0.2165 -0.1920
  352MOL    C3149873   6.507   1.318   0.921 -0.0900 -0.6201  0.5999
  352MOL    O3249874   6.627   1.360   0.859 -0.5639 -0.3289  0.5115
  352MOL    H3349875   6.519   1.469   1.053 -2.0903  0.9331  1.5086
  352MOL    H3449876   6.357   1.414   1.031  0.3778  0.6054  0.7319
  352MOL    H3549877   6.440   1.283   0.842 -1.5375 -0.7868  1.8700
  352MOL    H3649878   6.665   1.285   0.817 -0.9484 -0.1605 -0.1397
  352MOL    C3749879   6.540   1.202   1.027 -0.2157 -0.0138  0.7214
  352MOL    C3849880   6.425   1.107   1.053 -0.4667 -0.3817 -0.0147
  352MOL    O3949881   6.309   1.175   1.104  0.0232 -0.3560  0.0316
  352MOL    H4049882   6.618   1.134   0.993  0.7483  0.1446  2.5609
  352MOL    H4149883   6.579   1.248   1.117  0.1406  2.6803 -0.7663
  352MOL    H4249884   6.452   1.028   1.124 -0.7349 -2.4659 -2.1899
  352MOL    H4349885   6.318   1.192   1.197  1.4234 -2.3731  0.2920
  352MOL    C4449886   6.392   1.025   0.934  0.1434 -0.6785  0.3008
  352MOL    C4549887   6.302   0.898   0.961  0.6017 -0.4422 -0.2457
  352MOL    O4649888   6.242   0.863   0.836  0.4054 -0.3734  0.2520
  352MOL    H4749889   6.344   1.090   0.860  1.6131  0.8215  0.6480
  352MOL    H4849890   6.475   0.999   0.869  0.9900 -0.9933  1.5049
  352MOL    H4949891   6.222   0.941   1.022  0.1238 -1.6409 -0.0124
  352MOL    H5049892   6.159   0.833   0.871 -0.5718 -0.5898 -2.1012
  352MOL    C5149893   6.373   0.779   1.034  0.1934 -0.6053  0.5655
  352MOL    C5249894   6.279   0.669   1.093  0.0787  1.3393  0.2618
  352MOL    O5349895   6.358   0.563   1.133  0.1985  0.1064  0.1781
  352MOL    H5449896   6.424   0.718   0.960 -2.8443  1.1296 -3.1525
  352MOL    H5549897   6.442   0.823   1.106  0.5422 -1.2990  0.6606
  352MOL    H5649898   6.202   0.635   1.024  1.3812 -1.5952  0.2051
  352MOL    H5749899   6.440   0.601   1.163  1.5221 -1.7923 -0.9296
  352MOL    C5849900   6.206   0.732   1.212  0.5418  0.1249  0.4231
  352MOL    C5949901   6.099   0.645   1.289  0.6752  0.2977  0.0515
  352MOL    O6049902   6.059   0.739   1.379  0.0465 -0.7632  0.3135
  352MOL    H6149903   6.289   0.758   1.278 -0.5655 -0.3959  2.0589
  352MOL    H6249904   6.156   0.825   1.184 -2.0325 -0.5205  2.6777
  352MOL    H6349905   6.143   0.566   1.350  1.6274  0.7947  0.0256
  352MOL    H6449906   6.132   0.766   1.433  1.4337 -0.3290 -1.7239
  352MOL    C6549907   5.983   0.608   1.192 -0.6094 -0.6466 -0.5987
  352MOL    C6649908   5.972   0.448   1.174 -0.2799  0.1562  0.0720
  352MOL    O6749909   5.877   0.436   1.070 -0.0846 -0.5517  0.2107
  352MOL    H6849910   5.887   0.649   1.224 -0.2764  0.6665 -1.2808
  352MOL    H6949911   6.006   0.664   1.101 -1.1870 -1.2320 -1.1166
  352MOL    H7049912   5.928   0.407   1.264 -0.3268  0.2497  0.0917
  352MOL    H7149913   5.801   0.390   1.101 -1.7010  0.8673 -1.4876
  352MOL    C7249914   6.096   0.371   1.119 -0.5671 -0.3029 -0.0136
  352MOL    C7349915   6.083   0.216   1.100  0.3114 -0.0281  0.0001
  352MOL    O7449916   6.208   0.152   1.052  0.2507  0.5137 -0.6371
  352MOL    H7549917   6.144   0.423   1.036 -0.0561 -0.0702  0.4235
  352MOL    H7649918   6.181   0.375   1.188  0.4165 -3.2545 -0.9450
  352MOL    H7749919   6.001   0.194   1.032 -0.2677 -0.6502  0.8839
  352MOL    H7849920   6.282   0.178   1.105  0.9210 -1.4506 -0.5616
  352MOL    C7949921   6.039   0.140   1.233  0.0732  0.3389 -0.4624
  352MOL    C8049922   6.028   7.508   1.237  0.3848  1.3793 -0.4646
  352MOL    O8149923   5.985   7.461   1.359  0.7084  0.0019  0.4694
  352MOL    H8249924   6.097   0.164   1.322 -0.7646  2.3972 -0.4594
  352MOL    H8349925   5.941   0.179   1.258  1.1600  2.7498  0.2300
  352MOL    H8449926   6.125   7.457   1.234  1.4081  2.9574  2.7850
  352MOL    H8549927   5.993   7.367   1.365 -0.2285 -0.2281 -1.2906
  352MOL    C8649928   5.940   7.446   1.127  0.4276  0.6565  0.5783
  352MOL    C8749929   5.899   7.298   1.141 -0.5937 -0.0861 -0.0385
  352MOL    O8849930   5.808   7.264   1.032 -0.2169 -0.5717 -0.3756
  352MOL    H8949931   5.853   7.511   1.113 -0.6224 -0.7233  0.5639
  352MOL    H9049932   5.988   7.458   1.031  0.5360  1.9801  0.7935
  352MOL    H9149933   5.851   7.271   1.235  1.2498 -0.2202  0.9004
  352MOL    H9249934   5.824   7.323   0.960 -1.8913 -0.7541 -0.9195
  352MOL    C9349935   6.020   7.203   1.114  0.8957 -0.0965  0.7362
  352MOL    C9449936   6.043   7.086   1.216  0.7746 -0.2503  0.3324
  352MOL    O9549937   6.078   7.147   1.341 -0.0105  0.4884 -0.1693
  352MOL    H9649938   6.033   7.167   1.012  2.1189  2.4654 -0.0632
  352MOL    H9749939   6.113   7.260   1.125 -0.7259  2.9535 -0.6912
  352MOL    H9849940   6.128   7.022   1.192  2.2642  1.5345  0.7050
  352MOL    H9949941   6.122   7.084   1.395 -0.2888  0.4582  0.0238
  352MOL   C10049942   5.923   6.988   1.229 -0.1444 -0.1038 -0.4020
  352MOL   C10149943   5.904   6.878   1.118 -0.5839 -0.3898 -0.0127
  352MOL   O10249944   5.805   6.788   1.176  0.0250 -0.0618  0.2658
  352MOL   H10349945   5.924   6.935   1.324  0.6175  1.3254  0.3884
  352MOL   H10449946   5.835   7.052   1.229  0.2218  0.4129  0.8553
  352MOL   H10549947   5.994   6.818   1.112 -1.0654 -1.0102 -1.1584
  352MOL   H10649948   5.738   6.842   1.215  0.1578  0.6049 -0.4055
  352MOL   C10749949   5.857   6.918   0.979  0.3339  0.0057  0.5928
  352MOL   C10849950   5.799   6.805   0.883 -0.0844  0.2844 -0.8002
  352MOL   O10949951   5.708   6.869   0.784  0.2249 -0.4093  0.0413
  352MOL   H11049952   5.782   6.996   0.983  1.5938  1.2495  0.1623
  352MOL   H11149953   5.936   6.972   0.928  0.6506  0.3772  1.4631
  352MOL   H11249954   5.754   6.719   0.931 -0.8437  0.5881 -0.9571
  352MOL   H11349955   5.683   6.809   0.716 -0.6974 -1.4551  1.2647
  352MOL   C11449956   5.912   6.744   0.803 -0.7845 -0.2756  0.1688
  352MOL   C11549957   5.998   6.638   0.874  0.3027  0.4110 -0.3008
  352MOL   O11649958   5.956   6.509   0.852  0.5028  0.0074  0.1254
  352MOL   H11749959   5.858   6.696   0.722 -1.2615 -1.1934  1.0104
  352MOL   H11849960   5.976   6.817   0.753 -0.4003 -1.1793 -0.6783
  352MOL   H11949961   5.993   6.649   0.982 -1.4116  2.0082 -0.5310
  352MOL   H12049962   6.003   6.456   0.915  1.4720 -0.4231 -0.9333
  352MOL   C12149963   6.145   6.645   0.834 -0.0531 -0.0936 -0.5400
  352MOL   C12249964   6.219   6.770   0.871  0.0492 -0.6282 -0.2658
  352MOL   O12349965   6.241   6.766   1.010  0.0340 -0.1810 -0.0436
  352MOL   H12449966   6.199   6.555   0.861 -2.3052 -1.4312 -0.3249
  352MOL   H12549967   6.146   6.637   0.725  0.2653 -3.0244 -0.3460
  352MOL   H12649968   6.154   6.854   0.844 -0.9735 -1.9805 -2.1642
  352MOL   H12749969   6.279   6.849   1.037 -0.8998  0.0268  0.6315
  352MOL   C12849970   6.355   6.788   0.796  0.2540 -0.3053 -0.6942
  352MOL   C12949971   6.367   6.909   0.698 -0.3411 -0.0214 -0.1198
  352MOL   O13049972   6.506   6.914   0.662 -0.2428  0.0693 -0.3089
  352MOL   H13149973   6.441   6.786   0.863 -0.1979 -0.7277 -0.1211
  352MOL   H13249974   6.378   6.702   0.735  1.0056  0.2111 -1.1449
  352MOL   H13349975   6.345   7.005   0.743  2.2211  0.3658  0.4147
  352MOL   H13449976   6.553   6.966   0.724 -0.7665 -1.2531  1.2268
  352MOL   C13549977   6.279   6.889   0.570 -0.1074  0.2988 -0.7040
  352MOL   C13649978   6.274   7.017   0.479 -0.0450 -0.0098  0.3421
  352MOL   O13749979   6.158   7.018   0.391 -0.0525 -0.3940  0.4233
  352MOL   H13849980   6.324   6.804   0.519  0.0753  0.6251 -1.0871
  352MOL   H13949981   6.179   6.853   0.594  0.0989 -1.7582 -2.8148
  352MOL   H14049982   6.363   7.034   0.418 -0.0522  1.7526  0.7798
  352MOL   H14149983   6.132   6.928   0.395  2.5789 -1.2539 -1.0666
  352MOL   H14249984   6.272   7.109   0.537  0.5508  1.0340 -1.2344
   7.51943   7.51943   7.51943
