;
; Gromacs include topology (itp) file.
; For Molecular Group XYZ
; Force field scheme: opls2005
; Produced from DL_FIELD v4.11
;


[ moleculetype ]
; name    nrexcl
XYZ    3

[ atoms ]
; nr   type   resnr   residu    atom    cgnr    charge    mass
    1        CT    1  MOL      C1     1  -0.1800000   12.0115
    2        CT    1  MOL      C2     2   0.2050000   12.0115
    3       OAL    1  MOL      O3     3  -0.6830000   15.9994
    4        HC    1  MOL      H4     4   0.0600000    1.0080
    5        HC    1  MOL      H5     5   0.0600000    1.0080
    6        HC    1  MOL      H6     6   0.0600000    1.0080
    7        HO    1  MOL      H7     7   0.4180000    1.0080
    8        HC    1  MOL      H8     8   0.0600000    1.0080
    9        CT    1  MOL      C9     9  -0.1200000   12.0115
   10        CT    1  MOL     C10    10   0.2050000   12.0115
   11       OAL    1  MOL     O11    11  -0.6830000   15.9994
   12        HC    1  MOL     H12    12   0.0600000    1.0080
   13        HC    1  MOL     H13    13   0.0600000    1.0080
   14        HC    1  MOL     H14    14   0.0600000    1.0080
   15        HO    1  MOL     H15    15   0.4180000    1.0080
   16        CT    1  MOL     C16    16  -0.1200000   12.0115
   17        CT    1  MOL     C17    17   0.2050000   12.0115
   18       OAL    1  MOL     O18    18  -0.6830000   15.9994
   19        HC    1  MOL     H19    19   0.0600000    1.0080
   20        HC    1  MOL     H20    20   0.0600000    1.0080
   21        HC    1  MOL     H21    21   0.0600000    1.0080
   22        HO    1  MOL     H22    22   0.4180000    1.0080
   23        CT    1  MOL     C23    23  -0.1200000   12.0115
   24        CT    1  MOL     C24    24   0.2050000   12.0115
   25       OAL    1  MOL     O25    25  -0.6830000   15.9994
   26        HC    1  MOL     H26    26   0.0600000    1.0080
   27        HC    1  MOL     H27    27   0.0600000    1.0080
   28        HC    1  MOL     H28    28   0.0600000    1.0080
   29        HO    1  MOL     H29    29   0.4180000    1.0080
   30        CT    1  MOL     C30    30  -0.1200000   12.0115
   31        CT    1  MOL     C31    31   0.2050000   12.0115
   32       OAL    1  MOL     O32    32  -0.6830000   15.9994
   33        HC    1  MOL     H33    33   0.0600000    1.0080
   34        HC    1  MOL     H34    34   0.0600000    1.0080
   35        HC    1  MOL     H35    35   0.0600000    1.0080
   36        HO    1  MOL     H36    36   0.4180000    1.0080
   37        CT    1  MOL     C37    37  -0.1200000   12.0115
   38        CT    1  MOL     C38    38   0.2050000   12.0115
   39       OAL    1  MOL     O39    39  -0.6830000   15.9994
   40        HC    1  MOL     H40    40   0.0600000    1.0080
   41        HC    1  MOL     H41    41   0.0600000    1.0080
   42        HC    1  MOL     H42    42   0.0600000    1.0080
   43        HO    1  MOL     H43    43   0.4180000    1.0080
   44        CT    1  MOL     C44    44  -0.1200000   12.0115
   45        CT    1  MOL     C45    45   0.2050000   12.0115
   46       OAL    1  MOL     O46    46  -0.6830000   15.9994
   47        HC    1  MOL     H47    47   0.0600000    1.0080
   48        HC    1  MOL     H48    48   0.0600000    1.0080
   49        HC    1  MOL     H49    49   0.0600000    1.0080
   50        HO    1  MOL     H50    50   0.4180000    1.0080
   51        CT    1  MOL     C51    51  -0.1200000   12.0115
   52        CT    1  MOL     C52    52   0.2050000   12.0115
   53       OAL    1  MOL     O53    53  -0.6830000   15.9994
   54        HC    1  MOL     H54    54   0.0600000    1.0080
   55        HC    1  MOL     H55    55   0.0600000    1.0080
   56        HC    1  MOL     H56    56   0.0600000    1.0080
   57        HO    1  MOL     H57    57   0.4180000    1.0080
   58        CT    1  MOL     C58    58  -0.1200000   12.0115
   59        CT    1  MOL     C59    59   0.2050000   12.0115
   60       OAL    1  MOL     O60    60  -0.6830000   15.9994
   61        HC    1  MOL     H61    61   0.0600000    1.0080
   62        HC    1  MOL     H62    62   0.0600000    1.0080
   63        HC    1  MOL     H63    63   0.0600000    1.0080
   64        HO    1  MOL     H64    64   0.4180000    1.0080
   65        CT    1  MOL     C65    65  -0.1200000   12.0115
   66        CT    1  MOL     C66    66   0.2050000   12.0115
   67       OAL    1  MOL     O67    67  -0.6830000   15.9994
   68        HC    1  MOL     H68    68   0.0600000    1.0080
   69        HC    1  MOL     H69    69   0.0600000    1.0080
   70        HC    1  MOL     H70    70   0.0600000    1.0080
   71        HO    1  MOL     H71    71   0.4180000    1.0080
   72        CT    1  MOL     C72    72  -0.1200000   12.0115
   73        CT    1  MOL     C73    73   0.2050000   12.0115
   74       OAL    1  MOL     O74    74  -0.6830000   15.9994
   75        HC    1  MOL     H75    75   0.0600000    1.0080
   76        HC    1  MOL     H76    76   0.0600000    1.0080
   77        HC    1  MOL     H77    77   0.0600000    1.0080
   78        HO    1  MOL     H78    78   0.4180000    1.0080
   79        CT    1  MOL     C79    79  -0.1200000   12.0115
   80        CT    1  MOL     C80    80   0.2050000   12.0115
   81       OAL    1  MOL     O81    81  -0.6830000   15.9994
   82        HC    1  MOL     H82    82   0.0600000    1.0080
   83        HC    1  MOL     H83    83   0.0600000    1.0080
   84        HC    1  MOL     H84    84   0.0600000    1.0080
   85        HO    1  MOL     H85    85   0.4180000    1.0080
   86        CT    1  MOL     C86    86  -0.1200000   12.0115
   87        CT    1  MOL     C87    87   0.2050000   12.0115
   88       OAL    1  MOL     O88    88  -0.6830000   15.9994
   89        HC    1  MOL     H89    89   0.0600000    1.0080
   90        HC    1  MOL     H90    90   0.0600000    1.0080
   91        HC    1  MOL     H91    91   0.0600000    1.0080
   92        HO    1  MOL     H92    92   0.4180000    1.0080
   93        CT    1  MOL     C93    93  -0.1200000   12.0115
   94        CT    1  MOL     C94    94   0.2050000   12.0115
   95       OAL    1  MOL     O95    95  -0.6830000   15.9994
   96        HC    1  MOL     H96    96   0.0600000    1.0080
   97        HC    1  MOL     H97    97   0.0600000    1.0080
   98        HC    1  MOL     H98    98   0.0600000    1.0080
   99        HO    1  MOL     H99    99   0.4180000    1.0080
  100        CT    1  MOL    C100   100  -0.1200000   12.0115
  101        CT    1  MOL    C101   101   0.2050000   12.0115
  102       OAL    1  MOL    O102   102  -0.6830000   15.9994
  103        HC    1  MOL    H103   103   0.0600000    1.0080
  104        HC    1  MOL    H104   104   0.0600000    1.0080
  105        HC    1  MOL    H105   105   0.0600000    1.0080
  106        HO    1  MOL    H106   106   0.4180000    1.0080
  107        CT    1  MOL    C107   107  -0.1200000   12.0115
  108        CT    1  MOL    C108   108   0.2050000   12.0115
  109       OAL    1  MOL    O109   109  -0.6830000   15.9994
  110        HC    1  MOL    H110   110   0.0600000    1.0080
  111        HC    1  MOL    H111   111   0.0600000    1.0080
  112        HC    1  MOL    H112   112   0.0600000    1.0080
  113        HO    1  MOL    H113   113   0.4180000    1.0080
  114        CT    1  MOL    C114   114  -0.1200000   12.0115
  115        CT    1  MOL    C115   115   0.2050000   12.0115
  116       OAL    1  MOL    O116   116  -0.6830000   15.9994
  117        HC    1  MOL    H117   117   0.0600000    1.0080
  118        HC    1  MOL    H118   118   0.0600000    1.0080
  119        HC    1  MOL    H119   119   0.0600000    1.0080
  120        HO    1  MOL    H120   120   0.4180000    1.0080
  121        CT    1  MOL    C121   121  -0.1200000   12.0115
  122        CT    1  MOL    C122   122   0.2050000   12.0115
  123       OAL    1  MOL    O123   123  -0.6830000   15.9994
  124        HC    1  MOL    H124   124   0.0600000    1.0080
  125        HC    1  MOL    H125   125   0.0600000    1.0080
  126        HC    1  MOL    H126   126   0.0600000    1.0080
  127        HO    1  MOL    H127   127   0.4180000    1.0080
  128        CT    1  MOL    C128   128  -0.1200000   12.0115
  129        CT    1  MOL    C129   129   0.2050000   12.0115
  130       OAL    1  MOL    O130   130  -0.6830000   15.9994
  131        HC    1  MOL    H131   131   0.0600000    1.0080
  132        HC    1  MOL    H132   132   0.0600000    1.0080
  133        HC    1  MOL    H133   133   0.0600000    1.0080
  134        HO    1  MOL    H134   134   0.4180000    1.0080
  135        CT    1  MOL    C135   135  -0.1200000   12.0115
  136        CT    1  MOL    C136   136   0.1450000   12.0115
  137       OAL    1  MOL    O137   137  -0.6830000   15.9994
  138        HC    1  MOL    H138   138   0.0600000    1.0080
  139        HC    1  MOL    H139   139   0.0600000    1.0080
  140        HC    1  MOL    H140   140   0.0600000    1.0080
  141        HO    1  MOL    H141   141   0.4180000    1.0080
  142        HC    1  MOL    H142   142   0.0600000    1.0080

[ bonds ]
      1      2   1      0.1529 224262.4000
      1      4   1      0.1090 284512.0000
      1      5   1      0.1090 284512.0000
      1      8   1      0.1090 284512.0000
      2      3   1      0.1410 267776.0000
      2      6   1      0.1090 284512.0000
      2      9   1      0.1529 224262.4000
      3      7   1      0.0945 462750.4000
      9     10   1      0.1529 224262.4000
      9     12   1      0.1090 284512.0000
      9     13   1      0.1090 284512.0000
     10     11   1      0.1410 267776.0000
     10     14   1      0.1090 284512.0000
     10     16   1      0.1529 224262.4000
     11     15   1      0.0945 462750.4000
     16     17   1      0.1529 224262.4000
     16     19   1      0.1090 284512.0000
     16     20   1      0.1090 284512.0000
     17     18   1      0.1410 267776.0000
     17     21   1      0.1090 284512.0000
     17     23   1      0.1529 224262.4000
     18     22   1      0.0945 462750.4000
     23     24   1      0.1529 224262.4000
     23     26   1      0.1090 284512.0000
     23     27   1      0.1090 284512.0000
     24     25   1      0.1410 267776.0000
     24     28   1      0.1090 284512.0000
     24     30   1      0.1529 224262.4000
     25     29   1      0.0945 462750.4000
     30     31   1      0.1529 224262.4000
     30     33   1      0.1090 284512.0000
     30     34   1      0.1090 284512.0000
     31     32   1      0.1410 267776.0000
     31     35   1      0.1090 284512.0000
     31     37   1      0.1529 224262.4000
     32     36   1      0.0945 462750.4000
     37     38   1      0.1529 224262.4000
     37     40   1      0.1090 284512.0000
     37     41   1      0.1090 284512.0000
     38     39   1      0.1410 267776.0000
     38     42   1      0.1090 284512.0000
     38     44   1      0.1529 224262.4000
     39     43   1      0.0945 462750.4000
     44     45   1      0.1529 224262.4000
     44     47   1      0.1090 284512.0000
     44     48   1      0.1090 284512.0000
     45     46   1      0.1410 267776.0000
     45     49   1      0.1090 284512.0000
     45     51   1      0.1529 224262.4000
     46     50   1      0.0945 462750.4000
     51     52   1      0.1529 224262.4000
     51     54   1      0.1090 284512.0000
     51     55   1      0.1090 284512.0000
     52     53   1      0.1410 267776.0000
     52     56   1      0.1090 284512.0000
     52     58   1      0.1529 224262.4000
     53     57   1      0.0945 462750.4000
     58     59   1      0.1529 224262.4000
     58     61   1      0.1090 284512.0000
     58     62   1      0.1090 284512.0000
     59     60   1      0.1410 267776.0000
     59     63   1      0.1090 284512.0000
     59     65   1      0.1529 224262.4000
     60     64   1      0.0945 462750.4000
     65     66   1      0.1529 224262.4000
     65     68   1      0.1090 284512.0000
     65     69   1      0.1090 284512.0000
     66     67   1      0.1410 267776.0000
     66     70   1      0.1090 284512.0000
     66     72   1      0.1529 224262.4000
     67     71   1      0.0945 462750.4000
     72     73   1      0.1529 224262.4000
     72     75   1      0.1090 284512.0000
     72     76   1      0.1090 284512.0000
     73     74   1      0.1410 267776.0000
     73     77   1      0.1090 284512.0000
     73     79   1      0.1529 224262.4000
     74     78   1      0.0945 462750.4000
     79     80   1      0.1529 224262.4000
     79     82   1      0.1090 284512.0000
     79     83   1      0.1090 284512.0000
     80     81   1      0.1410 267776.0000
     80     84   1      0.1090 284512.0000
     80     86   1      0.1529 224262.4000
     81     85   1      0.0945 462750.4000
     86     87   1      0.1529 224262.4000
     86     89   1      0.1090 284512.0000
     86     90   1      0.1090 284512.0000
     87     88   1      0.1410 267776.0000
     87     91   1      0.1090 284512.0000
     87     93   1      0.1529 224262.4000
     88     92   1      0.0945 462750.4000
     93     94   1      0.1529 224262.4000
     93     96   1      0.1090 284512.0000
     93     97   1      0.1090 284512.0000
     94     95   1      0.1410 267776.0000
     94     98   1      0.1090 284512.0000
     94    100   1      0.1529 224262.4000
     95     99   1      0.0945 462750.4000
    100    101   1      0.1529 224262.4000
    100    103   1      0.1090 284512.0000
    100    104   1      0.1090 284512.0000
    101    102   1      0.1410 267776.0000
    101    105   1      0.1090 284512.0000
    101    107   1      0.1529 224262.4000
    102    106   1      0.0945 462750.4000
    107    108   1      0.1529 224262.4000
    107    110   1      0.1090 284512.0000
    107    111   1      0.1090 284512.0000
    108    109   1      0.1410 267776.0000
    108    112   1      0.1090 284512.0000
    108    114   1      0.1529 224262.4000
    109    113   1      0.0945 462750.4000
    114    115   1      0.1529 224262.4000
    114    117   1      0.1090 284512.0000
    114    118   1      0.1090 284512.0000
    115    116   1      0.1410 267776.0000
    115    119   1      0.1090 284512.0000
    115    121   1      0.1529 224262.4000
    116    120   1      0.0945 462750.4000
    121    122   1      0.1529 224262.4000
    121    124   1      0.1090 284512.0000
    121    125   1      0.1090 284512.0000
    122    123   1      0.1410 267776.0000
    122    126   1      0.1090 284512.0000
    122    128   1      0.1529 224262.4000
    123    127   1      0.0945 462750.4000
    128    129   1      0.1529 224262.4000
    128    131   1      0.1090 284512.0000
    128    132   1      0.1090 284512.0000
    129    130   1      0.1410 267776.0000
    129    133   1      0.1090 284512.0000
    129    135   1      0.1529 224262.4000
    130    134   1      0.0945 462750.4000
    135    136   1      0.1529 224262.4000
    135    138   1      0.1090 284512.0000
    135    139   1      0.1090 284512.0000
    136    137   1      0.1410 267776.0000
    136    140   1      0.1090 284512.0000
    136    142   1      0.1090 284512.0000
    137    141   1      0.0945 462750.4000

[ pairs ]
; ai   aj   funct   fudge_QQ  charge_i   charge_j   c6    c12
      4      3   2   0.50000     0.0600000   -0.6830000   2.835898e-04  1.345781e-07
      4      6   2   0.50000     0.0600000    0.0600000   6.128906e-05  1.496315e-08
      4      9   2   0.50000     0.0600000   -0.1200000   2.494471e-04  1.671101e-07
      5      3   2   0.50000     0.0600000   -0.6830000   2.835898e-04  1.345781e-07
      5      6   2   0.50000     0.0600000    0.0600000   6.128906e-05  1.496315e-08
      5      9   2   0.50000     0.0600000   -0.1200000   2.494471e-04  1.671101e-07
      8      3   2   0.50000     0.0600000   -0.6830000   2.835898e-04  1.345781e-07
      8      6   2   0.50000     0.0600000    0.0600000   6.128906e-05  1.496315e-08
      8      9   2   0.50000     0.0600000   -0.1200000   2.494471e-04  1.671101e-07
      1      7   2   0.50000    -0.1800000    0.4180000   1.995577e-06  1.069504e-11
      6      7   2   0.50000     0.0600000    0.4180000   4.903125e-07  9.576416e-13
      9      7   2   0.50000    -0.1200000    0.4180000   1.995577e-06  1.069504e-11
      1     10   2   0.50000    -0.1800000    0.2050000   1.015252e-03  1.866303e-06
      1     12   2   0.50000    -0.1800000    0.0600000   2.494471e-04  1.671101e-07
      1     13   2   0.50000    -0.1800000    0.0600000   2.494471e-04  1.671101e-07
      3     10   2   0.50000    -0.6830000    0.2050000   1.154213e-03  1.502983e-06
      3     12   2   0.50000    -0.6830000    0.0600000   2.835898e-04  1.345781e-07
      3     13   2   0.50000    -0.6830000    0.0600000   2.835898e-04  1.345781e-07
      6     10   2   0.50000     0.0600000    0.2050000   2.494471e-04  1.671101e-07
      6     12   2   0.50000     0.0600000    0.0600000   6.128906e-05  1.496315e-08
      6     13   2   0.50000     0.0600000    0.0600000   6.128906e-05  1.496315e-08
      2     11   2   0.50000     0.2050000   -0.6830000   1.154213e-03  1.502983e-06
      2     14   2   0.50000     0.2050000    0.0600000   2.494471e-04  1.671101e-07
      2     16   2   0.50000     0.2050000   -0.1200000   1.015252e-03  1.866303e-06
     12     11   2   0.50000     0.0600000   -0.6830000   2.835898e-04  1.345781e-07
     12     14   2   0.50000     0.0600000    0.0600000   6.128906e-05  1.496315e-08
     12     16   2   0.50000     0.0600000   -0.1200000   2.494471e-04  1.671101e-07
     13     11   2   0.50000     0.0600000   -0.6830000   2.835898e-04  1.345781e-07
     13     14   2   0.50000     0.0600000    0.0600000   6.128906e-05  1.496315e-08
     13     16   2   0.50000     0.0600000   -0.1200000   2.494471e-04  1.671101e-07
      9     15   2   0.50000    -0.1200000    0.4180000   1.995577e-06  1.069504e-11
     14     15   2   0.50000     0.0600000    0.4180000   4.903125e-07  9.576416e-13
     16     15   2   0.50000    -0.1200000    0.4180000   1.995577e-06  1.069504e-11
      9     17   2   0.50000    -0.1200000    0.2050000   1.015252e-03  1.866303e-06
      9     19   2   0.50000    -0.1200000    0.0600000   2.494471e-04  1.671101e-07
      9     20   2   0.50000    -0.1200000    0.0600000   2.494471e-04  1.671101e-07
     11     17   2   0.50000    -0.6830000    0.2050000   1.154213e-03  1.502983e-06
     11     19   2   0.50000    -0.6830000    0.0600000   2.835898e-04  1.345781e-07
     11     20   2   0.50000    -0.6830000    0.0600000   2.835898e-04  1.345781e-07
     14     17   2   0.50000     0.0600000    0.2050000   2.494471e-04  1.671101e-07
     14     19   2   0.50000     0.0600000    0.0600000   6.128906e-05  1.496315e-08
     14     20   2   0.50000     0.0600000    0.0600000   6.128906e-05  1.496315e-08
     10     18   2   0.50000     0.2050000   -0.6830000   1.154213e-03  1.502983e-06
     10     21   2   0.50000     0.2050000    0.0600000   2.494471e-04  1.671101e-07
     10     23   2   0.50000     0.2050000   -0.1200000   1.015252e-03  1.866303e-06
     19     18   2   0.50000     0.0600000   -0.6830000   2.835898e-04  1.345781e-07
     19     21   2   0.50000     0.0600000    0.0600000   6.128906e-05  1.496315e-08
     19     23   2   0.50000     0.0600000   -0.1200000   2.494471e-04  1.671101e-07
     20     18   2   0.50000     0.0600000   -0.6830000   2.835898e-04  1.345781e-07
     20     21   2   0.50000     0.0600000    0.0600000   6.128906e-05  1.496315e-08
     20     23   2   0.50000     0.0600000   -0.1200000   2.494471e-04  1.671101e-07
     16     22   2   0.50000    -0.1200000    0.4180000   1.995577e-06  1.069504e-11
     21     22   2   0.50000     0.0600000    0.4180000   4.903125e-07  9.576416e-13
     23     22   2   0.50000    -0.1200000    0.4180000   1.995577e-06  1.069504e-11
     16     24   2   0.50000    -0.1200000    0.2050000   1.015252e-03  1.866303e-06
     16     26   2   0.50000    -0.1200000    0.0600000   2.494471e-04  1.671101e-07
     16     27   2   0.50000    -0.1200000    0.0600000   2.494471e-04  1.671101e-07
     18     24   2   0.50000    -0.6830000    0.2050000   1.154213e-03  1.502983e-06
     18     26   2   0.50000    -0.6830000    0.0600000   2.835898e-04  1.345781e-07
     18     27   2   0.50000    -0.6830000    0.0600000   2.835898e-04  1.345781e-07
     21     24   2   0.50000     0.0600000    0.2050000   2.494471e-04  1.671101e-07
     21     26   2   0.50000     0.0600000    0.0600000   6.128906e-05  1.496315e-08
     21     27   2   0.50000     0.0600000    0.0600000   6.128906e-05  1.496315e-08
     17     25   2   0.50000     0.2050000   -0.6830000   1.154213e-03  1.502983e-06
     17     28   2   0.50000     0.2050000    0.0600000   2.494471e-04  1.671101e-07
     17     30   2   0.50000     0.2050000   -0.1200000   1.015252e-03  1.866303e-06
     26     25   2   0.50000     0.0600000   -0.6830000   2.835898e-04  1.345781e-07
     26     28   2   0.50000     0.0600000    0.0600000   6.128906e-05  1.496315e-08
     26     30   2   0.50000     0.0600000   -0.1200000   2.494471e-04  1.671101e-07
     27     25   2   0.50000     0.0600000   -0.6830000   2.835898e-04  1.345781e-07
     27     28   2   0.50000     0.0600000    0.0600000   6.128906e-05  1.496315e-08
     27     30   2   0.50000     0.0600000   -0.1200000   2.494471e-04  1.671101e-07
     23     29   2   0.50000    -0.1200000    0.4180000   1.995577e-06  1.069504e-11
     28     29   2   0.50000     0.0600000    0.4180000   4.903125e-07  9.576416e-13
     30     29   2   0.50000    -0.1200000    0.4180000   1.995577e-06  1.069504e-11
     23     31   2   0.50000    -0.1200000    0.2050000   1.015252e-03  1.866303e-06
     23     33   2   0.50000    -0.1200000    0.0600000   2.494471e-04  1.671101e-07
     23     34   2   0.50000    -0.1200000    0.0600000   2.494471e-04  1.671101e-07
     25     31   2   0.50000    -0.6830000    0.2050000   1.154213e-03  1.502983e-06
     25     33   2   0.50000    -0.6830000    0.0600000   2.835898e-04  1.345781e-07
     25     34   2   0.50000    -0.6830000    0.0600000   2.835898e-04  1.345781e-07
     28     31   2   0.50000     0.0600000    0.2050000   2.494471e-04  1.671101e-07
     28     33   2   0.50000     0.0600000    0.0600000   6.128906e-05  1.496315e-08
     28     34   2   0.50000     0.0600000    0.0600000   6.128906e-05  1.496315e-08
     24     32   2   0.50000     0.2050000   -0.6830000   1.154213e-03  1.502983e-06
     24     35   2   0.50000     0.2050000    0.0600000   2.494471e-04  1.671101e-07
     24     37   2   0.50000     0.2050000   -0.1200000   1.015252e-03  1.866303e-06
     33     32   2   0.50000     0.0600000   -0.6830000   2.835898e-04  1.345781e-07
     33     35   2   0.50000     0.0600000    0.0600000   6.128906e-05  1.496315e-08
     33     37   2   0.50000     0.0600000   -0.1200000   2.494471e-04  1.671101e-07
     34     32   2   0.50000     0.0600000   -0.6830000   2.835898e-04  1.345781e-07
     34     35   2   0.50000     0.0600000    0.0600000   6.128906e-05  1.496315e-08
     34     37   2   0.50000     0.0600000   -0.1200000   2.494471e-04  1.671101e-07
     30     36   2   0.50000    -0.1200000    0.4180000   1.995577e-06  1.069504e-11
     35     36   2   0.50000     0.0600000    0.4180000   4.903125e-07  9.576416e-13
     37     36   2   0.50000    -0.1200000    0.4180000   1.995577e-06  1.069504e-11
     30     38   2   0.50000    -0.1200000    0.2050000   1.015252e-03  1.866303e-06
     30     40   2   0.50000    -0.1200000    0.0600000   2.494471e-04  1.671101e-07
     30     41   2   0.50000    -0.1200000    0.0600000   2.494471e-04  1.671101e-07
     32     38   2   0.50000    -0.6830000    0.2050000   1.154213e-03  1.502983e-06
     32     40   2   0.50000    -0.6830000    0.0600000   2.835898e-04  1.345781e-07
     32     41   2   0.50000    -0.6830000    0.0600000   2.835898e-04  1.345781e-07
     35     38   2   0.50000     0.0600000    0.2050000   2.494471e-04  1.671101e-07
     35     40   2   0.50000     0.0600000    0.0600000   6.128906e-05  1.496315e-08
     35     41   2   0.50000     0.0600000    0.0600000   6.128906e-05  1.496315e-08
     31     39   2   0.50000     0.2050000   -0.6830000   1.154213e-03  1.502983e-06
     31     42   2   0.50000     0.2050000    0.0600000   2.494471e-04  1.671101e-07
     31     44   2   0.50000     0.2050000   -0.1200000   1.015252e-03  1.866303e-06
     40     39   2   0.50000     0.0600000   -0.6830000   2.835898e-04  1.345781e-07
     40     42   2   0.50000     0.0600000    0.0600000   6.128906e-05  1.496315e-08
     40     44   2   0.50000     0.0600000   -0.1200000   2.494471e-04  1.671101e-07
     41     39   2   0.50000     0.0600000   -0.6830000   2.835898e-04  1.345781e-07
     41     42   2   0.50000     0.0600000    0.0600000   6.128906e-05  1.496315e-08
     41     44   2   0.50000     0.0600000   -0.1200000   2.494471e-04  1.671101e-07
     37     43   2   0.50000    -0.1200000    0.4180000   1.995577e-06  1.069504e-11
     42     43   2   0.50000     0.0600000    0.4180000   4.903125e-07  9.576416e-13
     44     43   2   0.50000    -0.1200000    0.4180000   1.995577e-06  1.069504e-11
     37     45   2   0.50000    -0.1200000    0.2050000   1.015252e-03  1.866303e-06
     37     47   2   0.50000    -0.1200000    0.0600000   2.494471e-04  1.671101e-07
     37     48   2   0.50000    -0.1200000    0.0600000   2.494471e-04  1.671101e-07
     39     45   2   0.50000    -0.6830000    0.2050000   1.154213e-03  1.502983e-06
     39     47   2   0.50000    -0.6830000    0.0600000   2.835898e-04  1.345781e-07
     39     48   2   0.50000    -0.6830000    0.0600000   2.835898e-04  1.345781e-07
     42     45   2   0.50000     0.0600000    0.2050000   2.494471e-04  1.671101e-07
     42     47   2   0.50000     0.0600000    0.0600000   6.128906e-05  1.496315e-08
     42     48   2   0.50000     0.0600000    0.0600000   6.128906e-05  1.496315e-08
     38     46   2   0.50000     0.2050000   -0.6830000   1.154213e-03  1.502983e-06
     38     49   2   0.50000     0.2050000    0.0600000   2.494471e-04  1.671101e-07
     38     51   2   0.50000     0.2050000   -0.1200000   1.015252e-03  1.866303e-06
     47     46   2   0.50000     0.0600000   -0.6830000   2.835898e-04  1.345781e-07
     47     49   2   0.50000     0.0600000    0.0600000   6.128906e-05  1.496315e-08
     47     51   2   0.50000     0.0600000   -0.1200000   2.494471e-04  1.671101e-07
     48     46   2   0.50000     0.0600000   -0.6830000   2.835898e-04  1.345781e-07
     48     49   2   0.50000     0.0600000    0.0600000   6.128906e-05  1.496315e-08
     48     51   2   0.50000     0.0600000   -0.1200000   2.494471e-04  1.671101e-07
     44     50   2   0.50000    -0.1200000    0.4180000   1.995577e-06  1.069504e-11
     49     50   2   0.50000     0.0600000    0.4180000   4.903125e-07  9.576416e-13
     51     50   2   0.50000    -0.1200000    0.4180000   1.995577e-06  1.069504e-11
     44     52   2   0.50000    -0.1200000    0.2050000   1.015252e-03  1.866303e-06
     44     54   2   0.50000    -0.1200000    0.0600000   2.494471e-04  1.671101e-07
     44     55   2   0.50000    -0.1200000    0.0600000   2.494471e-04  1.671101e-07
     46     52   2   0.50000    -0.6830000    0.2050000   1.154213e-03  1.502983e-06
     46     54   2   0.50000    -0.6830000    0.0600000   2.835898e-04  1.345781e-07
     46     55   2   0.50000    -0.6830000    0.0600000   2.835898e-04  1.345781e-07
     49     52   2   0.50000     0.0600000    0.2050000   2.494471e-04  1.671101e-07
     49     54   2   0.50000     0.0600000    0.0600000   6.128906e-05  1.496315e-08
     49     55   2   0.50000     0.0600000    0.0600000   6.128906e-05  1.496315e-08
     45     53   2   0.50000     0.2050000   -0.6830000   1.154213e-03  1.502983e-06
     45     56   2   0.50000     0.2050000    0.0600000   2.494471e-04  1.671101e-07
     45     58   2   0.50000     0.2050000   -0.1200000   1.015252e-03  1.866303e-06
     54     53   2   0.50000     0.0600000   -0.6830000   2.835898e-04  1.345781e-07
     54     56   2   0.50000     0.0600000    0.0600000   6.128906e-05  1.496315e-08
     54     58   2   0.50000     0.0600000   -0.1200000   2.494471e-04  1.671101e-07
     55     53   2   0.50000     0.0600000   -0.6830000   2.835898e-04  1.345781e-07
     55     56   2   0.50000     0.0600000    0.0600000   6.128906e-05  1.496315e-08
     55     58   2   0.50000     0.0600000   -0.1200000   2.494471e-04  1.671101e-07
     51     57   2   0.50000    -0.1200000    0.4180000   1.995577e-06  1.069504e-11
     56     57   2   0.50000     0.0600000    0.4180000   4.903125e-07  9.576416e-13
     58     57   2   0.50000    -0.1200000    0.4180000   1.995577e-06  1.069504e-11
     51     59   2   0.50000    -0.1200000    0.2050000   1.015252e-03  1.866303e-06
     51     61   2   0.50000    -0.1200000    0.0600000   2.494471e-04  1.671101e-07
     51     62   2   0.50000    -0.1200000    0.0600000   2.494471e-04  1.671101e-07
     53     59   2   0.50000    -0.6830000    0.2050000   1.154213e-03  1.502983e-06
     53     61   2   0.50000    -0.6830000    0.0600000   2.835898e-04  1.345781e-07
     53     62   2   0.50000    -0.6830000    0.0600000   2.835898e-04  1.345781e-07
     56     59   2   0.50000     0.0600000    0.2050000   2.494471e-04  1.671101e-07
     56     61   2   0.50000     0.0600000    0.0600000   6.128906e-05  1.496315e-08
     56     62   2   0.50000     0.0600000    0.0600000   6.128906e-05  1.496315e-08
     52     60   2   0.50000     0.2050000   -0.6830000   1.154213e-03  1.502983e-06
     52     63   2   0.50000     0.2050000    0.0600000   2.494471e-04  1.671101e-07
     52     65   2   0.50000     0.2050000   -0.1200000   1.015252e-03  1.866303e-06
     61     60   2   0.50000     0.0600000   -0.6830000   2.835898e-04  1.345781e-07
     61     63   2   0.50000     0.0600000    0.0600000   6.128906e-05  1.496315e-08
     61     65   2   0.50000     0.0600000   -0.1200000   2.494471e-04  1.671101e-07
     62     60   2   0.50000     0.0600000   -0.6830000   2.835898e-04  1.345781e-07
     62     63   2   0.50000     0.0600000    0.0600000   6.128906e-05  1.496315e-08
     62     65   2   0.50000     0.0600000   -0.1200000   2.494471e-04  1.671101e-07
     58     64   2   0.50000    -0.1200000    0.4180000   1.995577e-06  1.069504e-11
     63     64   2   0.50000     0.0600000    0.4180000   4.903125e-07  9.576416e-13
     65     64   2   0.50000    -0.1200000    0.4180000   1.995577e-06  1.069504e-11
     58     66   2   0.50000    -0.1200000    0.2050000   1.015252e-03  1.866303e-06
     58     68   2   0.50000    -0.1200000    0.0600000   2.494471e-04  1.671101e-07
     58     69   2   0.50000    -0.1200000    0.0600000   2.494471e-04  1.671101e-07
     60     66   2   0.50000    -0.6830000    0.2050000   1.154213e-03  1.502983e-06
     60     68   2   0.50000    -0.6830000    0.0600000   2.835898e-04  1.345781e-07
     60     69   2   0.50000    -0.6830000    0.0600000   2.835898e-04  1.345781e-07
     63     66   2   0.50000     0.0600000    0.2050000   2.494471e-04  1.671101e-07
     63     68   2   0.50000     0.0600000    0.0600000   6.128906e-05  1.496315e-08
     63     69   2   0.50000     0.0600000    0.0600000   6.128906e-05  1.496315e-08
     59     67   2   0.50000     0.2050000   -0.6830000   1.154213e-03  1.502983e-06
     59     70   2   0.50000     0.2050000    0.0600000   2.494471e-04  1.671101e-07
     59     72   2   0.50000     0.2050000   -0.1200000   1.015252e-03  1.866303e-06
     68     67   2   0.50000     0.0600000   -0.6830000   2.835898e-04  1.345781e-07
     68     70   2   0.50000     0.0600000    0.0600000   6.128906e-05  1.496315e-08
     68     72   2   0.50000     0.0600000   -0.1200000   2.494471e-04  1.671101e-07
     69     67   2   0.50000     0.0600000   -0.6830000   2.835898e-04  1.345781e-07
     69     70   2   0.50000     0.0600000    0.0600000   6.128906e-05  1.496315e-08
     69     72   2   0.50000     0.0600000   -0.1200000   2.494471e-04  1.671101e-07
     65     71   2   0.50000    -0.1200000    0.4180000   1.995577e-06  1.069504e-11
     70     71   2   0.50000     0.0600000    0.4180000   4.903125e-07  9.576416e-13
     72     71   2   0.50000    -0.1200000    0.4180000   1.995577e-06  1.069504e-11
     65     73   2   0.50000    -0.1200000    0.2050000   1.015252e-03  1.866303e-06
     65     75   2   0.50000    -0.1200000    0.0600000   2.494471e-04  1.671101e-07
     65     76   2   0.50000    -0.1200000    0.0600000   2.494471e-04  1.671101e-07
     67     73   2   0.50000    -0.6830000    0.2050000   1.154213e-03  1.502983e-06
     67     75   2   0.50000    -0.6830000    0.0600000   2.835898e-04  1.345781e-07
     67     76   2   0.50000    -0.6830000    0.0600000   2.835898e-04  1.345781e-07
     70     73   2   0.50000     0.0600000    0.2050000   2.494471e-04  1.671101e-07
     70     75   2   0.50000     0.0600000    0.0600000   6.128906e-05  1.496315e-08
     70     76   2   0.50000     0.0600000    0.0600000   6.128906e-05  1.496315e-08
     66     74   2   0.50000     0.2050000   -0.6830000   1.154213e-03  1.502983e-06
     66     77   2   0.50000     0.2050000    0.0600000   2.494471e-04  1.671101e-07
     66     79   2   0.50000     0.2050000   -0.1200000   1.015252e-03  1.866303e-06
     75     74   2   0.50000     0.0600000   -0.6830000   2.835898e-04  1.345781e-07
     75     77   2   0.50000     0.0600000    0.0600000   6.128906e-05  1.496315e-08
     75     79   2   0.50000     0.0600000   -0.1200000   2.494471e-04  1.671101e-07
     76     74   2   0.50000     0.0600000   -0.6830000   2.835898e-04  1.345781e-07
     76     77   2   0.50000     0.0600000    0.0600000   6.128906e-05  1.496315e-08
     76     79   2   0.50000     0.0600000   -0.1200000   2.494471e-04  1.671101e-07
     72     78   2   0.50000    -0.1200000    0.4180000   1.995577e-06  1.069504e-11
     77     78   2   0.50000     0.0600000    0.4180000   4.903125e-07  9.576416e-13
     79     78   2   0.50000    -0.1200000    0.4180000   1.995577e-06  1.069504e-11
     72     80   2   0.50000    -0.1200000    0.2050000   1.015252e-03  1.866303e-06
     72     82   2   0.50000    -0.1200000    0.0600000   2.494471e-04  1.671101e-07
     72     83   2   0.50000    -0.1200000    0.0600000   2.494471e-04  1.671101e-07
     74     80   2   0.50000    -0.6830000    0.2050000   1.154213e-03  1.502983e-06
     74     82   2   0.50000    -0.6830000    0.0600000   2.835898e-04  1.345781e-07
     74     83   2   0.50000    -0.6830000    0.0600000   2.835898e-04  1.345781e-07
     77     80   2   0.50000     0.0600000    0.2050000   2.494471e-04  1.671101e-07
     77     82   2   0.50000     0.0600000    0.0600000   6.128906e-05  1.496315e-08
     77     83   2   0.50000     0.0600000    0.0600000   6.128906e-05  1.496315e-08
     73     81   2   0.50000     0.2050000   -0.6830000   1.154213e-03  1.502983e-06
     73     84   2   0.50000     0.2050000    0.0600000   2.494471e-04  1.671101e-07
     73     86   2   0.50000     0.2050000   -0.1200000   1.015252e-03  1.866303e-06
     82     81   2   0.50000     0.0600000   -0.6830000   2.835898e-04  1.345781e-07
     82     84   2   0.50000     0.0600000    0.0600000   6.128906e-05  1.496315e-08
     82     86   2   0.50000     0.0600000   -0.1200000   2.494471e-04  1.671101e-07
     83     81   2   0.50000     0.0600000   -0.6830000   2.835898e-04  1.345781e-07
     83     84   2   0.50000     0.0600000    0.0600000   6.128906e-05  1.496315e-08
     83     86   2   0.50000     0.0600000   -0.1200000   2.494471e-04  1.671101e-07
     79     85   2   0.50000    -0.1200000    0.4180000   1.995577e-06  1.069504e-11
     84     85   2   0.50000     0.0600000    0.4180000   4.903125e-07  9.576416e-13
     86     85   2   0.50000    -0.1200000    0.4180000   1.995577e-06  1.069504e-11
     79     87   2   0.50000    -0.1200000    0.2050000   1.015252e-03  1.866303e-06
     79     89   2   0.50000    -0.1200000    0.0600000   2.494471e-04  1.671101e-07
     79     90   2   0.50000    -0.1200000    0.0600000   2.494471e-04  1.671101e-07
     81     87   2   0.50000    -0.6830000    0.2050000   1.154213e-03  1.502983e-06
     81     89   2   0.50000    -0.6830000    0.0600000   2.835898e-04  1.345781e-07
     81     90   2   0.50000    -0.6830000    0.0600000   2.835898e-04  1.345781e-07
     84     87   2   0.50000     0.0600000    0.2050000   2.494471e-04  1.671101e-07
     84     89   2   0.50000     0.0600000    0.0600000   6.128906e-05  1.496315e-08
     84     90   2   0.50000     0.0600000    0.0600000   6.128906e-05  1.496315e-08
     80     88   2   0.50000     0.2050000   -0.6830000   1.154213e-03  1.502983e-06
     80     91   2   0.50000     0.2050000    0.0600000   2.494471e-04  1.671101e-07
     80     93   2   0.50000     0.2050000   -0.1200000   1.015252e-03  1.866303e-06
     89     88   2   0.50000     0.0600000   -0.6830000   2.835898e-04  1.345781e-07
     89     91   2   0.50000     0.0600000    0.0600000   6.128906e-05  1.496315e-08
     89     93   2   0.50000     0.0600000   -0.1200000   2.494471e-04  1.671101e-07
     90     88   2   0.50000     0.0600000   -0.6830000   2.835898e-04  1.345781e-07
     90     91   2   0.50000     0.0600000    0.0600000   6.128906e-05  1.496315e-08
     90     93   2   0.50000     0.0600000   -0.1200000   2.494471e-04  1.671101e-07
     86     92   2   0.50000    -0.1200000    0.4180000   1.995577e-06  1.069504e-11
     91     92   2   0.50000     0.0600000    0.4180000   4.903125e-07  9.576416e-13
     93     92   2   0.50000    -0.1200000    0.4180000   1.995577e-06  1.069504e-11
     86     94   2   0.50000    -0.1200000    0.2050000   1.015252e-03  1.866303e-06
     86     96   2   0.50000    -0.1200000    0.0600000   2.494471e-04  1.671101e-07
     86     97   2   0.50000    -0.1200000    0.0600000   2.494471e-04  1.671101e-07
     88     94   2   0.50000    -0.6830000    0.2050000   1.154213e-03  1.502983e-06
     88     96   2   0.50000    -0.6830000    0.0600000   2.835898e-04  1.345781e-07
     88     97   2   0.50000    -0.6830000    0.0600000   2.835898e-04  1.345781e-07
     91     94   2   0.50000     0.0600000    0.2050000   2.494471e-04  1.671101e-07
     91     96   2   0.50000     0.0600000    0.0600000   6.128906e-05  1.496315e-08
     91     97   2   0.50000     0.0600000    0.0600000   6.128906e-05  1.496315e-08
     87     95   2   0.50000     0.2050000   -0.6830000   1.154213e-03  1.502983e-06
     87     98   2   0.50000     0.2050000    0.0600000   2.494471e-04  1.671101e-07
     87    100   2   0.50000     0.2050000   -0.1200000   1.015252e-03  1.866303e-06
     96     95   2   0.50000     0.0600000   -0.6830000   2.835898e-04  1.345781e-07
     96     98   2   0.50000     0.0600000    0.0600000   6.128906e-05  1.496315e-08
     96    100   2   0.50000     0.0600000   -0.1200000   2.494471e-04  1.671101e-07
     97     95   2   0.50000     0.0600000   -0.6830000   2.835898e-04  1.345781e-07
     97     98   2   0.50000     0.0600000    0.0600000   6.128906e-05  1.496315e-08
     97    100   2   0.50000     0.0600000   -0.1200000   2.494471e-04  1.671101e-07
     93     99   2   0.50000    -0.1200000    0.4180000   1.995577e-06  1.069504e-11
     98     99   2   0.50000     0.0600000    0.4180000   4.903125e-07  9.576416e-13
    100     99   2   0.50000    -0.1200000    0.4180000   1.995577e-06  1.069504e-11
     93    101   2   0.50000    -0.1200000    0.2050000   1.015252e-03  1.866303e-06
     93    103   2   0.50000    -0.1200000    0.0600000   2.494471e-04  1.671101e-07
     93    104   2   0.50000    -0.1200000    0.0600000   2.494471e-04  1.671101e-07
     95    101   2   0.50000    -0.6830000    0.2050000   1.154213e-03  1.502983e-06
     95    103   2   0.50000    -0.6830000    0.0600000   2.835898e-04  1.345781e-07
     95    104   2   0.50000    -0.6830000    0.0600000   2.835898e-04  1.345781e-07
     98    101   2   0.50000     0.0600000    0.2050000   2.494471e-04  1.671101e-07
     98    103   2   0.50000     0.0600000    0.0600000   6.128906e-05  1.496315e-08
     98    104   2   0.50000     0.0600000    0.0600000   6.128906e-05  1.496315e-08
     94    102   2   0.50000     0.2050000   -0.6830000   1.154213e-03  1.502983e-06
     94    105   2   0.50000     0.2050000    0.0600000   2.494471e-04  1.671101e-07
     94    107   2   0.50000     0.2050000   -0.1200000   1.015252e-03  1.866303e-06
    103    102   2   0.50000     0.0600000   -0.6830000   2.835898e-04  1.345781e-07
    103    105   2   0.50000     0.0600000    0.0600000   6.128906e-05  1.496315e-08
    103    107   2   0.50000     0.0600000   -0.1200000   2.494471e-04  1.671101e-07
    104    102   2   0.50000     0.0600000   -0.6830000   2.835898e-04  1.345781e-07
    104    105   2   0.50000     0.0600000    0.0600000   6.128906e-05  1.496315e-08
    104    107   2   0.50000     0.0600000   -0.1200000   2.494471e-04  1.671101e-07
    100    106   2   0.50000    -0.1200000    0.4180000   1.995577e-06  1.069504e-11
    105    106   2   0.50000     0.0600000    0.4180000   4.903125e-07  9.576416e-13
    107    106   2   0.50000    -0.1200000    0.4180000   1.995577e-06  1.069504e-11
    100    108   2   0.50000    -0.1200000    0.2050000   1.015252e-03  1.866303e-06
    100    110   2   0.50000    -0.1200000    0.0600000   2.494471e-04  1.671101e-07
    100    111   2   0.50000    -0.1200000    0.0600000   2.494471e-04  1.671101e-07
    102    108   2   0.50000    -0.6830000    0.2050000   1.154213e-03  1.502983e-06
    102    110   2   0.50000    -0.6830000    0.0600000   2.835898e-04  1.345781e-07
    102    111   2   0.50000    -0.6830000    0.0600000   2.835898e-04  1.345781e-07
    105    108   2   0.50000     0.0600000    0.2050000   2.494471e-04  1.671101e-07
    105    110   2   0.50000     0.0600000    0.0600000   6.128906e-05  1.496315e-08
    105    111   2   0.50000     0.0600000    0.0600000   6.128906e-05  1.496315e-08
    101    109   2   0.50000     0.2050000   -0.6830000   1.154213e-03  1.502983e-06
    101    112   2   0.50000     0.2050000    0.0600000   2.494471e-04  1.671101e-07
    101    114   2   0.50000     0.2050000   -0.1200000   1.015252e-03  1.866303e-06
    110    109   2   0.50000     0.0600000   -0.6830000   2.835898e-04  1.345781e-07
    110    112   2   0.50000     0.0600000    0.0600000   6.128906e-05  1.496315e-08
    110    114   2   0.50000     0.0600000   -0.1200000   2.494471e-04  1.671101e-07
    111    109   2   0.50000     0.0600000   -0.6830000   2.835898e-04  1.345781e-07
    111    112   2   0.50000     0.0600000    0.0600000   6.128906e-05  1.496315e-08
    111    114   2   0.50000     0.0600000   -0.1200000   2.494471e-04  1.671101e-07
    107    113   2   0.50000    -0.1200000    0.4180000   1.995577e-06  1.069504e-11
    112    113   2   0.50000     0.0600000    0.4180000   4.903125e-07  9.576416e-13
    114    113   2   0.50000    -0.1200000    0.4180000   1.995577e-06  1.069504e-11
    107    115   2   0.50000    -0.1200000    0.2050000   1.015252e-03  1.866303e-06
    107    117   2   0.50000    -0.1200000    0.0600000   2.494471e-04  1.671101e-07
    107    118   2   0.50000    -0.1200000    0.0600000   2.494471e-04  1.671101e-07
    109    115   2   0.50000    -0.6830000    0.2050000   1.154213e-03  1.502983e-06
    109    117   2   0.50000    -0.6830000    0.0600000   2.835898e-04  1.345781e-07
    109    118   2   0.50000    -0.6830000    0.0600000   2.835898e-04  1.345781e-07
    112    115   2   0.50000     0.0600000    0.2050000   2.494471e-04  1.671101e-07
    112    117   2   0.50000     0.0600000    0.0600000   6.128906e-05  1.496315e-08
    112    118   2   0.50000     0.0600000    0.0600000   6.128906e-05  1.496315e-08
    108    116   2   0.50000     0.2050000   -0.6830000   1.154213e-03  1.502983e-06
    108    119   2   0.50000     0.2050000    0.0600000   2.494471e-04  1.671101e-07
    108    121   2   0.50000     0.2050000   -0.1200000   1.015252e-03  1.866303e-06
    117    116   2   0.50000     0.0600000   -0.6830000   2.835898e-04  1.345781e-07
    117    119   2   0.50000     0.0600000    0.0600000   6.128906e-05  1.496315e-08
    117    121   2   0.50000     0.0600000   -0.1200000   2.494471e-04  1.671101e-07
    118    116   2   0.50000     0.0600000   -0.6830000   2.835898e-04  1.345781e-07
    118    119   2   0.50000     0.0600000    0.0600000   6.128906e-05  1.496315e-08
    118    121   2   0.50000     0.0600000   -0.1200000   2.494471e-04  1.671101e-07
    114    120   2   0.50000    -0.1200000    0.4180000   1.995577e-06  1.069504e-11
    119    120   2   0.50000     0.0600000    0.4180000   4.903125e-07  9.576416e-13
    121    120   2   0.50000    -0.1200000    0.4180000   1.995577e-06  1.069504e-11
    114    122   2   0.50000    -0.1200000    0.2050000   1.015252e-03  1.866303e-06
    114    124   2   0.50000    -0.1200000    0.0600000   2.494471e-04  1.671101e-07
    114    125   2   0.50000    -0.1200000    0.0600000   2.494471e-04  1.671101e-07
    116    122   2   0.50000    -0.6830000    0.2050000   1.154213e-03  1.502983e-06
    116    124   2   0.50000    -0.6830000    0.0600000   2.835898e-04  1.345781e-07
    116    125   2   0.50000    -0.6830000    0.0600000   2.835898e-04  1.345781e-07
    119    122   2   0.50000     0.0600000    0.2050000   2.494471e-04  1.671101e-07
    119    124   2   0.50000     0.0600000    0.0600000   6.128906e-05  1.496315e-08
    119    125   2   0.50000     0.0600000    0.0600000   6.128906e-05  1.496315e-08
    115    123   2   0.50000     0.2050000   -0.6830000   1.154213e-03  1.502983e-06
    115    126   2   0.50000     0.2050000    0.0600000   2.494471e-04  1.671101e-07
    115    128   2   0.50000     0.2050000   -0.1200000   1.015252e-03  1.866303e-06
    124    123   2   0.50000     0.0600000   -0.6830000   2.835898e-04  1.345781e-07
    124    126   2   0.50000     0.0600000    0.0600000   6.128906e-05  1.496315e-08
    124    128   2   0.50000     0.0600000   -0.1200000   2.494471e-04  1.671101e-07
    125    123   2   0.50000     0.0600000   -0.6830000   2.835898e-04  1.345781e-07
    125    126   2   0.50000     0.0600000    0.0600000   6.128906e-05  1.496315e-08
    125    128   2   0.50000     0.0600000   -0.1200000   2.494471e-04  1.671101e-07
    121    127   2   0.50000    -0.1200000    0.4180000   1.995577e-06  1.069504e-11
    126    127   2   0.50000     0.0600000    0.4180000   4.903125e-07  9.576416e-13
    128    127   2   0.50000    -0.1200000    0.4180000   1.995577e-06  1.069504e-11
    121    129   2   0.50000    -0.1200000    0.2050000   1.015252e-03  1.866303e-06
    121    131   2   0.50000    -0.1200000    0.0600000   2.494471e-04  1.671101e-07
    121    132   2   0.50000    -0.1200000    0.0600000   2.494471e-04  1.671101e-07
    123    129   2   0.50000    -0.6830000    0.2050000   1.154213e-03  1.502983e-06
    123    131   2   0.50000    -0.6830000    0.0600000   2.835898e-04  1.345781e-07
    123    132   2   0.50000    -0.6830000    0.0600000   2.835898e-04  1.345781e-07
    126    129   2   0.50000     0.0600000    0.2050000   2.494471e-04  1.671101e-07
    126    131   2   0.50000     0.0600000    0.0600000   6.128906e-05  1.496315e-08
    126    132   2   0.50000     0.0600000    0.0600000   6.128906e-05  1.496315e-08
    122    130   2   0.50000     0.2050000   -0.6830000   1.154213e-03  1.502983e-06
    122    133   2   0.50000     0.2050000    0.0600000   2.494471e-04  1.671101e-07
    122    135   2   0.50000     0.2050000   -0.1200000   1.015252e-03  1.866303e-06
    131    130   2   0.50000     0.0600000   -0.6830000   2.835898e-04  1.345781e-07
    131    133   2   0.50000     0.0600000    0.0600000   6.128906e-05  1.496315e-08
    131    135   2   0.50000     0.0600000   -0.1200000   2.494471e-04  1.671101e-07
    132    130   2   0.50000     0.0600000   -0.6830000   2.835898e-04  1.345781e-07
    132    133   2   0.50000     0.0600000    0.0600000   6.128906e-05  1.496315e-08
    132    135   2   0.50000     0.0600000   -0.1200000   2.494471e-04  1.671101e-07
    128    134   2   0.50000    -0.1200000    0.4180000   1.995577e-06  1.069504e-11
    133    134   2   0.50000     0.0600000    0.4180000   4.903125e-07  9.576416e-13
    135    134   2   0.50000    -0.1200000    0.4180000   1.995577e-06  1.069504e-11
    128    136   2   0.50000    -0.1200000    0.1450000   1.015252e-03  1.866303e-06
    128    138   2   0.50000    -0.1200000    0.0600000   2.494471e-04  1.671101e-07
    128    139   2   0.50000    -0.1200000    0.0600000   2.494471e-04  1.671101e-07
    130    136   2   0.50000    -0.6830000    0.1450000   1.154213e-03  1.502983e-06
    130    138   2   0.50000    -0.6830000    0.0600000   2.835898e-04  1.345781e-07
    130    139   2   0.50000    -0.6830000    0.0600000   2.835898e-04  1.345781e-07
    133    136   2   0.50000     0.0600000    0.1450000   2.494471e-04  1.671101e-07
    133    138   2   0.50000     0.0600000    0.0600000   6.128906e-05  1.496315e-08
    133    139   2   0.50000     0.0600000    0.0600000   6.128906e-05  1.496315e-08
    129    137   2   0.50000     0.2050000   -0.6830000   1.154213e-03  1.502983e-06
    129    140   2   0.50000     0.2050000    0.0600000   2.494471e-04  1.671101e-07
    129    142   2   0.50000     0.2050000    0.0600000   2.494471e-04  1.671101e-07
    138    137   2   0.50000     0.0600000   -0.6830000   2.835898e-04  1.345781e-07
    138    140   2   0.50000     0.0600000    0.0600000   6.128906e-05  1.496315e-08
    138    142   2   0.50000     0.0600000    0.0600000   6.128906e-05  1.496315e-08
    139    137   2   0.50000     0.0600000   -0.6830000   2.835898e-04  1.345781e-07
    139    140   2   0.50000     0.0600000    0.0600000   6.128906e-05  1.496315e-08
    139    142   2   0.50000     0.0600000    0.0600000   6.128906e-05  1.496315e-08
    135    141   2   0.50000    -0.1200000    0.4180000   1.995577e-06  1.069504e-11
    140    141   2   0.50000     0.0600000    0.4180000   4.903125e-07  9.576416e-13
    142    141   2   0.50000     0.0600000    0.4180000   4.903125e-07  9.576416e-13

[ angles ]
; ai  aj  ak
      2      1      4   1    110.7000    313.8000
      2      1      5   1    110.7000    313.8000
      2      1      8   1    110.7000    313.8000
      4      1      5   1    107.8000    276.1440
      4      1      8   1    107.8000    276.1440
      5      1      8   1    107.8000    276.1440
      1      2      3   1    109.5000    418.4000
      1      2      6   1    110.7000    313.8000
      1      2      9   1    112.7000    488.2728
      3      2      6   1    109.5000    292.8800
      3      2      9   1    109.5000    418.4000
      6      2      9   1    110.7000    313.8000
      2      3      7   1    108.5000    460.2400
      2      9     10   1    112.7000    488.2728
      2      9     12   1    110.7000    313.8000
      2      9     13   1    110.7000    313.8000
     10      9     12   1    110.7000    313.8000
     10      9     13   1    110.7000    313.8000
     12      9     13   1    107.8000    276.1440
      9     10     11   1    109.5000    418.4000
      9     10     14   1    110.7000    313.8000
      9     10     16   1    112.7000    488.2728
     11     10     14   1    109.5000    292.8800
     11     10     16   1    109.5000    418.4000
     14     10     16   1    110.7000    313.8000
     10     11     15   1    108.5000    460.2400
     10     16     17   1    112.7000    488.2728
     10     16     19   1    110.7000    313.8000
     10     16     20   1    110.7000    313.8000
     17     16     19   1    110.7000    313.8000
     17     16     20   1    110.7000    313.8000
     19     16     20   1    107.8000    276.1440
     16     17     18   1    109.5000    418.4000
     16     17     21   1    110.7000    313.8000
     16     17     23   1    112.7000    488.2728
     18     17     21   1    109.5000    292.8800
     18     17     23   1    109.5000    418.4000
     21     17     23   1    110.7000    313.8000
     17     18     22   1    108.5000    460.2400
     17     23     24   1    112.7000    488.2728
     17     23     26   1    110.7000    313.8000
     17     23     27   1    110.7000    313.8000
     24     23     26   1    110.7000    313.8000
     24     23     27   1    110.7000    313.8000
     26     23     27   1    107.8000    276.1440
     23     24     25   1    109.5000    418.4000
     23     24     28   1    110.7000    313.8000
     23     24     30   1    112.7000    488.2728
     25     24     28   1    109.5000    292.8800
     25     24     30   1    109.5000    418.4000
     28     24     30   1    110.7000    313.8000
     24     25     29   1    108.5000    460.2400
     24     30     31   1    112.7000    488.2728
     24     30     33   1    110.7000    313.8000
     24     30     34   1    110.7000    313.8000
     31     30     33   1    110.7000    313.8000
     31     30     34   1    110.7000    313.8000
     33     30     34   1    107.8000    276.1440
     30     31     32   1    109.5000    418.4000
     30     31     35   1    110.7000    313.8000
     30     31     37   1    112.7000    488.2728
     32     31     35   1    109.5000    292.8800
     32     31     37   1    109.5000    418.4000
     35     31     37   1    110.7000    313.8000
     31     32     36   1    108.5000    460.2400
     31     37     38   1    112.7000    488.2728
     31     37     40   1    110.7000    313.8000
     31     37     41   1    110.7000    313.8000
     38     37     40   1    110.7000    313.8000
     38     37     41   1    110.7000    313.8000
     40     37     41   1    107.8000    276.1440
     37     38     39   1    109.5000    418.4000
     37     38     42   1    110.7000    313.8000
     37     38     44   1    112.7000    488.2728
     39     38     42   1    109.5000    292.8800
     39     38     44   1    109.5000    418.4000
     42     38     44   1    110.7000    313.8000
     38     39     43   1    108.5000    460.2400
     38     44     45   1    112.7000    488.2728
     38     44     47   1    110.7000    313.8000
     38     44     48   1    110.7000    313.8000
     45     44     47   1    110.7000    313.8000
     45     44     48   1    110.7000    313.8000
     47     44     48   1    107.8000    276.1440
     44     45     46   1    109.5000    418.4000
     44     45     49   1    110.7000    313.8000
     44     45     51   1    112.7000    488.2728
     46     45     49   1    109.5000    292.8800
     46     45     51   1    109.5000    418.4000
     49     45     51   1    110.7000    313.8000
     45     46     50   1    108.5000    460.2400
     45     51     52   1    112.7000    488.2728
     45     51     54   1    110.7000    313.8000
     45     51     55   1    110.7000    313.8000
     52     51     54   1    110.7000    313.8000
     52     51     55   1    110.7000    313.8000
     54     51     55   1    107.8000    276.1440
     51     52     53   1    109.5000    418.4000
     51     52     56   1    110.7000    313.8000
     51     52     58   1    112.7000    488.2728
     53     52     56   1    109.5000    292.8800
     53     52     58   1    109.5000    418.4000
     56     52     58   1    110.7000    313.8000
     52     53     57   1    108.5000    460.2400
     52     58     59   1    112.7000    488.2728
     52     58     61   1    110.7000    313.8000
     52     58     62   1    110.7000    313.8000
     59     58     61   1    110.7000    313.8000
     59     58     62   1    110.7000    313.8000
     61     58     62   1    107.8000    276.1440
     58     59     60   1    109.5000    418.4000
     58     59     63   1    110.7000    313.8000
     58     59     65   1    112.7000    488.2728
     60     59     63   1    109.5000    292.8800
     60     59     65   1    109.5000    418.4000
     63     59     65   1    110.7000    313.8000
     59     60     64   1    108.5000    460.2400
     59     65     66   1    112.7000    488.2728
     59     65     68   1    110.7000    313.8000
     59     65     69   1    110.7000    313.8000
     66     65     68   1    110.7000    313.8000
     66     65     69   1    110.7000    313.8000
     68     65     69   1    107.8000    276.1440
     65     66     67   1    109.5000    418.4000
     65     66     70   1    110.7000    313.8000
     65     66     72   1    112.7000    488.2728
     67     66     70   1    109.5000    292.8800
     67     66     72   1    109.5000    418.4000
     70     66     72   1    110.7000    313.8000
     66     67     71   1    108.5000    460.2400
     66     72     73   1    112.7000    488.2728
     66     72     75   1    110.7000    313.8000
     66     72     76   1    110.7000    313.8000
     73     72     75   1    110.7000    313.8000
     73     72     76   1    110.7000    313.8000
     75     72     76   1    107.8000    276.1440
     72     73     74   1    109.5000    418.4000
     72     73     77   1    110.7000    313.8000
     72     73     79   1    112.7000    488.2728
     74     73     77   1    109.5000    292.8800
     74     73     79   1    109.5000    418.4000
     77     73     79   1    110.7000    313.8000
     73     74     78   1    108.5000    460.2400
     73     79     80   1    112.7000    488.2728
     73     79     82   1    110.7000    313.8000
     73     79     83   1    110.7000    313.8000
     80     79     82   1    110.7000    313.8000
     80     79     83   1    110.7000    313.8000
     82     79     83   1    107.8000    276.1440
     79     80     81   1    109.5000    418.4000
     79     80     84   1    110.7000    313.8000
     79     80     86   1    112.7000    488.2728
     81     80     84   1    109.5000    292.8800
     81     80     86   1    109.5000    418.4000
     84     80     86   1    110.7000    313.8000
     80     81     85   1    108.5000    460.2400
     80     86     87   1    112.7000    488.2728
     80     86     89   1    110.7000    313.8000
     80     86     90   1    110.7000    313.8000
     87     86     89   1    110.7000    313.8000
     87     86     90   1    110.7000    313.8000
     89     86     90   1    107.8000    276.1440
     86     87     88   1    109.5000    418.4000
     86     87     91   1    110.7000    313.8000
     86     87     93   1    112.7000    488.2728
     88     87     91   1    109.5000    292.8800
     88     87     93   1    109.5000    418.4000
     91     87     93   1    110.7000    313.8000
     87     88     92   1    108.5000    460.2400
     87     93     94   1    112.7000    488.2728
     87     93     96   1    110.7000    313.8000
     87     93     97   1    110.7000    313.8000
     94     93     96   1    110.7000    313.8000
     94     93     97   1    110.7000    313.8000
     96     93     97   1    107.8000    276.1440
     93     94     95   1    109.5000    418.4000
     93     94     98   1    110.7000    313.8000
     93     94    100   1    112.7000    488.2728
     95     94     98   1    109.5000    292.8800
     95     94    100   1    109.5000    418.4000
     98     94    100   1    110.7000    313.8000
     94     95     99   1    108.5000    460.2400
     94    100    101   1    112.7000    488.2728
     94    100    103   1    110.7000    313.8000
     94    100    104   1    110.7000    313.8000
    101    100    103   1    110.7000    313.8000
    101    100    104   1    110.7000    313.8000
    103    100    104   1    107.8000    276.1440
    100    101    102   1    109.5000    418.4000
    100    101    105   1    110.7000    313.8000
    100    101    107   1    112.7000    488.2728
    102    101    105   1    109.5000    292.8800
    102    101    107   1    109.5000    418.4000
    105    101    107   1    110.7000    313.8000
    101    102    106   1    108.5000    460.2400
    101    107    108   1    112.7000    488.2728
    101    107    110   1    110.7000    313.8000
    101    107    111   1    110.7000    313.8000
    108    107    110   1    110.7000    313.8000
    108    107    111   1    110.7000    313.8000
    110    107    111   1    107.8000    276.1440
    107    108    109   1    109.5000    418.4000
    107    108    112   1    110.7000    313.8000
    107    108    114   1    112.7000    488.2728
    109    108    112   1    109.5000    292.8800
    109    108    114   1    109.5000    418.4000
    112    108    114   1    110.7000    313.8000
    108    109    113   1    108.5000    460.2400
    108    114    115   1    112.7000    488.2728
    108    114    117   1    110.7000    313.8000
    108    114    118   1    110.7000    313.8000
    115    114    117   1    110.7000    313.8000
    115    114    118   1    110.7000    313.8000
    117    114    118   1    107.8000    276.1440
    114    115    116   1    109.5000    418.4000
    114    115    119   1    110.7000    313.8000
    114    115    121   1    112.7000    488.2728
    116    115    119   1    109.5000    292.8800
    116    115    121   1    109.5000    418.4000
    119    115    121   1    110.7000    313.8000
    115    116    120   1    108.5000    460.2400
    115    121    122   1    112.7000    488.2728
    115    121    124   1    110.7000    313.8000
    115    121    125   1    110.7000    313.8000
    122    121    124   1    110.7000    313.8000
    122    121    125   1    110.7000    313.8000
    124    121    125   1    107.8000    276.1440
    121    122    123   1    109.5000    418.4000
    121    122    126   1    110.7000    313.8000
    121    122    128   1    112.7000    488.2728
    123    122    126   1    109.5000    292.8800
    123    122    128   1    109.5000    418.4000
    126    122    128   1    110.7000    313.8000
    122    123    127   1    108.5000    460.2400
    122    128    129   1    112.7000    488.2728
    122    128    131   1    110.7000    313.8000
    122    128    132   1    110.7000    313.8000
    129    128    131   1    110.7000    313.8000
    129    128    132   1    110.7000    313.8000
    131    128    132   1    107.8000    276.1440
    128    129    130   1    109.5000    418.4000
    128    129    133   1    110.7000    313.8000
    128    129    135   1    112.7000    488.2728
    130    129    133   1    109.5000    292.8800
    130    129    135   1    109.5000    418.4000
    133    129    135   1    110.7000    313.8000
    129    130    134   1    108.5000    460.2400
    129    135    136   1    112.7000    488.2728
    129    135    138   1    110.7000    313.8000
    129    135    139   1    110.7000    313.8000
    136    135    138   1    110.7000    313.8000
    136    135    139   1    110.7000    313.8000
    138    135    139   1    107.8000    276.1440
    135    136    137   1    109.5000    418.4000
    135    136    140   1    110.7000    313.8000
    135    136    142   1    110.7000    313.8000
    137    136    140   1    109.5000    292.8800
    137    136    142   1    109.5000    292.8800
    140    136    142   1    107.8000    276.1440
    136    137    141   1    108.5000    460.2400

[ dihedrals ]
; Proper dihedrals
      4      1      2      3   5     0.00000     0.00000     1.95811  0.0
      4      1      2      6   5     0.00000     0.00000     1.25520  0.0
      4      1      2      9   5     0.00000     0.00000     1.25520  0.0
      5      1      2      3   5     0.00000     0.00000     1.95811  0.0
      5      1      2      6   5     0.00000     0.00000     1.25520  0.0
      5      1      2      9   5     0.00000     0.00000     1.25520  0.0
      8      1      2      3   5     0.00000     0.00000     1.95811  0.0
      8      1      2      6   5     0.00000     0.00000     1.25520  0.0
      8      1      2      9   5     0.00000     0.00000     1.25520  0.0
      1      2      3      7   5    -0.97069    -0.79078     1.77820  0.0
      6      2      3      7   5     0.00000     0.00000     1.62758  0.0
      9      2      3      7   5    -0.97069    -0.79078     1.77820  0.0
      1      2      9     10   5     4.74884    -0.63178     1.67360  0.0
      1      2      9     12   5     0.00000     0.00000     1.25520  0.0
      1      2      9     13   5     0.00000     0.00000     1.25520  0.0
      3      2      9     10   5     7.23832    -1.46440     1.74054  0.0
      3      2      9     12   5     0.00000     0.00000     1.95811  0.0
      3      2      9     13   5     0.00000     0.00000     1.95811  0.0
      6      2      9     10   5     0.00000     0.00000     1.25520  0.0
      6      2      9     12   5     0.00000     0.00000     1.25520  0.0
      6      2      9     13   5     0.00000     0.00000     1.25520  0.0
      2      9     10     11   5     7.23832    -1.46440     1.74054  0.0
      2      9     10     14   5     0.00000     0.00000     1.25520  0.0
      2      9     10     16   5     4.74884    -0.63178     1.67360  0.0
     12      9     10     11   5     0.00000     0.00000     1.95811  0.0
     12      9     10     14   5     0.00000     0.00000     1.25520  0.0
     12      9     10     16   5     0.00000     0.00000     1.25520  0.0
     13      9     10     11   5     0.00000     0.00000     1.95811  0.0
     13      9     10     14   5     0.00000     0.00000     1.25520  0.0
     13      9     10     16   5     0.00000     0.00000     1.25520  0.0
      9     10     11     15   5    -0.97069    -0.79078     1.77820  0.0
     14     10     11     15   5     0.00000     0.00000     1.62758  0.0
     16     10     11     15   5    -0.97069    -0.79078     1.77820  0.0
      9     10     16     17   5     4.74884    -0.63178     1.67360  0.0
      9     10     16     19   5     0.00000     0.00000     1.25520  0.0
      9     10     16     20   5     0.00000     0.00000     1.25520  0.0
     11     10     16     17   5     7.23832    -1.46440     1.74054  0.0
     11     10     16     19   5     0.00000     0.00000     1.95811  0.0
     11     10     16     20   5     0.00000     0.00000     1.95811  0.0
     14     10     16     17   5     0.00000     0.00000     1.25520  0.0
     14     10     16     19   5     0.00000     0.00000     1.25520  0.0
     14     10     16     20   5     0.00000     0.00000     1.25520  0.0
     10     16     17     18   5     7.23832    -1.46440     1.74054  0.0
     10     16     17     21   5     0.00000     0.00000     1.25520  0.0
     10     16     17     23   5     4.74884    -0.63178     1.67360  0.0
     19     16     17     18   5     0.00000     0.00000     1.95811  0.0
     19     16     17     21   5     0.00000     0.00000     1.25520  0.0
     19     16     17     23   5     0.00000     0.00000     1.25520  0.0
     20     16     17     18   5     0.00000     0.00000     1.95811  0.0
     20     16     17     21   5     0.00000     0.00000     1.25520  0.0
     20     16     17     23   5     0.00000     0.00000     1.25520  0.0
     16     17     18     22   5    -0.97069    -0.79078     1.77820  0.0
     21     17     18     22   5     0.00000     0.00000     1.62758  0.0
     23     17     18     22   5    -0.97069    -0.79078     1.77820  0.0
     16     17     23     24   5     4.74884    -0.63178     1.67360  0.0
     16     17     23     26   5     0.00000     0.00000     1.25520  0.0
     16     17     23     27   5     0.00000     0.00000     1.25520  0.0
     18     17     23     24   5     7.23832    -1.46440     1.74054  0.0
     18     17     23     26   5     0.00000     0.00000     1.95811  0.0
     18     17     23     27   5     0.00000     0.00000     1.95811  0.0
     21     17     23     24   5     0.00000     0.00000     1.25520  0.0
     21     17     23     26   5     0.00000     0.00000     1.25520  0.0
     21     17     23     27   5     0.00000     0.00000     1.25520  0.0
     17     23     24     25   5     7.23832    -1.46440     1.74054  0.0
     17     23     24     28   5     0.00000     0.00000     1.25520  0.0
     17     23     24     30   5     4.74884    -0.63178     1.67360  0.0
     26     23     24     25   5     0.00000     0.00000     1.95811  0.0
     26     23     24     28   5     0.00000     0.00000     1.25520  0.0
     26     23     24     30   5     0.00000     0.00000     1.25520  0.0
     27     23     24     25   5     0.00000     0.00000     1.95811  0.0
     27     23     24     28   5     0.00000     0.00000     1.25520  0.0
     27     23     24     30   5     0.00000     0.00000     1.25520  0.0
     23     24     25     29   5    -0.97069    -0.79078     1.77820  0.0
     28     24     25     29   5     0.00000     0.00000     1.62758  0.0
     30     24     25     29   5    -0.97069    -0.79078     1.77820  0.0
     23     24     30     31   5     4.74884    -0.63178     1.67360  0.0
     23     24     30     33   5     0.00000     0.00000     1.25520  0.0
     23     24     30     34   5     0.00000     0.00000     1.25520  0.0
     25     24     30     31   5     7.23832    -1.46440     1.74054  0.0
     25     24     30     33   5     0.00000     0.00000     1.95811  0.0
     25     24     30     34   5     0.00000     0.00000     1.95811  0.0
     28     24     30     31   5     0.00000     0.00000     1.25520  0.0
     28     24     30     33   5     0.00000     0.00000     1.25520  0.0
     28     24     30     34   5     0.00000     0.00000     1.25520  0.0
     24     30     31     32   5     7.23832    -1.46440     1.74054  0.0
     24     30     31     35   5     0.00000     0.00000     1.25520  0.0
     24     30     31     37   5     4.74884    -0.63178     1.67360  0.0
     33     30     31     32   5     0.00000     0.00000     1.95811  0.0
     33     30     31     35   5     0.00000     0.00000     1.25520  0.0
     33     30     31     37   5     0.00000     0.00000     1.25520  0.0
     34     30     31     32   5     0.00000     0.00000     1.95811  0.0
     34     30     31     35   5     0.00000     0.00000     1.25520  0.0
     34     30     31     37   5     0.00000     0.00000     1.25520  0.0
     30     31     32     36   5    -0.97069    -0.79078     1.77820  0.0
     35     31     32     36   5     0.00000     0.00000     1.62758  0.0
     37     31     32     36   5    -0.97069    -0.79078     1.77820  0.0
     30     31     37     38   5     4.74884    -0.63178     1.67360  0.0
     30     31     37     40   5     0.00000     0.00000     1.25520  0.0
     30     31     37     41   5     0.00000     0.00000     1.25520  0.0
     32     31     37     38   5     7.23832    -1.46440     1.74054  0.0
     32     31     37     40   5     0.00000     0.00000     1.95811  0.0
     32     31     37     41   5     0.00000     0.00000     1.95811  0.0
     35     31     37     38   5     0.00000     0.00000     1.25520  0.0
     35     31     37     40   5     0.00000     0.00000     1.25520  0.0
     35     31     37     41   5     0.00000     0.00000     1.25520  0.0
     31     37     38     39   5     7.23832    -1.46440     1.74054  0.0
     31     37     38     42   5     0.00000     0.00000     1.25520  0.0
     31     37     38     44   5     4.74884    -0.63178     1.67360  0.0
     40     37     38     39   5     0.00000     0.00000     1.95811  0.0
     40     37     38     42   5     0.00000     0.00000     1.25520  0.0
     40     37     38     44   5     0.00000     0.00000     1.25520  0.0
     41     37     38     39   5     0.00000     0.00000     1.95811  0.0
     41     37     38     42   5     0.00000     0.00000     1.25520  0.0
     41     37     38     44   5     0.00000     0.00000     1.25520  0.0
     37     38     39     43   5    -0.97069    -0.79078     1.77820  0.0
     42     38     39     43   5     0.00000     0.00000     1.62758  0.0
     44     38     39     43   5    -0.97069    -0.79078     1.77820  0.0
     37     38     44     45   5     4.74884    -0.63178     1.67360  0.0
     37     38     44     47   5     0.00000     0.00000     1.25520  0.0
     37     38     44     48   5     0.00000     0.00000     1.25520  0.0
     39     38     44     45   5     7.23832    -1.46440     1.74054  0.0
     39     38     44     47   5     0.00000     0.00000     1.95811  0.0
     39     38     44     48   5     0.00000     0.00000     1.95811  0.0
     42     38     44     45   5     0.00000     0.00000     1.25520  0.0
     42     38     44     47   5     0.00000     0.00000     1.25520  0.0
     42     38     44     48   5     0.00000     0.00000     1.25520  0.0
     38     44     45     46   5     7.23832    -1.46440     1.74054  0.0
     38     44     45     49   5     0.00000     0.00000     1.25520  0.0
     38     44     45     51   5     4.74884    -0.63178     1.67360  0.0
     47     44     45     46   5     0.00000     0.00000     1.95811  0.0
     47     44     45     49   5     0.00000     0.00000     1.25520  0.0
     47     44     45     51   5     0.00000     0.00000     1.25520  0.0
     48     44     45     46   5     0.00000     0.00000     1.95811  0.0
     48     44     45     49   5     0.00000     0.00000     1.25520  0.0
     48     44     45     51   5     0.00000     0.00000     1.25520  0.0
     44     45     46     50   5    -0.97069    -0.79078     1.77820  0.0
     49     45     46     50   5     0.00000     0.00000     1.62758  0.0
     51     45     46     50   5    -0.97069    -0.79078     1.77820  0.0
     44     45     51     52   5     4.74884    -0.63178     1.67360  0.0
     44     45     51     54   5     0.00000     0.00000     1.25520  0.0
     44     45     51     55   5     0.00000     0.00000     1.25520  0.0
     46     45     51     52   5     7.23832    -1.46440     1.74054  0.0
     46     45     51     54   5     0.00000     0.00000     1.95811  0.0
     46     45     51     55   5     0.00000     0.00000     1.95811  0.0
     49     45     51     52   5     0.00000     0.00000     1.25520  0.0
     49     45     51     54   5     0.00000     0.00000     1.25520  0.0
     49     45     51     55   5     0.00000     0.00000     1.25520  0.0
     45     51     52     53   5     7.23832    -1.46440     1.74054  0.0
     45     51     52     56   5     0.00000     0.00000     1.25520  0.0
     45     51     52     58   5     4.74884    -0.63178     1.67360  0.0
     54     51     52     53   5     0.00000     0.00000     1.95811  0.0
     54     51     52     56   5     0.00000     0.00000     1.25520  0.0
     54     51     52     58   5     0.00000     0.00000     1.25520  0.0
     55     51     52     53   5     0.00000     0.00000     1.95811  0.0
     55     51     52     56   5     0.00000     0.00000     1.25520  0.0
     55     51     52     58   5     0.00000     0.00000     1.25520  0.0
     51     52     53     57   5    -0.97069    -0.79078     1.77820  0.0
     56     52     53     57   5     0.00000     0.00000     1.62758  0.0
     58     52     53     57   5    -0.97069    -0.79078     1.77820  0.0
     51     52     58     59   5     4.74884    -0.63178     1.67360  0.0
     51     52     58     61   5     0.00000     0.00000     1.25520  0.0
     51     52     58     62   5     0.00000     0.00000     1.25520  0.0
     53     52     58     59   5     7.23832    -1.46440     1.74054  0.0
     53     52     58     61   5     0.00000     0.00000     1.95811  0.0
     53     52     58     62   5     0.00000     0.00000     1.95811  0.0
     56     52     58     59   5     0.00000     0.00000     1.25520  0.0
     56     52     58     61   5     0.00000     0.00000     1.25520  0.0
     56     52     58     62   5     0.00000     0.00000     1.25520  0.0
     52     58     59     60   5     7.23832    -1.46440     1.74054  0.0
     52     58     59     63   5     0.00000     0.00000     1.25520  0.0
     52     58     59     65   5     4.74884    -0.63178     1.67360  0.0
     61     58     59     60   5     0.00000     0.00000     1.95811  0.0
     61     58     59     63   5     0.00000     0.00000     1.25520  0.0
     61     58     59     65   5     0.00000     0.00000     1.25520  0.0
     62     58     59     60   5     0.00000     0.00000     1.95811  0.0
     62     58     59     63   5     0.00000     0.00000     1.25520  0.0
     62     58     59     65   5     0.00000     0.00000     1.25520  0.0
     58     59     60     64   5    -0.97069    -0.79078     1.77820  0.0
     63     59     60     64   5     0.00000     0.00000     1.62758  0.0
     65     59     60     64   5    -0.97069    -0.79078     1.77820  0.0
     58     59     65     66   5     4.74884    -0.63178     1.67360  0.0
     58     59     65     68   5     0.00000     0.00000     1.25520  0.0
     58     59     65     69   5     0.00000     0.00000     1.25520  0.0
     60     59     65     66   5     7.23832    -1.46440     1.74054  0.0
     60     59     65     68   5     0.00000     0.00000     1.95811  0.0
     60     59     65     69   5     0.00000     0.00000     1.95811  0.0
     63     59     65     66   5     0.00000     0.00000     1.25520  0.0
     63     59     65     68   5     0.00000     0.00000     1.25520  0.0
     63     59     65     69   5     0.00000     0.00000     1.25520  0.0
     59     65     66     67   5     7.23832    -1.46440     1.74054  0.0
     59     65     66     70   5     0.00000     0.00000     1.25520  0.0
     59     65     66     72   5     4.74884    -0.63178     1.67360  0.0
     68     65     66     67   5     0.00000     0.00000     1.95811  0.0
     68     65     66     70   5     0.00000     0.00000     1.25520  0.0
     68     65     66     72   5     0.00000     0.00000     1.25520  0.0
     69     65     66     67   5     0.00000     0.00000     1.95811  0.0
     69     65     66     70   5     0.00000     0.00000     1.25520  0.0
     69     65     66     72   5     0.00000     0.00000     1.25520  0.0
     65     66     67     71   5    -0.97069    -0.79078     1.77820  0.0
     70     66     67     71   5     0.00000     0.00000     1.62758  0.0
     72     66     67     71   5    -0.97069    -0.79078     1.77820  0.0
     65     66     72     73   5     4.74884    -0.63178     1.67360  0.0
     65     66     72     75   5     0.00000     0.00000     1.25520  0.0
     65     66     72     76   5     0.00000     0.00000     1.25520  0.0
     67     66     72     73   5     7.23832    -1.46440     1.74054  0.0
     67     66     72     75   5     0.00000     0.00000     1.95811  0.0
     67     66     72     76   5     0.00000     0.00000     1.95811  0.0
     70     66     72     73   5     0.00000     0.00000     1.25520  0.0
     70     66     72     75   5     0.00000     0.00000     1.25520  0.0
     70     66     72     76   5     0.00000     0.00000     1.25520  0.0
     66     72     73     74   5     7.23832    -1.46440     1.74054  0.0
     66     72     73     77   5     0.00000     0.00000     1.25520  0.0
     66     72     73     79   5     4.74884    -0.63178     1.67360  0.0
     75     72     73     74   5     0.00000     0.00000     1.95811  0.0
     75     72     73     77   5     0.00000     0.00000     1.25520  0.0
     75     72     73     79   5     0.00000     0.00000     1.25520  0.0
     76     72     73     74   5     0.00000     0.00000     1.95811  0.0
     76     72     73     77   5     0.00000     0.00000     1.25520  0.0
     76     72     73     79   5     0.00000     0.00000     1.25520  0.0
     72     73     74     78   5    -0.97069    -0.79078     1.77820  0.0
     77     73     74     78   5     0.00000     0.00000     1.62758  0.0
     79     73     74     78   5    -0.97069    -0.79078     1.77820  0.0
     72     73     79     80   5     4.74884    -0.63178     1.67360  0.0
     72     73     79     82   5     0.00000     0.00000     1.25520  0.0
     72     73     79     83   5     0.00000     0.00000     1.25520  0.0
     74     73     79     80   5     7.23832    -1.46440     1.74054  0.0
     74     73     79     82   5     0.00000     0.00000     1.95811  0.0
     74     73     79     83   5     0.00000     0.00000     1.95811  0.0
     77     73     79     80   5     0.00000     0.00000     1.25520  0.0
     77     73     79     82   5     0.00000     0.00000     1.25520  0.0
     77     73     79     83   5     0.00000     0.00000     1.25520  0.0
     73     79     80     81   5     7.23832    -1.46440     1.74054  0.0
     73     79     80     84   5     0.00000     0.00000     1.25520  0.0
     73     79     80     86   5     4.74884    -0.63178     1.67360  0.0
     82     79     80     81   5     0.00000     0.00000     1.95811  0.0
     82     79     80     84   5     0.00000     0.00000     1.25520  0.0
     82     79     80     86   5     0.00000     0.00000     1.25520  0.0
     83     79     80     81   5     0.00000     0.00000     1.95811  0.0
     83     79     80     84   5     0.00000     0.00000     1.25520  0.0
     83     79     80     86   5     0.00000     0.00000     1.25520  0.0
     79     80     81     85   5    -0.97069    -0.79078     1.77820  0.0
     84     80     81     85   5     0.00000     0.00000     1.62758  0.0
     86     80     81     85   5    -0.97069    -0.79078     1.77820  0.0
     79     80     86     87   5     4.74884    -0.63178     1.67360  0.0
     79     80     86     89   5     0.00000     0.00000     1.25520  0.0
     79     80     86     90   5     0.00000     0.00000     1.25520  0.0
     81     80     86     87   5     7.23832    -1.46440     1.74054  0.0
     81     80     86     89   5     0.00000     0.00000     1.95811  0.0
     81     80     86     90   5     0.00000     0.00000     1.95811  0.0
     84     80     86     87   5     0.00000     0.00000     1.25520  0.0
     84     80     86     89   5     0.00000     0.00000     1.25520  0.0
     84     80     86     90   5     0.00000     0.00000     1.25520  0.0
     80     86     87     88   5     7.23832    -1.46440     1.74054  0.0
     80     86     87     91   5     0.00000     0.00000     1.25520  0.0
     80     86     87     93   5     4.74884    -0.63178     1.67360  0.0
     89     86     87     88   5     0.00000     0.00000     1.95811  0.0
     89     86     87     91   5     0.00000     0.00000     1.25520  0.0
     89     86     87     93   5     0.00000     0.00000     1.25520  0.0
     90     86     87     88   5     0.00000     0.00000     1.95811  0.0
     90     86     87     91   5     0.00000     0.00000     1.25520  0.0
     90     86     87     93   5     0.00000     0.00000     1.25520  0.0
     86     87     88     92   5    -0.97069    -0.79078     1.77820  0.0
     91     87     88     92   5     0.00000     0.00000     1.62758  0.0
     93     87     88     92   5    -0.97069    -0.79078     1.77820  0.0
     86     87     93     94   5     4.74884    -0.63178     1.67360  0.0
     86     87     93     96   5     0.00000     0.00000     1.25520  0.0
     86     87     93     97   5     0.00000     0.00000     1.25520  0.0
     88     87     93     94   5     7.23832    -1.46440     1.74054  0.0
     88     87     93     96   5     0.00000     0.00000     1.95811  0.0
     88     87     93     97   5     0.00000     0.00000     1.95811  0.0
     91     87     93     94   5     0.00000     0.00000     1.25520  0.0
     91     87     93     96   5     0.00000     0.00000     1.25520  0.0
     91     87     93     97   5     0.00000     0.00000     1.25520  0.0
     87     93     94     95   5     7.23832    -1.46440     1.74054  0.0
     87     93     94     98   5     0.00000     0.00000     1.25520  0.0
     87     93     94    100   5     4.74884    -0.63178     1.67360  0.0
     96     93     94     95   5     0.00000     0.00000     1.95811  0.0
     96     93     94     98   5     0.00000     0.00000     1.25520  0.0
     96     93     94    100   5     0.00000     0.00000     1.25520  0.0
     97     93     94     95   5     0.00000     0.00000     1.95811  0.0
     97     93     94     98   5     0.00000     0.00000     1.25520  0.0
     97     93     94    100   5     0.00000     0.00000     1.25520  0.0
     93     94     95     99   5    -0.97069    -0.79078     1.77820  0.0
     98     94     95     99   5     0.00000     0.00000     1.62758  0.0
    100     94     95     99   5    -0.97069    -0.79078     1.77820  0.0
     93     94    100    101   5     4.74884    -0.63178     1.67360  0.0
     93     94    100    103   5     0.00000     0.00000     1.25520  0.0
     93     94    100    104   5     0.00000     0.00000     1.25520  0.0
     95     94    100    101   5     7.23832    -1.46440     1.74054  0.0
     95     94    100    103   5     0.00000     0.00000     1.95811  0.0
     95     94    100    104   5     0.00000     0.00000     1.95811  0.0
     98     94    100    101   5     0.00000     0.00000     1.25520  0.0
     98     94    100    103   5     0.00000     0.00000     1.25520  0.0
     98     94    100    104   5     0.00000     0.00000     1.25520  0.0
     94    100    101    102   5     7.23832    -1.46440     1.74054  0.0
     94    100    101    105   5     0.00000     0.00000     1.25520  0.0
     94    100    101    107   5     4.74884    -0.63178     1.67360  0.0
    103    100    101    102   5     0.00000     0.00000     1.95811  0.0
    103    100    101    105   5     0.00000     0.00000     1.25520  0.0
    103    100    101    107   5     0.00000     0.00000     1.25520  0.0
    104    100    101    102   5     0.00000     0.00000     1.95811  0.0
    104    100    101    105   5     0.00000     0.00000     1.25520  0.0
    104    100    101    107   5     0.00000     0.00000     1.25520  0.0
    100    101    102    106   5    -0.97069    -0.79078     1.77820  0.0
    105    101    102    106   5     0.00000     0.00000     1.62758  0.0
    107    101    102    106   5    -0.97069    -0.79078     1.77820  0.0
    100    101    107    108   5     4.74884    -0.63178     1.67360  0.0
    100    101    107    110   5     0.00000     0.00000     1.25520  0.0
    100    101    107    111   5     0.00000     0.00000     1.25520  0.0
    102    101    107    108   5     7.23832    -1.46440     1.74054  0.0
    102    101    107    110   5     0.00000     0.00000     1.95811  0.0
    102    101    107    111   5     0.00000     0.00000     1.95811  0.0
    105    101    107    108   5     0.00000     0.00000     1.25520  0.0
    105    101    107    110   5     0.00000     0.00000     1.25520  0.0
    105    101    107    111   5     0.00000     0.00000     1.25520  0.0
    101    107    108    109   5     7.23832    -1.46440     1.74054  0.0
    101    107    108    112   5     0.00000     0.00000     1.25520  0.0
    101    107    108    114   5     4.74884    -0.63178     1.67360  0.0
    110    107    108    109   5     0.00000     0.00000     1.95811  0.0
    110    107    108    112   5     0.00000     0.00000     1.25520  0.0
    110    107    108    114   5     0.00000     0.00000     1.25520  0.0
    111    107    108    109   5     0.00000     0.00000     1.95811  0.0
    111    107    108    112   5     0.00000     0.00000     1.25520  0.0
    111    107    108    114   5     0.00000     0.00000     1.25520  0.0
    107    108    109    113   5    -0.97069    -0.79078     1.77820  0.0
    112    108    109    113   5     0.00000     0.00000     1.62758  0.0
    114    108    109    113   5    -0.97069    -0.79078     1.77820  0.0
    107    108    114    115   5     4.74884    -0.63178     1.67360  0.0
    107    108    114    117   5     0.00000     0.00000     1.25520  0.0
    107    108    114    118   5     0.00000     0.00000     1.25520  0.0
    109    108    114    115   5     7.23832    -1.46440     1.74054  0.0
    109    108    114    117   5     0.00000     0.00000     1.95811  0.0
    109    108    114    118   5     0.00000     0.00000     1.95811  0.0
    112    108    114    115   5     0.00000     0.00000     1.25520  0.0
    112    108    114    117   5     0.00000     0.00000     1.25520  0.0
    112    108    114    118   5     0.00000     0.00000     1.25520  0.0
    108    114    115    116   5     7.23832    -1.46440     1.74054  0.0
    108    114    115    119   5     0.00000     0.00000     1.25520  0.0
    108    114    115    121   5     4.74884    -0.63178     1.67360  0.0
    117    114    115    116   5     0.00000     0.00000     1.95811  0.0
    117    114    115    119   5     0.00000     0.00000     1.25520  0.0
    117    114    115    121   5     0.00000     0.00000     1.25520  0.0
    118    114    115    116   5     0.00000     0.00000     1.95811  0.0
    118    114    115    119   5     0.00000     0.00000     1.25520  0.0
    118    114    115    121   5     0.00000     0.00000     1.25520  0.0
    114    115    116    120   5    -0.97069    -0.79078     1.77820  0.0
    119    115    116    120   5     0.00000     0.00000     1.62758  0.0
    121    115    116    120   5    -0.97069    -0.79078     1.77820  0.0
    114    115    121    122   5     4.74884    -0.63178     1.67360  0.0
    114    115    121    124   5     0.00000     0.00000     1.25520  0.0
    114    115    121    125   5     0.00000     0.00000     1.25520  0.0
    116    115    121    122   5     7.23832    -1.46440     1.74054  0.0
    116    115    121    124   5     0.00000     0.00000     1.95811  0.0
    116    115    121    125   5     0.00000     0.00000     1.95811  0.0
    119    115    121    122   5     0.00000     0.00000     1.25520  0.0
    119    115    121    124   5     0.00000     0.00000     1.25520  0.0
    119    115    121    125   5     0.00000     0.00000     1.25520  0.0
    115    121    122    123   5     7.23832    -1.46440     1.74054  0.0
    115    121    122    126   5     0.00000     0.00000     1.25520  0.0
    115    121    122    128   5     4.74884    -0.63178     1.67360  0.0
    124    121    122    123   5     0.00000     0.00000     1.95811  0.0
    124    121    122    126   5     0.00000     0.00000     1.25520  0.0
    124    121    122    128   5     0.00000     0.00000     1.25520  0.0
    125    121    122    123   5     0.00000     0.00000     1.95811  0.0
    125    121    122    126   5     0.00000     0.00000     1.25520  0.0
    125    121    122    128   5     0.00000     0.00000     1.25520  0.0
    121    122    123    127   5    -0.97069    -0.79078     1.77820  0.0
    126    122    123    127   5     0.00000     0.00000     1.62758  0.0
    128    122    123    127   5    -0.97069    -0.79078     1.77820  0.0
    121    122    128    129   5     4.74884    -0.63178     1.67360  0.0
    121    122    128    131   5     0.00000     0.00000     1.25520  0.0
    121    122    128    132   5     0.00000     0.00000     1.25520  0.0
    123    122    128    129   5     7.23832    -1.46440     1.74054  0.0
    123    122    128    131   5     0.00000     0.00000     1.95811  0.0
    123    122    128    132   5     0.00000     0.00000     1.95811  0.0
    126    122    128    129   5     0.00000     0.00000     1.25520  0.0
    126    122    128    131   5     0.00000     0.00000     1.25520  0.0
    126    122    128    132   5     0.00000     0.00000     1.25520  0.0
    122    128    129    130   5     7.23832    -1.46440     1.74054  0.0
    122    128    129    133   5     0.00000     0.00000     1.25520  0.0
    122    128    129    135   5     4.74884    -0.63178     1.67360  0.0
    131    128    129    130   5     0.00000     0.00000     1.95811  0.0
    131    128    129    133   5     0.00000     0.00000     1.25520  0.0
    131    128    129    135   5     0.00000     0.00000     1.25520  0.0
    132    128    129    130   5     0.00000     0.00000     1.95811  0.0
    132    128    129    133   5     0.00000     0.00000     1.25520  0.0
    132    128    129    135   5     0.00000     0.00000     1.25520  0.0
    128    129    130    134   5    -0.97069    -0.79078     1.77820  0.0
    133    129    130    134   5     0.00000     0.00000     1.62758  0.0
    135    129    130    134   5    -0.97069    -0.79078     1.77820  0.0
    128    129    135    136   5     4.74884    -0.63178     1.67360  0.0
    128    129    135    138   5     0.00000     0.00000     1.25520  0.0
    128    129    135    139   5     0.00000     0.00000     1.25520  0.0
    130    129    135    136   5     7.23832    -1.46440     1.74054  0.0
    130    129    135    138   5     0.00000     0.00000     1.95811  0.0
    130    129    135    139   5     0.00000     0.00000     1.95811  0.0
    133    129    135    136   5     0.00000     0.00000     1.25520  0.0
    133    129    135    138   5     0.00000     0.00000     1.25520  0.0
    133    129    135    139   5     0.00000     0.00000     1.25520  0.0
    129    135    136    137   5     7.23832    -1.46440     1.74054  0.0
    129    135    136    140   5     0.00000     0.00000     1.25520  0.0
    129    135    136    142   5     0.00000     0.00000     1.25520  0.0
    138    135    136    137   5     0.00000     0.00000     1.95811  0.0
    138    135    136    140   5     0.00000     0.00000     1.25520  0.0
    138    135    136    142   5     0.00000     0.00000     1.25520  0.0
    139    135    136    137   5     0.00000     0.00000     1.95811  0.0
    139    135    136    140   5     0.00000     0.00000     1.25520  0.0
    139    135    136    142   5     0.00000     0.00000     1.25520  0.0
    135    136    137    141   5    -0.97069    -0.79078     1.77820  0.0
    140    136    137    141   5     0.00000     0.00000     1.62758  0.0
    142    136    137    141   5     0.00000     0.00000     1.62758  0.0
