;
; Gromacs include topology (itp) file.
; For Molecular Group XYZ
; Force field scheme: opls2005
; Produced from DL_FIELD v4.11
;


[ moleculetype ]
; name    nrexcl
XYZ    3

[ atoms ]
; nr   type   resnr   residu    atom    cgnr    charge    mass
    1        CT    1  MOL      C1     1  -0.1800000   12.0115
    2        CT    1  MOL      C2     2  -0.0600000   12.0115
    3       CO4    1  MOL      C3     3   0.4700000   12.0115
    4         O    1  MOL      O4     4  -0.4700000   15.9994
    5        CT    1  MOL      C5     5  -0.1800000   12.0115
    6        HC    1  MOL      H6     6   0.0600000    1.0080
    7        HC    1  MOL      H7     7   0.0600000    1.0080
    8       HAE    1  MOL      H8     8   0.0600000    1.0080
    9       HAE    1  MOL      H9     9   0.0600000    1.0080
   10       HAE    1  MOL     H10    10   0.0600000    1.0080
   11       HAE    1  MOL     H11    11   0.0600000    1.0080
   12        HC    1  MOL     H12    12   0.0600000    1.0080
   13        CT    1  MOL     C13    13  -0.1200000   12.0115
   14        CT    1  MOL     C14    14  -0.0600000   12.0115
   15       CO4    1  MOL     C15    15   0.4700000   12.0115
   16         O    1  MOL     O16    16  -0.4700000   15.9994
   17        CT    1  MOL     C17    17  -0.1800000   12.0115
   18        HC    1  MOL     H18    18   0.0600000    1.0080
   19        HC    1  MOL     H19    19   0.0600000    1.0080
   20       HAE    1  MOL     H20    20   0.0600000    1.0080
   21       HAE    1  MOL     H21    21   0.0600000    1.0080
   22       HAE    1  MOL     H22    22   0.0600000    1.0080
   23       HAE    1  MOL     H23    23   0.0600000    1.0080
   24        CT    1  MOL     C24    24  -0.1200000   12.0115
   25        CT    1  MOL     C25    25  -0.0600000   12.0115
   26       CO4    1  MOL     C26    26   0.4700000   12.0115
   27         O    1  MOL     O27    27  -0.4700000   15.9994
   28        CT    1  MOL     C28    28  -0.1800000   12.0115
   29        HC    1  MOL     H29    29   0.0600000    1.0080
   30        HC    1  MOL     H30    30   0.0600000    1.0080
   31       HAE    1  MOL     H31    31   0.0600000    1.0080
   32       HAE    1  MOL     H32    32   0.0600000    1.0080
   33       HAE    1  MOL     H33    33   0.0600000    1.0080
   34       HAE    1  MOL     H34    34   0.0600000    1.0080
   35        CT    1  MOL     C35    35  -0.1200000   12.0115
   36        CT    1  MOL     C36    36  -0.0600000   12.0115
   37       CO4    1  MOL     C37    37   0.4700000   12.0115
   38         O    1  MOL     O38    38  -0.4700000   15.9994
   39        CT    1  MOL     C39    39  -0.1800000   12.0115
   40        HC    1  MOL     H40    40   0.0600000    1.0080
   41        HC    1  MOL     H41    41   0.0600000    1.0080
   42       HAE    1  MOL     H42    42   0.0600000    1.0080
   43       HAE    1  MOL     H43    43   0.0600000    1.0080
   44       HAE    1  MOL     H44    44   0.0600000    1.0080
   45       HAE    1  MOL     H45    45   0.0600000    1.0080
   46        CT    1  MOL     C46    46  -0.1200000   12.0115
   47        CT    1  MOL     C47    47  -0.0600000   12.0115
   48       CO4    1  MOL     C48    48   0.4700000   12.0115
   49         O    1  MOL     O49    49  -0.4700000   15.9994
   50        CT    1  MOL     C50    50  -0.1800000   12.0115
   51        HC    1  MOL     H51    51   0.0600000    1.0080
   52        HC    1  MOL     H52    52   0.0600000    1.0080
   53       HAE    1  MOL     H53    53   0.0600000    1.0080
   54       HAE    1  MOL     H54    54   0.0600000    1.0080
   55       HAE    1  MOL     H55    55   0.0600000    1.0080
   56       HAE    1  MOL     H56    56   0.0600000    1.0080
   57        CT    1  MOL     C57    57  -0.1200000   12.0115
   58        CT    1  MOL     C58    58  -0.0600000   12.0115
   59       CO4    1  MOL     C59    59   0.4700000   12.0115
   60         O    1  MOL     O60    60  -0.4700000   15.9994
   61        CT    1  MOL     C61    61  -0.1800000   12.0115
   62        HC    1  MOL     H62    62   0.0600000    1.0080
   63        HC    1  MOL     H63    63   0.0600000    1.0080
   64       HAE    1  MOL     H64    64   0.0600000    1.0080
   65       HAE    1  MOL     H65    65   0.0600000    1.0080
   66       HAE    1  MOL     H66    66   0.0600000    1.0080
   67       HAE    1  MOL     H67    67   0.0600000    1.0080
   68        CT    1  MOL     C68    68  -0.1200000   12.0115
   69        CT    1  MOL     C69    69  -0.0600000   12.0115
   70       CO4    1  MOL     C70    70   0.4700000   12.0115
   71         O    1  MOL     O71    71  -0.4700000   15.9994
   72        CT    1  MOL     C72    72  -0.1800000   12.0115
   73        HC    1  MOL     H73    73   0.0600000    1.0080
   74        HC    1  MOL     H74    74   0.0600000    1.0080
   75       HAE    1  MOL     H75    75   0.0600000    1.0080
   76       HAE    1  MOL     H76    76   0.0600000    1.0080
   77       HAE    1  MOL     H77    77   0.0600000    1.0080
   78       HAE    1  MOL     H78    78   0.0600000    1.0080
   79        CT    1  MOL     C79    79  -0.1200000   12.0115
   80        CT    1  MOL     C80    80  -0.0600000   12.0115
   81       CO4    1  MOL     C81    81   0.4700000   12.0115
   82         O    1  MOL     O82    82  -0.4700000   15.9994
   83        CT    1  MOL     C83    83  -0.1800000   12.0115
   84        HC    1  MOL     H84    84   0.0600000    1.0080
   85        HC    1  MOL     H85    85   0.0600000    1.0080
   86       HAE    1  MOL     H86    86   0.0600000    1.0080
   87       HAE    1  MOL     H87    87   0.0600000    1.0080
   88       HAE    1  MOL     H88    88   0.0600000    1.0080
   89       HAE    1  MOL     H89    89   0.0600000    1.0080
   90        CT    1  MOL     C90    90  -0.1200000   12.0115
   91        CT    1  MOL     C91    91  -0.0600000   12.0115
   92       CO4    1  MOL     C92    92   0.4700000   12.0115
   93         O    1  MOL     O93    93  -0.4700000   15.9994
   94        CT    1  MOL     C94    94  -0.1800000   12.0115
   95        HC    1  MOL     H95    95   0.0600000    1.0080
   96        HC    1  MOL     H96    96   0.0600000    1.0080
   97       HAE    1  MOL     H97    97   0.0600000    1.0080
   98       HAE    1  MOL     H98    98   0.0600000    1.0080
   99       HAE    1  MOL     H99    99   0.0600000    1.0080
  100       HAE    1  MOL    H100   100   0.0600000    1.0080
  101        CT    1  MOL    C101   101  -0.1200000   12.0115
  102        CT    1  MOL    C102   102  -0.0600000   12.0115
  103       CO4    1  MOL    C103   103   0.4700000   12.0115
  104         O    1  MOL    O104   104  -0.4700000   15.9994
  105        CT    1  MOL    C105   105  -0.1800000   12.0115
  106        HC    1  MOL    H106   106   0.0600000    1.0080
  107        HC    1  MOL    H107   107   0.0600000    1.0080
  108       HAE    1  MOL    H108   108   0.0600000    1.0080
  109       HAE    1  MOL    H109   109   0.0600000    1.0080
  110       HAE    1  MOL    H110   110   0.0600000    1.0080
  111       HAE    1  MOL    H111   111   0.0600000    1.0080
  112        CT    1  MOL    C112   112  -0.1200000   12.0115
  113        CT    1  MOL    C113   113  -0.0600000   12.0115
  114       CO4    1  MOL    C114   114   0.4700000   12.0115
  115         O    1  MOL    O115   115  -0.4700000   15.9994
  116        CT    1  MOL    C116   116  -0.1800000   12.0115
  117        HC    1  MOL    H117   117   0.0600000    1.0080
  118        HC    1  MOL    H118   118   0.0600000    1.0080
  119       HAE    1  MOL    H119   119   0.0600000    1.0080
  120       HAE    1  MOL    H120   120   0.0600000    1.0080
  121       HAE    1  MOL    H121   121   0.0600000    1.0080
  122       HAE    1  MOL    H122   122   0.0600000    1.0080
  123        CT    1  MOL    C123   123  -0.1200000   12.0115
  124        CT    1  MOL    C124   124  -0.0600000   12.0115
  125       CO4    1  MOL    C125   125   0.4700000   12.0115
  126         O    1  MOL    O126   126  -0.4700000   15.9994
  127        CT    1  MOL    C127   127  -0.1800000   12.0115
  128        HC    1  MOL    H128   128   0.0600000    1.0080
  129        HC    1  MOL    H129   129   0.0600000    1.0080
  130       HAE    1  MOL    H130   130   0.0600000    1.0080
  131       HAE    1  MOL    H131   131   0.0600000    1.0080
  132       HAE    1  MOL    H132   132   0.0600000    1.0080
  133       HAE    1  MOL    H133   133   0.0600000    1.0080
  134        CT    1  MOL    C134   134  -0.1200000   12.0115
  135        CT    1  MOL    C135   135  -0.0600000   12.0115
  136       CO4    1  MOL    C136   136   0.4700000   12.0115
  137         O    1  MOL    O137   137  -0.4700000   15.9994
  138        CT    1  MOL    C138   138  -0.1800000   12.0115
  139        HC    1  MOL    H139   139   0.0600000    1.0080
  140        HC    1  MOL    H140   140   0.0600000    1.0080
  141       HAE    1  MOL    H141   141   0.0600000    1.0080
  142       HAE    1  MOL    H142   142   0.0600000    1.0080
  143       HAE    1  MOL    H143   143   0.0600000    1.0080
  144       HAE    1  MOL    H144   144   0.0600000    1.0080
  145        CT    1  MOL    C145   145  -0.1200000   12.0115
  146        CT    1  MOL    C146   146  -0.0600000   12.0115
  147       CO4    1  MOL    C147   147   0.4700000   12.0115
  148         O    1  MOL    O148   148  -0.4700000   15.9994
  149        CT    1  MOL    C149   149  -0.1800000   12.0115
  150        HC    1  MOL    H150   150   0.0600000    1.0080
  151        HC    1  MOL    H151   151   0.0600000    1.0080
  152       HAE    1  MOL    H152   152   0.0600000    1.0080
  153       HAE    1  MOL    H153   153   0.0600000    1.0080
  154       HAE    1  MOL    H154   154   0.0600000    1.0080
  155       HAE    1  MOL    H155   155   0.0600000    1.0080
  156        CT    1  MOL    C156   156  -0.1200000   12.0115
  157        CT    1  MOL    C157   157  -0.0600000   12.0115
  158       CO4    1  MOL    C158   158   0.4700000   12.0115
  159         O    1  MOL    O159   159  -0.4700000   15.9994
  160        CT    1  MOL    C160   160  -0.1800000   12.0115
  161        HC    1  MOL    H161   161   0.0600000    1.0080
  162        HC    1  MOL    H162   162   0.0600000    1.0080
  163       HAE    1  MOL    H163   163   0.0600000    1.0080
  164       HAE    1  MOL    H164   164   0.0600000    1.0080
  165       HAE    1  MOL    H165   165   0.0600000    1.0080
  166       HAE    1  MOL    H166   166   0.0600000    1.0080
  167        CT    1  MOL    C167   167  -0.1200000   12.0115
  168        CT    1  MOL    C168   168  -0.0600000   12.0115
  169       CO4    1  MOL    C169   169   0.4700000   12.0115
  170         O    1  MOL    O170   170  -0.4700000   15.9994
  171        CT    1  MOL    C171   171  -0.1800000   12.0115
  172        HC    1  MOL    H172   172   0.0600000    1.0080
  173        HC    1  MOL    H173   173   0.0600000    1.0080
  174       HAE    1  MOL    H174   174   0.0600000    1.0080
  175       HAE    1  MOL    H175   175   0.0600000    1.0080
  176       HAE    1  MOL    H176   176   0.0600000    1.0080
  177       HAE    1  MOL    H177   177   0.0600000    1.0080
  178        CT    1  MOL    C178   178  -0.1200000   12.0115
  179        CT    1  MOL    C179   179  -0.0600000   12.0115
  180       CO4    1  MOL    C180   180   0.4700000   12.0115
  181         O    1  MOL    O181   181  -0.4700000   15.9994
  182        CT    1  MOL    C182   182  -0.1800000   12.0115
  183        HC    1  MOL    H183   183   0.0600000    1.0080
  184        HC    1  MOL    H184   184   0.0600000    1.0080
  185       HAE    1  MOL    H185   185   0.0600000    1.0080
  186       HAE    1  MOL    H186   186   0.0600000    1.0080
  187       HAE    1  MOL    H187   187   0.0600000    1.0080
  188       HAE    1  MOL    H188   188   0.0600000    1.0080
  189        CT    1  MOL    C189   189  -0.1200000   12.0115
  190        CT    1  MOL    C190   190  -0.0600000   12.0115
  191       CO4    1  MOL    C191   191   0.4700000   12.0115
  192         O    1  MOL    O192   192  -0.4700000   15.9994
  193        CT    1  MOL    C193   193  -0.1800000   12.0115
  194        HC    1  MOL    H194   194   0.0600000    1.0080
  195        HC    1  MOL    H195   195   0.0600000    1.0080
  196       HAE    1  MOL    H196   196   0.0600000    1.0080
  197       HAE    1  MOL    H197   197   0.0600000    1.0080
  198       HAE    1  MOL    H198   198   0.0600000    1.0080
  199       HAE    1  MOL    H199   199   0.0600000    1.0080
  200        CT    1  MOL    C200   200  -0.1200000   12.0115
  201        CT    1  MOL    C201   201  -0.0600000   12.0115
  202       CO4    1  MOL    C202   202   0.4700000   12.0115
  203         O    1  MOL    O203   203  -0.4700000   15.9994
  204        CT    1  MOL    C204   204  -0.1800000   12.0115
  205        HC    1  MOL    H205   205   0.0600000    1.0080
  206        HC    1  MOL    H206   206   0.0600000    1.0080
  207       HAE    1  MOL    H207   207   0.0600000    1.0080
  208       HAE    1  MOL    H208   208   0.0600000    1.0080
  209       HAE    1  MOL    H209   209   0.0600000    1.0080
  210       HAE    1  MOL    H210   210   0.0600000    1.0080
  211        CT    1  MOL    C211   211  -0.1200000   12.0115
  212        CT    1  MOL    C212   212  -0.1200000   12.0115
  213       CO4    1  MOL    C213   213   0.4700000   12.0115
  214         O    1  MOL    O214   214  -0.4700000   15.9994
  215        CT    1  MOL    C215   215  -0.1800000   12.0115
  216        HC    1  MOL    H216   216   0.0600000    1.0080
  217        HC    1  MOL    H217   217   0.0600000    1.0080
  218       HAE    1  MOL    H218   218   0.0600000    1.0080
  219       HAE    1  MOL    H219   219   0.0600000    1.0080
  220       HAE    1  MOL    H220   220   0.0600000    1.0080
  221       HAE    1  MOL    H221   221   0.0600000    1.0080
  222       HAE    1  MOL    H222   222   0.0600000    1.0080

[ bonds ]
      1      2   1      0.1529 224262.4000
      1      6   1      0.1090 284512.0000
      1      7   1      0.1090 284512.0000
      1     12   1      0.1090 284512.0000
      2      3   1      0.1522 265265.6000
      2      8   1      0.1090 284512.0000
      2     13   1      0.1529 224262.4000
      3      4   1      0.1229 476976.0000
      3      5   1      0.1522 265265.6000
      5      9   1      0.1090 284512.0000
      5     10   1      0.1090 284512.0000
      5     11   1      0.1090 284512.0000
     13     14   1      0.1529 224262.4000
     13     18   1      0.1090 284512.0000
     13     19   1      0.1090 284512.0000
     14     15   1      0.1522 265265.6000
     14     20   1      0.1090 284512.0000
     14     24   1      0.1529 224262.4000
     15     16   1      0.1229 476976.0000
     15     17   1      0.1522 265265.6000
     17     21   1      0.1090 284512.0000
     17     22   1      0.1090 284512.0000
     17     23   1      0.1090 284512.0000
     24     25   1      0.1529 224262.4000
     24     29   1      0.1090 284512.0000
     24     30   1      0.1090 284512.0000
     25     26   1      0.1522 265265.6000
     25     31   1      0.1090 284512.0000
     25     35   1      0.1529 224262.4000
     26     27   1      0.1229 476976.0000
     26     28   1      0.1522 265265.6000
     28     32   1      0.1090 284512.0000
     28     33   1      0.1090 284512.0000
     28     34   1      0.1090 284512.0000
     35     36   1      0.1529 224262.4000
     35     40   1      0.1090 284512.0000
     35     41   1      0.1090 284512.0000
     36     37   1      0.1522 265265.6000
     36     42   1      0.1090 284512.0000
     36     46   1      0.1529 224262.4000
     37     38   1      0.1229 476976.0000
     37     39   1      0.1522 265265.6000
     39     43   1      0.1090 284512.0000
     39     44   1      0.1090 284512.0000
     39     45   1      0.1090 284512.0000
     46     47   1      0.1529 224262.4000
     46     51   1      0.1090 284512.0000
     46     52   1      0.1090 284512.0000
     47     48   1      0.1522 265265.6000
     47     53   1      0.1090 284512.0000
     47     57   1      0.1529 224262.4000
     48     49   1      0.1229 476976.0000
     48     50   1      0.1522 265265.6000
     50     54   1      0.1090 284512.0000
     50     55   1      0.1090 284512.0000
     50     56   1      0.1090 284512.0000
     57     58   1      0.1529 224262.4000
     57     62   1      0.1090 284512.0000
     57     63   1      0.1090 284512.0000
     58     59   1      0.1522 265265.6000
     58     64   1      0.1090 284512.0000
     58     68   1      0.1529 224262.4000
     59     60   1      0.1229 476976.0000
     59     61   1      0.1522 265265.6000
     61     65   1      0.1090 284512.0000
     61     66   1      0.1090 284512.0000
     61     67   1      0.1090 284512.0000
     68     69   1      0.1529 224262.4000
     68     73   1      0.1090 284512.0000
     68     74   1      0.1090 284512.0000
     69     70   1      0.1522 265265.6000
     69     75   1      0.1090 284512.0000
     69     79   1      0.1529 224262.4000
     70     71   1      0.1229 476976.0000
     70     72   1      0.1522 265265.6000
     72     76   1      0.1090 284512.0000
     72     77   1      0.1090 284512.0000
     72     78   1      0.1090 284512.0000
     79     80   1      0.1529 224262.4000
     79     84   1      0.1090 284512.0000
     79     85   1      0.1090 284512.0000
     80     81   1      0.1522 265265.6000
     80     86   1      0.1090 284512.0000
     80     90   1      0.1529 224262.4000
     81     82   1      0.1229 476976.0000
     81     83   1      0.1522 265265.6000
     83     87   1      0.1090 284512.0000
     83     88   1      0.1090 284512.0000
     83     89   1      0.1090 284512.0000
     90     91   1      0.1529 224262.4000
     90     95   1      0.1090 284512.0000
     90     96   1      0.1090 284512.0000
     91     92   1      0.1522 265265.6000
     91     97   1      0.1090 284512.0000
     91    101   1      0.1529 224262.4000
     92     93   1      0.1229 476976.0000
     92     94   1      0.1522 265265.6000
     94     98   1      0.1090 284512.0000
     94     99   1      0.1090 284512.0000
     94    100   1      0.1090 284512.0000
    101    102   1      0.1529 224262.4000
    101    106   1      0.1090 284512.0000
    101    107   1      0.1090 284512.0000
    102    103   1      0.1522 265265.6000
    102    108   1      0.1090 284512.0000
    102    112   1      0.1529 224262.4000
    103    104   1      0.1229 476976.0000
    103    105   1      0.1522 265265.6000
    105    109   1      0.1090 284512.0000
    105    110   1      0.1090 284512.0000
    105    111   1      0.1090 284512.0000
    112    113   1      0.1529 224262.4000
    112    117   1      0.1090 284512.0000
    112    118   1      0.1090 284512.0000
    113    114   1      0.1522 265265.6000
    113    119   1      0.1090 284512.0000
    113    123   1      0.1529 224262.4000
    114    115   1      0.1229 476976.0000
    114    116   1      0.1522 265265.6000
    116    120   1      0.1090 284512.0000
    116    121   1      0.1090 284512.0000
    116    122   1      0.1090 284512.0000
    123    124   1      0.1529 224262.4000
    123    128   1      0.1090 284512.0000
    123    129   1      0.1090 284512.0000
    124    125   1      0.1522 265265.6000
    124    130   1      0.1090 284512.0000
    124    134   1      0.1529 224262.4000
    125    126   1      0.1229 476976.0000
    125    127   1      0.1522 265265.6000
    127    131   1      0.1090 284512.0000
    127    132   1      0.1090 284512.0000
    127    133   1      0.1090 284512.0000
    134    135   1      0.1529 224262.4000
    134    139   1      0.1090 284512.0000
    134    140   1      0.1090 284512.0000
    135    136   1      0.1522 265265.6000
    135    141   1      0.1090 284512.0000
    135    145   1      0.1529 224262.4000
    136    137   1      0.1229 476976.0000
    136    138   1      0.1522 265265.6000
    138    142   1      0.1090 284512.0000
    138    143   1      0.1090 284512.0000
    138    144   1      0.1090 284512.0000
    145    146   1      0.1529 224262.4000
    145    150   1      0.1090 284512.0000
    145    151   1      0.1090 284512.0000
    146    147   1      0.1522 265265.6000
    146    152   1      0.1090 284512.0000
    146    156   1      0.1529 224262.4000
    147    148   1      0.1229 476976.0000
    147    149   1      0.1522 265265.6000
    149    153   1      0.1090 284512.0000
    149    154   1      0.1090 284512.0000
    149    155   1      0.1090 284512.0000
    156    157   1      0.1529 224262.4000
    156    161   1      0.1090 284512.0000
    156    162   1      0.1090 284512.0000
    157    158   1      0.1522 265265.6000
    157    163   1      0.1090 284512.0000
    157    167   1      0.1529 224262.4000
    158    159   1      0.1229 476976.0000
    158    160   1      0.1522 265265.6000
    160    164   1      0.1090 284512.0000
    160    165   1      0.1090 284512.0000
    160    166   1      0.1090 284512.0000
    167    168   1      0.1529 224262.4000
    167    172   1      0.1090 284512.0000
    167    173   1      0.1090 284512.0000
    168    169   1      0.1522 265265.6000
    168    174   1      0.1090 284512.0000
    168    178   1      0.1529 224262.4000
    169    170   1      0.1229 476976.0000
    169    171   1      0.1522 265265.6000
    171    175   1      0.1090 284512.0000
    171    176   1      0.1090 284512.0000
    171    177   1      0.1090 284512.0000
    178    179   1      0.1529 224262.4000
    178    183   1      0.1090 284512.0000
    178    184   1      0.1090 284512.0000
    179    180   1      0.1522 265265.6000
    179    185   1      0.1090 284512.0000
    179    189   1      0.1529 224262.4000
    180    181   1      0.1229 476976.0000
    180    182   1      0.1522 265265.6000
    182    186   1      0.1090 284512.0000
    182    187   1      0.1090 284512.0000
    182    188   1      0.1090 284512.0000
    189    190   1      0.1529 224262.4000
    189    194   1      0.1090 284512.0000
    189    195   1      0.1090 284512.0000
    190    191   1      0.1522 265265.6000
    190    196   1      0.1090 284512.0000
    190    200   1      0.1529 224262.4000
    191    192   1      0.1229 476976.0000
    191    193   1      0.1522 265265.6000
    193    197   1      0.1090 284512.0000
    193    198   1      0.1090 284512.0000
    193    199   1      0.1090 284512.0000
    200    201   1      0.1529 224262.4000
    200    205   1      0.1090 284512.0000
    200    206   1      0.1090 284512.0000
    201    202   1      0.1522 265265.6000
    201    207   1      0.1090 284512.0000
    201    211   1      0.1529 224262.4000
    202    203   1      0.1229 476976.0000
    202    204   1      0.1522 265265.6000
    204    208   1      0.1090 284512.0000
    204    209   1      0.1090 284512.0000
    204    210   1      0.1090 284512.0000
    211    212   1      0.1529 224262.4000
    211    216   1      0.1090 284512.0000
    211    217   1      0.1090 284512.0000
    212    213   1      0.1522 265265.6000
    212    218   1      0.1090 284512.0000
    212    222   1      0.1090 284512.0000
    213    214   1      0.1229 476976.0000
    213    215   1      0.1522 265265.6000
    215    219   1      0.1090 284512.0000
    215    220   1      0.1090 284512.0000
    215    221   1      0.1090 284512.0000

[ pairs ]
; ai   aj   funct   fudge_QQ  charge_i   charge_j   c6    c12
      6      3   2   0.50000     0.0600000    0.4700000   3.869820e-04  3.188634e-07
      6      8   2   0.50000     0.0600000    0.0600000   3.930919e-05  8.704828e-09
      6     13   2   0.50000     0.0600000   -0.1200000   2.494471e-04  1.671101e-07
      7      3   2   0.50000     0.0600000    0.4700000   3.869820e-04  3.188634e-07
      7      8   2   0.50000     0.0600000    0.0600000   3.930919e-05  8.704828e-09
      7     13   2   0.50000     0.0600000   -0.1200000   2.494471e-04  1.671101e-07
     12      3   2   0.50000     0.0600000    0.4700000   3.869820e-04  3.188634e-07
     12      8   2   0.50000     0.0600000    0.0600000   3.930919e-05  8.704828e-09
     12     13   2   0.50000     0.0600000   -0.1200000   2.494471e-04  1.671101e-07
      1      4   2   0.50000    -0.1800000   -0.4700000   1.095425e-03  1.218041e-06
      1      5   2   0.50000    -0.1800000   -0.1800000   1.015252e-03  1.866303e-06
      8      4   2   0.50000     0.0600000   -0.4700000   1.726228e-04  6.344822e-08
      8      5   2   0.50000     0.0600000   -0.1800000   1.599888e-04  9.721644e-08
     13      4   2   0.50000    -0.1200000   -0.4700000   1.095425e-03  1.218041e-06
     13      5   2   0.50000    -0.1200000   -0.1800000   1.015252e-03  1.866303e-06
      1     14   2   0.50000    -0.1800000   -0.0600000   1.015252e-03  1.866303e-06
      1     18   2   0.50000    -0.1800000    0.0600000   2.494471e-04  1.671101e-07
      1     19   2   0.50000    -0.1800000    0.0600000   2.494471e-04  1.671101e-07
      3     14   2   0.50000     0.4700000   -0.0600000   1.575021e-03  3.561100e-06
      3     18   2   0.50000     0.4700000    0.0600000   3.869820e-04  3.188634e-07
      3     19   2   0.50000     0.4700000    0.0600000   3.869820e-04  3.188634e-07
      8     14   2   0.50000     0.0600000   -0.0600000   1.599888e-04  9.721644e-08
      8     18   2   0.50000     0.0600000    0.0600000   3.930919e-05  8.704828e-09
      8     19   2   0.50000     0.0600000    0.0600000   3.930919e-05  8.704828e-09
      2      9   2   0.50000    -0.0600000    0.0600000   1.599888e-04  9.721644e-08
      2     10   2   0.50000    -0.0600000    0.0600000   1.599888e-04  9.721644e-08
      2     11   2   0.50000    -0.0600000    0.0600000   1.599888e-04  9.721644e-08
      4      9   2   0.50000    -0.4700000    0.0600000   1.726228e-04  6.344822e-08
      4     10   2   0.50000    -0.4700000    0.0600000   1.726228e-04  6.344822e-08
      4     11   2   0.50000    -0.4700000    0.0600000   1.726228e-04  6.344822e-08
      2     15   2   0.50000    -0.0600000    0.4700000   1.575021e-03  3.561100e-06
      2     20   2   0.50000    -0.0600000    0.0600000   1.599888e-04  9.721644e-08
      2     24   2   0.50000    -0.0600000   -0.1200000   1.015252e-03  1.866303e-06
     18     15   2   0.50000     0.0600000    0.4700000   3.869820e-04  3.188634e-07
     18     20   2   0.50000     0.0600000    0.0600000   3.930919e-05  8.704828e-09
     18     24   2   0.50000     0.0600000   -0.1200000   2.494471e-04  1.671101e-07
     19     15   2   0.50000     0.0600000    0.4700000   3.869820e-04  3.188634e-07
     19     20   2   0.50000     0.0600000    0.0600000   3.930919e-05  8.704828e-09
     19     24   2   0.50000     0.0600000   -0.1200000   2.494471e-04  1.671101e-07
     13     16   2   0.50000    -0.1200000   -0.4700000   1.095425e-03  1.218041e-06
     13     17   2   0.50000    -0.1200000   -0.1800000   1.015252e-03  1.866303e-06
     20     16   2   0.50000     0.0600000   -0.4700000   1.726228e-04  6.344822e-08
     20     17   2   0.50000     0.0600000   -0.1800000   1.599888e-04  9.721644e-08
     24     16   2   0.50000    -0.1200000   -0.4700000   1.095425e-03  1.218041e-06
     24     17   2   0.50000    -0.1200000   -0.1800000   1.015252e-03  1.866303e-06
     13     25   2   0.50000    -0.1200000   -0.0600000   1.015252e-03  1.866303e-06
     13     29   2   0.50000    -0.1200000    0.0600000   2.494471e-04  1.671101e-07
     13     30   2   0.50000    -0.1200000    0.0600000   2.494471e-04  1.671101e-07
     15     25   2   0.50000     0.4700000   -0.0600000   1.575021e-03  3.561100e-06
     15     29   2   0.50000     0.4700000    0.0600000   3.869820e-04  3.188634e-07
     15     30   2   0.50000     0.4700000    0.0600000   3.869820e-04  3.188634e-07
     20     25   2   0.50000     0.0600000   -0.0600000   1.599888e-04  9.721644e-08
     20     29   2   0.50000     0.0600000    0.0600000   3.930919e-05  8.704828e-09
     20     30   2   0.50000     0.0600000    0.0600000   3.930919e-05  8.704828e-09
     14     21   2   0.50000    -0.0600000    0.0600000   1.599888e-04  9.721644e-08
     14     22   2   0.50000    -0.0600000    0.0600000   1.599888e-04  9.721644e-08
     14     23   2   0.50000    -0.0600000    0.0600000   1.599888e-04  9.721644e-08
     16     21   2   0.50000    -0.4700000    0.0600000   1.726228e-04  6.344822e-08
     16     22   2   0.50000    -0.4700000    0.0600000   1.726228e-04  6.344822e-08
     16     23   2   0.50000    -0.4700000    0.0600000   1.726228e-04  6.344822e-08
     14     26   2   0.50000    -0.0600000    0.4700000   1.575021e-03  3.561100e-06
     14     31   2   0.50000    -0.0600000    0.0600000   1.599888e-04  9.721644e-08
     14     35   2   0.50000    -0.0600000   -0.1200000   1.015252e-03  1.866303e-06
     29     26   2   0.50000     0.0600000    0.4700000   3.869820e-04  3.188634e-07
     29     31   2   0.50000     0.0600000    0.0600000   3.930919e-05  8.704828e-09
     29     35   2   0.50000     0.0600000   -0.1200000   2.494471e-04  1.671101e-07
     30     26   2   0.50000     0.0600000    0.4700000   3.869820e-04  3.188634e-07
     30     31   2   0.50000     0.0600000    0.0600000   3.930919e-05  8.704828e-09
     30     35   2   0.50000     0.0600000   -0.1200000   2.494471e-04  1.671101e-07
     24     27   2   0.50000    -0.1200000   -0.4700000   1.095425e-03  1.218041e-06
     24     28   2   0.50000    -0.1200000   -0.1800000   1.015252e-03  1.866303e-06
     31     27   2   0.50000     0.0600000   -0.4700000   1.726228e-04  6.344822e-08
     31     28   2   0.50000     0.0600000   -0.1800000   1.599888e-04  9.721644e-08
     35     27   2   0.50000    -0.1200000   -0.4700000   1.095425e-03  1.218041e-06
     35     28   2   0.50000    -0.1200000   -0.1800000   1.015252e-03  1.866303e-06
     24     36   2   0.50000    -0.1200000   -0.0600000   1.015252e-03  1.866303e-06
     24     40   2   0.50000    -0.1200000    0.0600000   2.494471e-04  1.671101e-07
     24     41   2   0.50000    -0.1200000    0.0600000   2.494471e-04  1.671101e-07
     26     36   2   0.50000     0.4700000   -0.0600000   1.575021e-03  3.561100e-06
     26     40   2   0.50000     0.4700000    0.0600000   3.869820e-04  3.188634e-07
     26     41   2   0.50000     0.4700000    0.0600000   3.869820e-04  3.188634e-07
     31     36   2   0.50000     0.0600000   -0.0600000   1.599888e-04  9.721644e-08
     31     40   2   0.50000     0.0600000    0.0600000   3.930919e-05  8.704828e-09
     31     41   2   0.50000     0.0600000    0.0600000   3.930919e-05  8.704828e-09
     25     32   2   0.50000    -0.0600000    0.0600000   1.599888e-04  9.721644e-08
     25     33   2   0.50000    -0.0600000    0.0600000   1.599888e-04  9.721644e-08
     25     34   2   0.50000    -0.0600000    0.0600000   1.599888e-04  9.721644e-08
     27     32   2   0.50000    -0.4700000    0.0600000   1.726228e-04  6.344822e-08
     27     33   2   0.50000    -0.4700000    0.0600000   1.726228e-04  6.344822e-08
     27     34   2   0.50000    -0.4700000    0.0600000   1.726228e-04  6.344822e-08
     25     37   2   0.50000    -0.0600000    0.4700000   1.575021e-03  3.561100e-06
     25     42   2   0.50000    -0.0600000    0.0600000   1.599888e-04  9.721644e-08
     25     46   2   0.50000    -0.0600000   -0.1200000   1.015252e-03  1.866303e-06
     40     37   2   0.50000     0.0600000    0.4700000   3.869820e-04  3.188634e-07
     40     42   2   0.50000     0.0600000    0.0600000   3.930919e-05  8.704828e-09
     40     46   2   0.50000     0.0600000   -0.1200000   2.494471e-04  1.671101e-07
     41     37   2   0.50000     0.0600000    0.4700000   3.869820e-04  3.188634e-07
     41     42   2   0.50000     0.0600000    0.0600000   3.930919e-05  8.704828e-09
     41     46   2   0.50000     0.0600000   -0.1200000   2.494471e-04  1.671101e-07
     35     38   2   0.50000    -0.1200000   -0.4700000   1.095425e-03  1.218041e-06
     35     39   2   0.50000    -0.1200000   -0.1800000   1.015252e-03  1.866303e-06
     42     38   2   0.50000     0.0600000   -0.4700000   1.726228e-04  6.344822e-08
     42     39   2   0.50000     0.0600000   -0.1800000   1.599888e-04  9.721644e-08
     46     38   2   0.50000    -0.1200000   -0.4700000   1.095425e-03  1.218041e-06
     46     39   2   0.50000    -0.1200000   -0.1800000   1.015252e-03  1.866303e-06
     35     47   2   0.50000    -0.1200000   -0.0600000   1.015252e-03  1.866303e-06
     35     51   2   0.50000    -0.1200000    0.0600000   2.494471e-04  1.671101e-07
     35     52   2   0.50000    -0.1200000    0.0600000   2.494471e-04  1.671101e-07
     37     47   2   0.50000     0.4700000   -0.0600000   1.575021e-03  3.561100e-06
     37     51   2   0.50000     0.4700000    0.0600000   3.869820e-04  3.188634e-07
     37     52   2   0.50000     0.4700000    0.0600000   3.869820e-04  3.188634e-07
     42     47   2   0.50000     0.0600000   -0.0600000   1.599888e-04  9.721644e-08
     42     51   2   0.50000     0.0600000    0.0600000   3.930919e-05  8.704828e-09
     42     52   2   0.50000     0.0600000    0.0600000   3.930919e-05  8.704828e-09
     36     43   2   0.50000    -0.0600000    0.0600000   1.599888e-04  9.721644e-08
     36     44   2   0.50000    -0.0600000    0.0600000   1.599888e-04  9.721644e-08
     36     45   2   0.50000    -0.0600000    0.0600000   1.599888e-04  9.721644e-08
     38     43   2   0.50000    -0.4700000    0.0600000   1.726228e-04  6.344822e-08
     38     44   2   0.50000    -0.4700000    0.0600000   1.726228e-04  6.344822e-08
     38     45   2   0.50000    -0.4700000    0.0600000   1.726228e-04  6.344822e-08
     36     48   2   0.50000    -0.0600000    0.4700000   1.575021e-03  3.561100e-06
     36     53   2   0.50000    -0.0600000    0.0600000   1.599888e-04  9.721644e-08
     36     57   2   0.50000    -0.0600000   -0.1200000   1.015252e-03  1.866303e-06
     51     48   2   0.50000     0.0600000    0.4700000   3.869820e-04  3.188634e-07
     51     53   2   0.50000     0.0600000    0.0600000   3.930919e-05  8.704828e-09
     51     57   2   0.50000     0.0600000   -0.1200000   2.494471e-04  1.671101e-07
     52     48   2   0.50000     0.0600000    0.4700000   3.869820e-04  3.188634e-07
     52     53   2   0.50000     0.0600000    0.0600000   3.930919e-05  8.704828e-09
     52     57   2   0.50000     0.0600000   -0.1200000   2.494471e-04  1.671101e-07
     46     49   2   0.50000    -0.1200000   -0.4700000   1.095425e-03  1.218041e-06
     46     50   2   0.50000    -0.1200000   -0.1800000   1.015252e-03  1.866303e-06
     53     49   2   0.50000     0.0600000   -0.4700000   1.726228e-04  6.344822e-08
     53     50   2   0.50000     0.0600000   -0.1800000   1.599888e-04  9.721644e-08
     57     49   2   0.50000    -0.1200000   -0.4700000   1.095425e-03  1.218041e-06
     57     50   2   0.50000    -0.1200000   -0.1800000   1.015252e-03  1.866303e-06
     46     58   2   0.50000    -0.1200000   -0.0600000   1.015252e-03  1.866303e-06
     46     62   2   0.50000    -0.1200000    0.0600000   2.494471e-04  1.671101e-07
     46     63   2   0.50000    -0.1200000    0.0600000   2.494471e-04  1.671101e-07
     48     58   2   0.50000     0.4700000   -0.0600000   1.575021e-03  3.561100e-06
     48     62   2   0.50000     0.4700000    0.0600000   3.869820e-04  3.188634e-07
     48     63   2   0.50000     0.4700000    0.0600000   3.869820e-04  3.188634e-07
     53     58   2   0.50000     0.0600000   -0.0600000   1.599888e-04  9.721644e-08
     53     62   2   0.50000     0.0600000    0.0600000   3.930919e-05  8.704828e-09
     53     63   2   0.50000     0.0600000    0.0600000   3.930919e-05  8.704828e-09
     47     54   2   0.50000    -0.0600000    0.0600000   1.599888e-04  9.721644e-08
     47     55   2   0.50000    -0.0600000    0.0600000   1.599888e-04  9.721644e-08
     47     56   2   0.50000    -0.0600000    0.0600000   1.599888e-04  9.721644e-08
     49     54   2   0.50000    -0.4700000    0.0600000   1.726228e-04  6.344822e-08
     49     55   2   0.50000    -0.4700000    0.0600000   1.726228e-04  6.344822e-08
     49     56   2   0.50000    -0.4700000    0.0600000   1.726228e-04  6.344822e-08
     47     59   2   0.50000    -0.0600000    0.4700000   1.575021e-03  3.561100e-06
     47     64   2   0.50000    -0.0600000    0.0600000   1.599888e-04  9.721644e-08
     47     68   2   0.50000    -0.0600000   -0.1200000   1.015252e-03  1.866303e-06
     62     59   2   0.50000     0.0600000    0.4700000   3.869820e-04  3.188634e-07
     62     64   2   0.50000     0.0600000    0.0600000   3.930919e-05  8.704828e-09
     62     68   2   0.50000     0.0600000   -0.1200000   2.494471e-04  1.671101e-07
     63     59   2   0.50000     0.0600000    0.4700000   3.869820e-04  3.188634e-07
     63     64   2   0.50000     0.0600000    0.0600000   3.930919e-05  8.704828e-09
     63     68   2   0.50000     0.0600000   -0.1200000   2.494471e-04  1.671101e-07
     57     60   2   0.50000    -0.1200000   -0.4700000   1.095425e-03  1.218041e-06
     57     61   2   0.50000    -0.1200000   -0.1800000   1.015252e-03  1.866303e-06
     64     60   2   0.50000     0.0600000   -0.4700000   1.726228e-04  6.344822e-08
     64     61   2   0.50000     0.0600000   -0.1800000   1.599888e-04  9.721644e-08
     68     60   2   0.50000    -0.1200000   -0.4700000   1.095425e-03  1.218041e-06
     68     61   2   0.50000    -0.1200000   -0.1800000   1.015252e-03  1.866303e-06
     57     69   2   0.50000    -0.1200000   -0.0600000   1.015252e-03  1.866303e-06
     57     73   2   0.50000    -0.1200000    0.0600000   2.494471e-04  1.671101e-07
     57     74   2   0.50000    -0.1200000    0.0600000   2.494471e-04  1.671101e-07
     59     69   2   0.50000     0.4700000   -0.0600000   1.575021e-03  3.561100e-06
     59     73   2   0.50000     0.4700000    0.0600000   3.869820e-04  3.188634e-07
     59     74   2   0.50000     0.4700000    0.0600000   3.869820e-04  3.188634e-07
     64     69   2   0.50000     0.0600000   -0.0600000   1.599888e-04  9.721644e-08
     64     73   2   0.50000     0.0600000    0.0600000   3.930919e-05  8.704828e-09
     64     74   2   0.50000     0.0600000    0.0600000   3.930919e-05  8.704828e-09
     58     65   2   0.50000    -0.0600000    0.0600000   1.599888e-04  9.721644e-08
     58     66   2   0.50000    -0.0600000    0.0600000   1.599888e-04  9.721644e-08
     58     67   2   0.50000    -0.0600000    0.0600000   1.599888e-04  9.721644e-08
     60     65   2   0.50000    -0.4700000    0.0600000   1.726228e-04  6.344822e-08
     60     66   2   0.50000    -0.4700000    0.0600000   1.726228e-04  6.344822e-08
     60     67   2   0.50000    -0.4700000    0.0600000   1.726228e-04  6.344822e-08
     58     70   2   0.50000    -0.0600000    0.4700000   1.575021e-03  3.561100e-06
     58     75   2   0.50000    -0.0600000    0.0600000   1.599888e-04  9.721644e-08
     58     79   2   0.50000    -0.0600000   -0.1200000   1.015252e-03  1.866303e-06
     73     70   2   0.50000     0.0600000    0.4700000   3.869820e-04  3.188634e-07
     73     75   2   0.50000     0.0600000    0.0600000   3.930919e-05  8.704828e-09
     73     79   2   0.50000     0.0600000   -0.1200000   2.494471e-04  1.671101e-07
     74     70   2   0.50000     0.0600000    0.4700000   3.869820e-04  3.188634e-07
     74     75   2   0.50000     0.0600000    0.0600000   3.930919e-05  8.704828e-09
     74     79   2   0.50000     0.0600000   -0.1200000   2.494471e-04  1.671101e-07
     68     71   2   0.50000    -0.1200000   -0.4700000   1.095425e-03  1.218041e-06
     68     72   2   0.50000    -0.1200000   -0.1800000   1.015252e-03  1.866303e-06
     75     71   2   0.50000     0.0600000   -0.4700000   1.726228e-04  6.344822e-08
     75     72   2   0.50000     0.0600000   -0.1800000   1.599888e-04  9.721644e-08
     79     71   2   0.50000    -0.1200000   -0.4700000   1.095425e-03  1.218041e-06
     79     72   2   0.50000    -0.1200000   -0.1800000   1.015252e-03  1.866303e-06
     68     80   2   0.50000    -0.1200000   -0.0600000   1.015252e-03  1.866303e-06
     68     84   2   0.50000    -0.1200000    0.0600000   2.494471e-04  1.671101e-07
     68     85   2   0.50000    -0.1200000    0.0600000   2.494471e-04  1.671101e-07
     70     80   2   0.50000     0.4700000   -0.0600000   1.575021e-03  3.561100e-06
     70     84   2   0.50000     0.4700000    0.0600000   3.869820e-04  3.188634e-07
     70     85   2   0.50000     0.4700000    0.0600000   3.869820e-04  3.188634e-07
     75     80   2   0.50000     0.0600000   -0.0600000   1.599888e-04  9.721644e-08
     75     84   2   0.50000     0.0600000    0.0600000   3.930919e-05  8.704828e-09
     75     85   2   0.50000     0.0600000    0.0600000   3.930919e-05  8.704828e-09
     69     76   2   0.50000    -0.0600000    0.0600000   1.599888e-04  9.721644e-08
     69     77   2   0.50000    -0.0600000    0.0600000   1.599888e-04  9.721644e-08
     69     78   2   0.50000    -0.0600000    0.0600000   1.599888e-04  9.721644e-08
     71     76   2   0.50000    -0.4700000    0.0600000   1.726228e-04  6.344822e-08
     71     77   2   0.50000    -0.4700000    0.0600000   1.726228e-04  6.344822e-08
     71     78   2   0.50000    -0.4700000    0.0600000   1.726228e-04  6.344822e-08
     69     81   2   0.50000    -0.0600000    0.4700000   1.575021e-03  3.561100e-06
     69     86   2   0.50000    -0.0600000    0.0600000   1.599888e-04  9.721644e-08
     69     90   2   0.50000    -0.0600000   -0.1200000   1.015252e-03  1.866303e-06
     84     81   2   0.50000     0.0600000    0.4700000   3.869820e-04  3.188634e-07
     84     86   2   0.50000     0.0600000    0.0600000   3.930919e-05  8.704828e-09
     84     90   2   0.50000     0.0600000   -0.1200000   2.494471e-04  1.671101e-07
     85     81   2   0.50000     0.0600000    0.4700000   3.869820e-04  3.188634e-07
     85     86   2   0.50000     0.0600000    0.0600000   3.930919e-05  8.704828e-09
     85     90   2   0.50000     0.0600000   -0.1200000   2.494471e-04  1.671101e-07
     79     82   2   0.50000    -0.1200000   -0.4700000   1.095425e-03  1.218041e-06
     79     83   2   0.50000    -0.1200000   -0.1800000   1.015252e-03  1.866303e-06
     86     82   2   0.50000     0.0600000   -0.4700000   1.726228e-04  6.344822e-08
     86     83   2   0.50000     0.0600000   -0.1800000   1.599888e-04  9.721644e-08
     90     82   2   0.50000    -0.1200000   -0.4700000   1.095425e-03  1.218041e-06
     90     83   2   0.50000    -0.1200000   -0.1800000   1.015252e-03  1.866303e-06
     79     91   2   0.50000    -0.1200000   -0.0600000   1.015252e-03  1.866303e-06
     79     95   2   0.50000    -0.1200000    0.0600000   2.494471e-04  1.671101e-07
     79     96   2   0.50000    -0.1200000    0.0600000   2.494471e-04  1.671101e-07
     81     91   2   0.50000     0.4700000   -0.0600000   1.575021e-03  3.561100e-06
     81     95   2   0.50000     0.4700000    0.0600000   3.869820e-04  3.188634e-07
     81     96   2   0.50000     0.4700000    0.0600000   3.869820e-04  3.188634e-07
     86     91   2   0.50000     0.0600000   -0.0600000   1.599888e-04  9.721644e-08
     86     95   2   0.50000     0.0600000    0.0600000   3.930919e-05  8.704828e-09
     86     96   2   0.50000     0.0600000    0.0600000   3.930919e-05  8.704828e-09
     80     87   2   0.50000    -0.0600000    0.0600000   1.599888e-04  9.721644e-08
     80     88   2   0.50000    -0.0600000    0.0600000   1.599888e-04  9.721644e-08
     80     89   2   0.50000    -0.0600000    0.0600000   1.599888e-04  9.721644e-08
     82     87   2   0.50000    -0.4700000    0.0600000   1.726228e-04  6.344822e-08
     82     88   2   0.50000    -0.4700000    0.0600000   1.726228e-04  6.344822e-08
     82     89   2   0.50000    -0.4700000    0.0600000   1.726228e-04  6.344822e-08
     80     92   2   0.50000    -0.0600000    0.4700000   1.575021e-03  3.561100e-06
     80     97   2   0.50000    -0.0600000    0.0600000   1.599888e-04  9.721644e-08
     80    101   2   0.50000    -0.0600000   -0.1200000   1.015252e-03  1.866303e-06
     95     92   2   0.50000     0.0600000    0.4700000   3.869820e-04  3.188634e-07
     95     97   2   0.50000     0.0600000    0.0600000   3.930919e-05  8.704828e-09
     95    101   2   0.50000     0.0600000   -0.1200000   2.494471e-04  1.671101e-07
     96     92   2   0.50000     0.0600000    0.4700000   3.869820e-04  3.188634e-07
     96     97   2   0.50000     0.0600000    0.0600000   3.930919e-05  8.704828e-09
     96    101   2   0.50000     0.0600000   -0.1200000   2.494471e-04  1.671101e-07
     90     93   2   0.50000    -0.1200000   -0.4700000   1.095425e-03  1.218041e-06
     90     94   2   0.50000    -0.1200000   -0.1800000   1.015252e-03  1.866303e-06
     97     93   2   0.50000     0.0600000   -0.4700000   1.726228e-04  6.344822e-08
     97     94   2   0.50000     0.0600000   -0.1800000   1.599888e-04  9.721644e-08
    101     93   2   0.50000    -0.1200000   -0.4700000   1.095425e-03  1.218041e-06
    101     94   2   0.50000    -0.1200000   -0.1800000   1.015252e-03  1.866303e-06
     90    102   2   0.50000    -0.1200000   -0.0600000   1.015252e-03  1.866303e-06
     90    106   2   0.50000    -0.1200000    0.0600000   2.494471e-04  1.671101e-07
     90    107   2   0.50000    -0.1200000    0.0600000   2.494471e-04  1.671101e-07
     92    102   2   0.50000     0.4700000   -0.0600000   1.575021e-03  3.561100e-06
     92    106   2   0.50000     0.4700000    0.0600000   3.869820e-04  3.188634e-07
     92    107   2   0.50000     0.4700000    0.0600000   3.869820e-04  3.188634e-07
     97    102   2   0.50000     0.0600000   -0.0600000   1.599888e-04  9.721644e-08
     97    106   2   0.50000     0.0600000    0.0600000   3.930919e-05  8.704828e-09
     97    107   2   0.50000     0.0600000    0.0600000   3.930919e-05  8.704828e-09
     91     98   2   0.50000    -0.0600000    0.0600000   1.599888e-04  9.721644e-08
     91     99   2   0.50000    -0.0600000    0.0600000   1.599888e-04  9.721644e-08
     91    100   2   0.50000    -0.0600000    0.0600000   1.599888e-04  9.721644e-08
     93     98   2   0.50000    -0.4700000    0.0600000   1.726228e-04  6.344822e-08
     93     99   2   0.50000    -0.4700000    0.0600000   1.726228e-04  6.344822e-08
     93    100   2   0.50000    -0.4700000    0.0600000   1.726228e-04  6.344822e-08
     91    103   2   0.50000    -0.0600000    0.4700000   1.575021e-03  3.561100e-06
     91    108   2   0.50000    -0.0600000    0.0600000   1.599888e-04  9.721644e-08
     91    112   2   0.50000    -0.0600000   -0.1200000   1.015252e-03  1.866303e-06
    106    103   2   0.50000     0.0600000    0.4700000   3.869820e-04  3.188634e-07
    106    108   2   0.50000     0.0600000    0.0600000   3.930919e-05  8.704828e-09
    106    112   2   0.50000     0.0600000   -0.1200000   2.494471e-04  1.671101e-07
    107    103   2   0.50000     0.0600000    0.4700000   3.869820e-04  3.188634e-07
    107    108   2   0.50000     0.0600000    0.0600000   3.930919e-05  8.704828e-09
    107    112   2   0.50000     0.0600000   -0.1200000   2.494471e-04  1.671101e-07
    101    104   2   0.50000    -0.1200000   -0.4700000   1.095425e-03  1.218041e-06
    101    105   2   0.50000    -0.1200000   -0.1800000   1.015252e-03  1.866303e-06
    108    104   2   0.50000     0.0600000   -0.4700000   1.726228e-04  6.344822e-08
    108    105   2   0.50000     0.0600000   -0.1800000   1.599888e-04  9.721644e-08
    112    104   2   0.50000    -0.1200000   -0.4700000   1.095425e-03  1.218041e-06
    112    105   2   0.50000    -0.1200000   -0.1800000   1.015252e-03  1.866303e-06
    101    113   2   0.50000    -0.1200000   -0.0600000   1.015252e-03  1.866303e-06
    101    117   2   0.50000    -0.1200000    0.0600000   2.494471e-04  1.671101e-07
    101    118   2   0.50000    -0.1200000    0.0600000   2.494471e-04  1.671101e-07
    103    113   2   0.50000     0.4700000   -0.0600000   1.575021e-03  3.561100e-06
    103    117   2   0.50000     0.4700000    0.0600000   3.869820e-04  3.188634e-07
    103    118   2   0.50000     0.4700000    0.0600000   3.869820e-04  3.188634e-07
    108    113   2   0.50000     0.0600000   -0.0600000   1.599888e-04  9.721644e-08
    108    117   2   0.50000     0.0600000    0.0600000   3.930919e-05  8.704828e-09
    108    118   2   0.50000     0.0600000    0.0600000   3.930919e-05  8.704828e-09
    102    109   2   0.50000    -0.0600000    0.0600000   1.599888e-04  9.721644e-08
    102    110   2   0.50000    -0.0600000    0.0600000   1.599888e-04  9.721644e-08
    102    111   2   0.50000    -0.0600000    0.0600000   1.599888e-04  9.721644e-08
    104    109   2   0.50000    -0.4700000    0.0600000   1.726228e-04  6.344822e-08
    104    110   2   0.50000    -0.4700000    0.0600000   1.726228e-04  6.344822e-08
    104    111   2   0.50000    -0.4700000    0.0600000   1.726228e-04  6.344822e-08
    102    114   2   0.50000    -0.0600000    0.4700000   1.575021e-03  3.561100e-06
    102    119   2   0.50000    -0.0600000    0.0600000   1.599888e-04  9.721644e-08
    102    123   2   0.50000    -0.0600000   -0.1200000   1.015252e-03  1.866303e-06
    117    114   2   0.50000     0.0600000    0.4700000   3.869820e-04  3.188634e-07
    117    119   2   0.50000     0.0600000    0.0600000   3.930919e-05  8.704828e-09
    117    123   2   0.50000     0.0600000   -0.1200000   2.494471e-04  1.671101e-07
    118    114   2   0.50000     0.0600000    0.4700000   3.869820e-04  3.188634e-07
    118    119   2   0.50000     0.0600000    0.0600000   3.930919e-05  8.704828e-09
    118    123   2   0.50000     0.0600000   -0.1200000   2.494471e-04  1.671101e-07
    112    115   2   0.50000    -0.1200000   -0.4700000   1.095425e-03  1.218041e-06
    112    116   2   0.50000    -0.1200000   -0.1800000   1.015252e-03  1.866303e-06
    119    115   2   0.50000     0.0600000   -0.4700000   1.726228e-04  6.344822e-08
    119    116   2   0.50000     0.0600000   -0.1800000   1.599888e-04  9.721644e-08
    123    115   2   0.50000    -0.1200000   -0.4700000   1.095425e-03  1.218041e-06
    123    116   2   0.50000    -0.1200000   -0.1800000   1.015252e-03  1.866303e-06
    112    124   2   0.50000    -0.1200000   -0.0600000   1.015252e-03  1.866303e-06
    112    128   2   0.50000    -0.1200000    0.0600000   2.494471e-04  1.671101e-07
    112    129   2   0.50000    -0.1200000    0.0600000   2.494471e-04  1.671101e-07
    114    124   2   0.50000     0.4700000   -0.0600000   1.575021e-03  3.561100e-06
    114    128   2   0.50000     0.4700000    0.0600000   3.869820e-04  3.188634e-07
    114    129   2   0.50000     0.4700000    0.0600000   3.869820e-04  3.188634e-07
    119    124   2   0.50000     0.0600000   -0.0600000   1.599888e-04  9.721644e-08
    119    128   2   0.50000     0.0600000    0.0600000   3.930919e-05  8.704828e-09
    119    129   2   0.50000     0.0600000    0.0600000   3.930919e-05  8.704828e-09
    113    120   2   0.50000    -0.0600000    0.0600000   1.599888e-04  9.721644e-08
    113    121   2   0.50000    -0.0600000    0.0600000   1.599888e-04  9.721644e-08
    113    122   2   0.50000    -0.0600000    0.0600000   1.599888e-04  9.721644e-08
    115    120   2   0.50000    -0.4700000    0.0600000   1.726228e-04  6.344822e-08
    115    121   2   0.50000    -0.4700000    0.0600000   1.726228e-04  6.344822e-08
    115    122   2   0.50000    -0.4700000    0.0600000   1.726228e-04  6.344822e-08
    113    125   2   0.50000    -0.0600000    0.4700000   1.575021e-03  3.561100e-06
    113    130   2   0.50000    -0.0600000    0.0600000   1.599888e-04  9.721644e-08
    113    134   2   0.50000    -0.0600000   -0.1200000   1.015252e-03  1.866303e-06
    128    125   2   0.50000     0.0600000    0.4700000   3.869820e-04  3.188634e-07
    128    130   2   0.50000     0.0600000    0.0600000   3.930919e-05  8.704828e-09
    128    134   2   0.50000     0.0600000   -0.1200000   2.494471e-04  1.671101e-07
    129    125   2   0.50000     0.0600000    0.4700000   3.869820e-04  3.188634e-07
    129    130   2   0.50000     0.0600000    0.0600000   3.930919e-05  8.704828e-09
    129    134   2   0.50000     0.0600000   -0.1200000   2.494471e-04  1.671101e-07
    123    126   2   0.50000    -0.1200000   -0.4700000   1.095425e-03  1.218041e-06
    123    127   2   0.50000    -0.1200000   -0.1800000   1.015252e-03  1.866303e-06
    130    126   2   0.50000     0.0600000   -0.4700000   1.726228e-04  6.344822e-08
    130    127   2   0.50000     0.0600000   -0.1800000   1.599888e-04  9.721644e-08
    134    126   2   0.50000    -0.1200000   -0.4700000   1.095425e-03  1.218041e-06
    134    127   2   0.50000    -0.1200000   -0.1800000   1.015252e-03  1.866303e-06
    123    135   2   0.50000    -0.1200000   -0.0600000   1.015252e-03  1.866303e-06
    123    139   2   0.50000    -0.1200000    0.0600000   2.494471e-04  1.671101e-07
    123    140   2   0.50000    -0.1200000    0.0600000   2.494471e-04  1.671101e-07
    125    135   2   0.50000     0.4700000   -0.0600000   1.575021e-03  3.561100e-06
    125    139   2   0.50000     0.4700000    0.0600000   3.869820e-04  3.188634e-07
    125    140   2   0.50000     0.4700000    0.0600000   3.869820e-04  3.188634e-07
    130    135   2   0.50000     0.0600000   -0.0600000   1.599888e-04  9.721644e-08
    130    139   2   0.50000     0.0600000    0.0600000   3.930919e-05  8.704828e-09
    130    140   2   0.50000     0.0600000    0.0600000   3.930919e-05  8.704828e-09
    124    131   2   0.50000    -0.0600000    0.0600000   1.599888e-04  9.721644e-08
    124    132   2   0.50000    -0.0600000    0.0600000   1.599888e-04  9.721644e-08
    124    133   2   0.50000    -0.0600000    0.0600000   1.599888e-04  9.721644e-08
    126    131   2   0.50000    -0.4700000    0.0600000   1.726228e-04  6.344822e-08
    126    132   2   0.50000    -0.4700000    0.0600000   1.726228e-04  6.344822e-08
    126    133   2   0.50000    -0.4700000    0.0600000   1.726228e-04  6.344822e-08
    124    136   2   0.50000    -0.0600000    0.4700000   1.575021e-03  3.561100e-06
    124    141   2   0.50000    -0.0600000    0.0600000   1.599888e-04  9.721644e-08
    124    145   2   0.50000    -0.0600000   -0.1200000   1.015252e-03  1.866303e-06
    139    136   2   0.50000     0.0600000    0.4700000   3.869820e-04  3.188634e-07
    139    141   2   0.50000     0.0600000    0.0600000   3.930919e-05  8.704828e-09
    139    145   2   0.50000     0.0600000   -0.1200000   2.494471e-04  1.671101e-07
    140    136   2   0.50000     0.0600000    0.4700000   3.869820e-04  3.188634e-07
    140    141   2   0.50000     0.0600000    0.0600000   3.930919e-05  8.704828e-09
    140    145   2   0.50000     0.0600000   -0.1200000   2.494471e-04  1.671101e-07
    134    137   2   0.50000    -0.1200000   -0.4700000   1.095425e-03  1.218041e-06
    134    138   2   0.50000    -0.1200000   -0.1800000   1.015252e-03  1.866303e-06
    141    137   2   0.50000     0.0600000   -0.4700000   1.726228e-04  6.344822e-08
    141    138   2   0.50000     0.0600000   -0.1800000   1.599888e-04  9.721644e-08
    145    137   2   0.50000    -0.1200000   -0.4700000   1.095425e-03  1.218041e-06
    145    138   2   0.50000    -0.1200000   -0.1800000   1.015252e-03  1.866303e-06
    134    146   2   0.50000    -0.1200000   -0.0600000   1.015252e-03  1.866303e-06
    134    150   2   0.50000    -0.1200000    0.0600000   2.494471e-04  1.671101e-07
    134    151   2   0.50000    -0.1200000    0.0600000   2.494471e-04  1.671101e-07
    136    146   2   0.50000     0.4700000   -0.0600000   1.575021e-03  3.561100e-06
    136    150   2   0.50000     0.4700000    0.0600000   3.869820e-04  3.188634e-07
    136    151   2   0.50000     0.4700000    0.0600000   3.869820e-04  3.188634e-07
    141    146   2   0.50000     0.0600000   -0.0600000   1.599888e-04  9.721644e-08
    141    150   2   0.50000     0.0600000    0.0600000   3.930919e-05  8.704828e-09
    141    151   2   0.50000     0.0600000    0.0600000   3.930919e-05  8.704828e-09
    135    142   2   0.50000    -0.0600000    0.0600000   1.599888e-04  9.721644e-08
    135    143   2   0.50000    -0.0600000    0.0600000   1.599888e-04  9.721644e-08
    135    144   2   0.50000    -0.0600000    0.0600000   1.599888e-04  9.721644e-08
    137    142   2   0.50000    -0.4700000    0.0600000   1.726228e-04  6.344822e-08
    137    143   2   0.50000    -0.4700000    0.0600000   1.726228e-04  6.344822e-08
    137    144   2   0.50000    -0.4700000    0.0600000   1.726228e-04  6.344822e-08
    135    147   2   0.50000    -0.0600000    0.4700000   1.575021e-03  3.561100e-06
    135    152   2   0.50000    -0.0600000    0.0600000   1.599888e-04  9.721644e-08
    135    156   2   0.50000    -0.0600000   -0.1200000   1.015252e-03  1.866303e-06
    150    147   2   0.50000     0.0600000    0.4700000   3.869820e-04  3.188634e-07
    150    152   2   0.50000     0.0600000    0.0600000   3.930919e-05  8.704828e-09
    150    156   2   0.50000     0.0600000   -0.1200000   2.494471e-04  1.671101e-07
    151    147   2   0.50000     0.0600000    0.4700000   3.869820e-04  3.188634e-07
    151    152   2   0.50000     0.0600000    0.0600000   3.930919e-05  8.704828e-09
    151    156   2   0.50000     0.0600000   -0.1200000   2.494471e-04  1.671101e-07
    145    148   2   0.50000    -0.1200000   -0.4700000   1.095425e-03  1.218041e-06
    145    149   2   0.50000    -0.1200000   -0.1800000   1.015252e-03  1.866303e-06
    152    148   2   0.50000     0.0600000   -0.4700000   1.726228e-04  6.344822e-08
    152    149   2   0.50000     0.0600000   -0.1800000   1.599888e-04  9.721644e-08
    156    148   2   0.50000    -0.1200000   -0.4700000   1.095425e-03  1.218041e-06
    156    149   2   0.50000    -0.1200000   -0.1800000   1.015252e-03  1.866303e-06
    145    157   2   0.50000    -0.1200000   -0.0600000   1.015252e-03  1.866303e-06
    145    161   2   0.50000    -0.1200000    0.0600000   2.494471e-04  1.671101e-07
    145    162   2   0.50000    -0.1200000    0.0600000   2.494471e-04  1.671101e-07
    147    157   2   0.50000     0.4700000   -0.0600000   1.575021e-03  3.561100e-06
    147    161   2   0.50000     0.4700000    0.0600000   3.869820e-04  3.188634e-07
    147    162   2   0.50000     0.4700000    0.0600000   3.869820e-04  3.188634e-07
    152    157   2   0.50000     0.0600000   -0.0600000   1.599888e-04  9.721644e-08
    152    161   2   0.50000     0.0600000    0.0600000   3.930919e-05  8.704828e-09
    152    162   2   0.50000     0.0600000    0.0600000   3.930919e-05  8.704828e-09
    146    153   2   0.50000    -0.0600000    0.0600000   1.599888e-04  9.721644e-08
    146    154   2   0.50000    -0.0600000    0.0600000   1.599888e-04  9.721644e-08
    146    155   2   0.50000    -0.0600000    0.0600000   1.599888e-04  9.721644e-08
    148    153   2   0.50000    -0.4700000    0.0600000   1.726228e-04  6.344822e-08
    148    154   2   0.50000    -0.4700000    0.0600000   1.726228e-04  6.344822e-08
    148    155   2   0.50000    -0.4700000    0.0600000   1.726228e-04  6.344822e-08
    146    158   2   0.50000    -0.0600000    0.4700000   1.575021e-03  3.561100e-06
    146    163   2   0.50000    -0.0600000    0.0600000   1.599888e-04  9.721644e-08
    146    167   2   0.50000    -0.0600000   -0.1200000   1.015252e-03  1.866303e-06
    161    158   2   0.50000     0.0600000    0.4700000   3.869820e-04  3.188634e-07
    161    163   2   0.50000     0.0600000    0.0600000   3.930919e-05  8.704828e-09
    161    167   2   0.50000     0.0600000   -0.1200000   2.494471e-04  1.671101e-07
    162    158   2   0.50000     0.0600000    0.4700000   3.869820e-04  3.188634e-07
    162    163   2   0.50000     0.0600000    0.0600000   3.930919e-05  8.704828e-09
    162    167   2   0.50000     0.0600000   -0.1200000   2.494471e-04  1.671101e-07
    156    159   2   0.50000    -0.1200000   -0.4700000   1.095425e-03  1.218041e-06
    156    160   2   0.50000    -0.1200000   -0.1800000   1.015252e-03  1.866303e-06
    163    159   2   0.50000     0.0600000   -0.4700000   1.726228e-04  6.344822e-08
    163    160   2   0.50000     0.0600000   -0.1800000   1.599888e-04  9.721644e-08
    167    159   2   0.50000    -0.1200000   -0.4700000   1.095425e-03  1.218041e-06
    167    160   2   0.50000    -0.1200000   -0.1800000   1.015252e-03  1.866303e-06
    156    168   2   0.50000    -0.1200000   -0.0600000   1.015252e-03  1.866303e-06
    156    172   2   0.50000    -0.1200000    0.0600000   2.494471e-04  1.671101e-07
    156    173   2   0.50000    -0.1200000    0.0600000   2.494471e-04  1.671101e-07
    158    168   2   0.50000     0.4700000   -0.0600000   1.575021e-03  3.561100e-06
    158    172   2   0.50000     0.4700000    0.0600000   3.869820e-04  3.188634e-07
    158    173   2   0.50000     0.4700000    0.0600000   3.869820e-04  3.188634e-07
    163    168   2   0.50000     0.0600000   -0.0600000   1.599888e-04  9.721644e-08
    163    172   2   0.50000     0.0600000    0.0600000   3.930919e-05  8.704828e-09
    163    173   2   0.50000     0.0600000    0.0600000   3.930919e-05  8.704828e-09
    157    164   2   0.50000    -0.0600000    0.0600000   1.599888e-04  9.721644e-08
    157    165   2   0.50000    -0.0600000    0.0600000   1.599888e-04  9.721644e-08
    157    166   2   0.50000    -0.0600000    0.0600000   1.599888e-04  9.721644e-08
    159    164   2   0.50000    -0.4700000    0.0600000   1.726228e-04  6.344822e-08
    159    165   2   0.50000    -0.4700000    0.0600000   1.726228e-04  6.344822e-08
    159    166   2   0.50000    -0.4700000    0.0600000   1.726228e-04  6.344822e-08
    157    169   2   0.50000    -0.0600000    0.4700000   1.575021e-03  3.561100e-06
    157    174   2   0.50000    -0.0600000    0.0600000   1.599888e-04  9.721644e-08
    157    178   2   0.50000    -0.0600000   -0.1200000   1.015252e-03  1.866303e-06
    172    169   2   0.50000     0.0600000    0.4700000   3.869820e-04  3.188634e-07
    172    174   2   0.50000     0.0600000    0.0600000   3.930919e-05  8.704828e-09
    172    178   2   0.50000     0.0600000   -0.1200000   2.494471e-04  1.671101e-07
    173    169   2   0.50000     0.0600000    0.4700000   3.869820e-04  3.188634e-07
    173    174   2   0.50000     0.0600000    0.0600000   3.930919e-05  8.704828e-09
    173    178   2   0.50000     0.0600000   -0.1200000   2.494471e-04  1.671101e-07
    167    170   2   0.50000    -0.1200000   -0.4700000   1.095425e-03  1.218041e-06
    167    171   2   0.50000    -0.1200000   -0.1800000   1.015252e-03  1.866303e-06
    174    170   2   0.50000     0.0600000   -0.4700000   1.726228e-04  6.344822e-08
    174    171   2   0.50000     0.0600000   -0.1800000   1.599888e-04  9.721644e-08
    178    170   2   0.50000    -0.1200000   -0.4700000   1.095425e-03  1.218041e-06
    178    171   2   0.50000    -0.1200000   -0.1800000   1.015252e-03  1.866303e-06
    167    179   2   0.50000    -0.1200000   -0.0600000   1.015252e-03  1.866303e-06
    167    183   2   0.50000    -0.1200000    0.0600000   2.494471e-04  1.671101e-07
    167    184   2   0.50000    -0.1200000    0.0600000   2.494471e-04  1.671101e-07
    169    179   2   0.50000     0.4700000   -0.0600000   1.575021e-03  3.561100e-06
    169    183   2   0.50000     0.4700000    0.0600000   3.869820e-04  3.188634e-07
    169    184   2   0.50000     0.4700000    0.0600000   3.869820e-04  3.188634e-07
    174    179   2   0.50000     0.0600000   -0.0600000   1.599888e-04  9.721644e-08
    174    183   2   0.50000     0.0600000    0.0600000   3.930919e-05  8.704828e-09
    174    184   2   0.50000     0.0600000    0.0600000   3.930919e-05  8.704828e-09
    168    175   2   0.50000    -0.0600000    0.0600000   1.599888e-04  9.721644e-08
    168    176   2   0.50000    -0.0600000    0.0600000   1.599888e-04  9.721644e-08
    168    177   2   0.50000    -0.0600000    0.0600000   1.599888e-04  9.721644e-08
    170    175   2   0.50000    -0.4700000    0.0600000   1.726228e-04  6.344822e-08
    170    176   2   0.50000    -0.4700000    0.0600000   1.726228e-04  6.344822e-08
    170    177   2   0.50000    -0.4700000    0.0600000   1.726228e-04  6.344822e-08
    168    180   2   0.50000    -0.0600000    0.4700000   1.575021e-03  3.561100e-06
    168    185   2   0.50000    -0.0600000    0.0600000   1.599888e-04  9.721644e-08
    168    189   2   0.50000    -0.0600000   -0.1200000   1.015252e-03  1.866303e-06
    183    180   2   0.50000     0.0600000    0.4700000   3.869820e-04  3.188634e-07
    183    185   2   0.50000     0.0600000    0.0600000   3.930919e-05  8.704828e-09
    183    189   2   0.50000     0.0600000   -0.1200000   2.494471e-04  1.671101e-07
    184    180   2   0.50000     0.0600000    0.4700000   3.869820e-04  3.188634e-07
    184    185   2   0.50000     0.0600000    0.0600000   3.930919e-05  8.704828e-09
    184    189   2   0.50000     0.0600000   -0.1200000   2.494471e-04  1.671101e-07
    178    181   2   0.50000    -0.1200000   -0.4700000   1.095425e-03  1.218041e-06
    178    182   2   0.50000    -0.1200000   -0.1800000   1.015252e-03  1.866303e-06
    185    181   2   0.50000     0.0600000   -0.4700000   1.726228e-04  6.344822e-08
    185    182   2   0.50000     0.0600000   -0.1800000   1.599888e-04  9.721644e-08
    189    181   2   0.50000    -0.1200000   -0.4700000   1.095425e-03  1.218041e-06
    189    182   2   0.50000    -0.1200000   -0.1800000   1.015252e-03  1.866303e-06
    178    190   2   0.50000    -0.1200000   -0.0600000   1.015252e-03  1.866303e-06
    178    194   2   0.50000    -0.1200000    0.0600000   2.494471e-04  1.671101e-07
    178    195   2   0.50000    -0.1200000    0.0600000   2.494471e-04  1.671101e-07
    180    190   2   0.50000     0.4700000   -0.0600000   1.575021e-03  3.561100e-06
    180    194   2   0.50000     0.4700000    0.0600000   3.869820e-04  3.188634e-07
    180    195   2   0.50000     0.4700000    0.0600000   3.869820e-04  3.188634e-07
    185    190   2   0.50000     0.0600000   -0.0600000   1.599888e-04  9.721644e-08
    185    194   2   0.50000     0.0600000    0.0600000   3.930919e-05  8.704828e-09
    185    195   2   0.50000     0.0600000    0.0600000   3.930919e-05  8.704828e-09
    179    186   2   0.50000    -0.0600000    0.0600000   1.599888e-04  9.721644e-08
    179    187   2   0.50000    -0.0600000    0.0600000   1.599888e-04  9.721644e-08
    179    188   2   0.50000    -0.0600000    0.0600000   1.599888e-04  9.721644e-08
    181    186   2   0.50000    -0.4700000    0.0600000   1.726228e-04  6.344822e-08
    181    187   2   0.50000    -0.4700000    0.0600000   1.726228e-04  6.344822e-08
    181    188   2   0.50000    -0.4700000    0.0600000   1.726228e-04  6.344822e-08
    179    191   2   0.50000    -0.0600000    0.4700000   1.575021e-03  3.561100e-06
    179    196   2   0.50000    -0.0600000    0.0600000   1.599888e-04  9.721644e-08
    179    200   2   0.50000    -0.0600000   -0.1200000   1.015252e-03  1.866303e-06
    194    191   2   0.50000     0.0600000    0.4700000   3.869820e-04  3.188634e-07
    194    196   2   0.50000     0.0600000    0.0600000   3.930919e-05  8.704828e-09
    194    200   2   0.50000     0.0600000   -0.1200000   2.494471e-04  1.671101e-07
    195    191   2   0.50000     0.0600000    0.4700000   3.869820e-04  3.188634e-07
    195    196   2   0.50000     0.0600000    0.0600000   3.930919e-05  8.704828e-09
    195    200   2   0.50000     0.0600000   -0.1200000   2.494471e-04  1.671101e-07
    189    192   2   0.50000    -0.1200000   -0.4700000   1.095425e-03  1.218041e-06
    189    193   2   0.50000    -0.1200000   -0.1800000   1.015252e-03  1.866303e-06
    196    192   2   0.50000     0.0600000   -0.4700000   1.726228e-04  6.344822e-08
    196    193   2   0.50000     0.0600000   -0.1800000   1.599888e-04  9.721644e-08
    200    192   2   0.50000    -0.1200000   -0.4700000   1.095425e-03  1.218041e-06
    200    193   2   0.50000    -0.1200000   -0.1800000   1.015252e-03  1.866303e-06
    189    201   2   0.50000    -0.1200000   -0.0600000   1.015252e-03  1.866303e-06
    189    205   2   0.50000    -0.1200000    0.0600000   2.494471e-04  1.671101e-07
    189    206   2   0.50000    -0.1200000    0.0600000   2.494471e-04  1.671101e-07
    191    201   2   0.50000     0.4700000   -0.0600000   1.575021e-03  3.561100e-06
    191    205   2   0.50000     0.4700000    0.0600000   3.869820e-04  3.188634e-07
    191    206   2   0.50000     0.4700000    0.0600000   3.869820e-04  3.188634e-07
    196    201   2   0.50000     0.0600000   -0.0600000   1.599888e-04  9.721644e-08
    196    205   2   0.50000     0.0600000    0.0600000   3.930919e-05  8.704828e-09
    196    206   2   0.50000     0.0600000    0.0600000   3.930919e-05  8.704828e-09
    190    197   2   0.50000    -0.0600000    0.0600000   1.599888e-04  9.721644e-08
    190    198   2   0.50000    -0.0600000    0.0600000   1.599888e-04  9.721644e-08
    190    199   2   0.50000    -0.0600000    0.0600000   1.599888e-04  9.721644e-08
    192    197   2   0.50000    -0.4700000    0.0600000   1.726228e-04  6.344822e-08
    192    198   2   0.50000    -0.4700000    0.0600000   1.726228e-04  6.344822e-08
    192    199   2   0.50000    -0.4700000    0.0600000   1.726228e-04  6.344822e-08
    190    202   2   0.50000    -0.0600000    0.4700000   1.575021e-03  3.561100e-06
    190    207   2   0.50000    -0.0600000    0.0600000   1.599888e-04  9.721644e-08
    190    211   2   0.50000    -0.0600000   -0.1200000   1.015252e-03  1.866303e-06
    205    202   2   0.50000     0.0600000    0.4700000   3.869820e-04  3.188634e-07
    205    207   2   0.50000     0.0600000    0.0600000   3.930919e-05  8.704828e-09
    205    211   2   0.50000     0.0600000   -0.1200000   2.494471e-04  1.671101e-07
    206    202   2   0.50000     0.0600000    0.4700000   3.869820e-04  3.188634e-07
    206    207   2   0.50000     0.0600000    0.0600000   3.930919e-05  8.704828e-09
    206    211   2   0.50000     0.0600000   -0.1200000   2.494471e-04  1.671101e-07
    200    203   2   0.50000    -0.1200000   -0.4700000   1.095425e-03  1.218041e-06
    200    204   2   0.50000    -0.1200000   -0.1800000   1.015252e-03  1.866303e-06
    207    203   2   0.50000     0.0600000   -0.4700000   1.726228e-04  6.344822e-08
    207    204   2   0.50000     0.0600000   -0.1800000   1.599888e-04  9.721644e-08
    211    203   2   0.50000    -0.1200000   -0.4700000   1.095425e-03  1.218041e-06
    211    204   2   0.50000    -0.1200000   -0.1800000   1.015252e-03  1.866303e-06
    200    212   2   0.50000    -0.1200000   -0.1200000   1.015252e-03  1.866303e-06
    200    216   2   0.50000    -0.1200000    0.0600000   2.494471e-04  1.671101e-07
    200    217   2   0.50000    -0.1200000    0.0600000   2.494471e-04  1.671101e-07
    202    212   2   0.50000     0.4700000   -0.1200000   1.575021e-03  3.561100e-06
    202    216   2   0.50000     0.4700000    0.0600000   3.869820e-04  3.188634e-07
    202    217   2   0.50000     0.4700000    0.0600000   3.869820e-04  3.188634e-07
    207    212   2   0.50000     0.0600000   -0.1200000   1.599888e-04  9.721644e-08
    207    216   2   0.50000     0.0600000    0.0600000   3.930919e-05  8.704828e-09
    207    217   2   0.50000     0.0600000    0.0600000   3.930919e-05  8.704828e-09
    201    208   2   0.50000    -0.0600000    0.0600000   1.599888e-04  9.721644e-08
    201    209   2   0.50000    -0.0600000    0.0600000   1.599888e-04  9.721644e-08
    201    210   2   0.50000    -0.0600000    0.0600000   1.599888e-04  9.721644e-08
    203    208   2   0.50000    -0.4700000    0.0600000   1.726228e-04  6.344822e-08
    203    209   2   0.50000    -0.4700000    0.0600000   1.726228e-04  6.344822e-08
    203    210   2   0.50000    -0.4700000    0.0600000   1.726228e-04  6.344822e-08
    201    213   2   0.50000    -0.0600000    0.4700000   1.575021e-03  3.561100e-06
    201    218   2   0.50000    -0.0600000    0.0600000   1.599888e-04  9.721644e-08
    201    222   2   0.50000    -0.0600000    0.0600000   1.599888e-04  9.721644e-08
    216    213   2   0.50000     0.0600000    0.4700000   3.869820e-04  3.188634e-07
    216    218   2   0.50000     0.0600000    0.0600000   3.930919e-05  8.704828e-09
    216    222   2   0.50000     0.0600000    0.0600000   3.930919e-05  8.704828e-09
    217    213   2   0.50000     0.0600000    0.4700000   3.869820e-04  3.188634e-07
    217    218   2   0.50000     0.0600000    0.0600000   3.930919e-05  8.704828e-09
    217    222   2   0.50000     0.0600000    0.0600000   3.930919e-05  8.704828e-09
    211    214   2   0.50000    -0.1200000   -0.4700000   1.095425e-03  1.218041e-06
    211    215   2   0.50000    -0.1200000   -0.1800000   1.015252e-03  1.866303e-06
    218    214   2   0.50000     0.0600000   -0.4700000   1.726228e-04  6.344822e-08
    218    215   2   0.50000     0.0600000   -0.1800000   1.599888e-04  9.721644e-08
    222    214   2   0.50000     0.0600000   -0.4700000   1.726228e-04  6.344822e-08
    222    215   2   0.50000     0.0600000   -0.1800000   1.599888e-04  9.721644e-08
    212    219   2   0.50000    -0.1200000    0.0600000   1.599888e-04  9.721644e-08
    212    220   2   0.50000    -0.1200000    0.0600000   1.599888e-04  9.721644e-08
    212    221   2   0.50000    -0.1200000    0.0600000   1.599888e-04  9.721644e-08
    214    219   2   0.50000    -0.4700000    0.0600000   1.726228e-04  6.344822e-08
    214    220   2   0.50000    -0.4700000    0.0600000   1.726228e-04  6.344822e-08
    214    221   2   0.50000    -0.4700000    0.0600000   1.726228e-04  6.344822e-08

[ angles ]
; ai  aj  ak
      2      1      6   1    110.7000    313.8000
      2      1      7   1    110.7000    313.8000
      2      1     12   1    110.7000    313.8000
      6      1      7   1    107.8000    276.1440
      6      1     12   1    107.8000    276.1440
      7      1     12   1    107.8000    276.1440
      1      2      3   1    111.1000    527.1840
      1      2      8   1    110.7000    313.8000
      1      2     13   1    112.7000    488.2728
      3      2      8   1    109.5000    292.8800
      3      2     13   1    111.1000    527.1840
      8      2     13   1    110.7000    313.8000
      2      3      4   1    120.4000    669.4400
      2      3      5   1    116.0000    585.7600
      4      3      5   1    120.4000    669.4400
      3      5      9   1    109.5000    292.8800
      3      5     10   1    109.5000    292.8800
      3      5     11   1    109.5000    292.8800
      9      5     10   1    107.8000    276.1440
      9      5     11   1    107.8000    276.1440
     10      5     11   1    107.8000    276.1440
      2     13     14   1    112.7000    488.2728
      2     13     18   1    110.7000    313.8000
      2     13     19   1    110.7000    313.8000
     14     13     18   1    110.7000    313.8000
     14     13     19   1    110.7000    313.8000
     18     13     19   1    107.8000    276.1440
     13     14     15   1    111.1000    527.1840
     13     14     20   1    110.7000    313.8000
     13     14     24   1    112.7000    488.2728
     15     14     20   1    109.5000    292.8800
     15     14     24   1    111.1000    527.1840
     20     14     24   1    110.7000    313.8000
     14     15     16   1    120.4000    669.4400
     14     15     17   1    116.0000    585.7600
     16     15     17   1    120.4000    669.4400
     15     17     21   1    109.5000    292.8800
     15     17     22   1    109.5000    292.8800
     15     17     23   1    109.5000    292.8800
     21     17     22   1    107.8000    276.1440
     21     17     23   1    107.8000    276.1440
     22     17     23   1    107.8000    276.1440
     14     24     25   1    112.7000    488.2728
     14     24     29   1    110.7000    313.8000
     14     24     30   1    110.7000    313.8000
     25     24     29   1    110.7000    313.8000
     25     24     30   1    110.7000    313.8000
     29     24     30   1    107.8000    276.1440
     24     25     26   1    111.1000    527.1840
     24     25     31   1    110.7000    313.8000
     24     25     35   1    112.7000    488.2728
     26     25     31   1    109.5000    292.8800
     26     25     35   1    111.1000    527.1840
     31     25     35   1    110.7000    313.8000
     25     26     27   1    120.4000    669.4400
     25     26     28   1    116.0000    585.7600
     27     26     28   1    120.4000    669.4400
     26     28     32   1    109.5000    292.8800
     26     28     33   1    109.5000    292.8800
     26     28     34   1    109.5000    292.8800
     32     28     33   1    107.8000    276.1440
     32     28     34   1    107.8000    276.1440
     33     28     34   1    107.8000    276.1440
     25     35     36   1    112.7000    488.2728
     25     35     40   1    110.7000    313.8000
     25     35     41   1    110.7000    313.8000
     36     35     40   1    110.7000    313.8000
     36     35     41   1    110.7000    313.8000
     40     35     41   1    107.8000    276.1440
     35     36     37   1    111.1000    527.1840
     35     36     42   1    110.7000    313.8000
     35     36     46   1    112.7000    488.2728
     37     36     42   1    109.5000    292.8800
     37     36     46   1    111.1000    527.1840
     42     36     46   1    110.7000    313.8000
     36     37     38   1    120.4000    669.4400
     36     37     39   1    116.0000    585.7600
     38     37     39   1    120.4000    669.4400
     37     39     43   1    109.5000    292.8800
     37     39     44   1    109.5000    292.8800
     37     39     45   1    109.5000    292.8800
     43     39     44   1    107.8000    276.1440
     43     39     45   1    107.8000    276.1440
     44     39     45   1    107.8000    276.1440
     36     46     47   1    112.7000    488.2728
     36     46     51   1    110.7000    313.8000
     36     46     52   1    110.7000    313.8000
     47     46     51   1    110.7000    313.8000
     47     46     52   1    110.7000    313.8000
     51     46     52   1    107.8000    276.1440
     46     47     48   1    111.1000    527.1840
     46     47     53   1    110.7000    313.8000
     46     47     57   1    112.7000    488.2728
     48     47     53   1    109.5000    292.8800
     48     47     57   1    111.1000    527.1840
     53     47     57   1    110.7000    313.8000
     47     48     49   1    120.4000    669.4400
     47     48     50   1    116.0000    585.7600
     49     48     50   1    120.4000    669.4400
     48     50     54   1    109.5000    292.8800
     48     50     55   1    109.5000    292.8800
     48     50     56   1    109.5000    292.8800
     54     50     55   1    107.8000    276.1440
     54     50     56   1    107.8000    276.1440
     55     50     56   1    107.8000    276.1440
     47     57     58   1    112.7000    488.2728
     47     57     62   1    110.7000    313.8000
     47     57     63   1    110.7000    313.8000
     58     57     62   1    110.7000    313.8000
     58     57     63   1    110.7000    313.8000
     62     57     63   1    107.8000    276.1440
     57     58     59   1    111.1000    527.1840
     57     58     64   1    110.7000    313.8000
     57     58     68   1    112.7000    488.2728
     59     58     64   1    109.5000    292.8800
     59     58     68   1    111.1000    527.1840
     64     58     68   1    110.7000    313.8000
     58     59     60   1    120.4000    669.4400
     58     59     61   1    116.0000    585.7600
     60     59     61   1    120.4000    669.4400
     59     61     65   1    109.5000    292.8800
     59     61     66   1    109.5000    292.8800
     59     61     67   1    109.5000    292.8800
     65     61     66   1    107.8000    276.1440
     65     61     67   1    107.8000    276.1440
     66     61     67   1    107.8000    276.1440
     58     68     69   1    112.7000    488.2728
     58     68     73   1    110.7000    313.8000
     58     68     74   1    110.7000    313.8000
     69     68     73   1    110.7000    313.8000
     69     68     74   1    110.7000    313.8000
     73     68     74   1    107.8000    276.1440
     68     69     70   1    111.1000    527.1840
     68     69     75   1    110.7000    313.8000
     68     69     79   1    112.7000    488.2728
     70     69     75   1    109.5000    292.8800
     70     69     79   1    111.1000    527.1840
     75     69     79   1    110.7000    313.8000
     69     70     71   1    120.4000    669.4400
     69     70     72   1    116.0000    585.7600
     71     70     72   1    120.4000    669.4400
     70     72     76   1    109.5000    292.8800
     70     72     77   1    109.5000    292.8800
     70     72     78   1    109.5000    292.8800
     76     72     77   1    107.8000    276.1440
     76     72     78   1    107.8000    276.1440
     77     72     78   1    107.8000    276.1440
     69     79     80   1    112.7000    488.2728
     69     79     84   1    110.7000    313.8000
     69     79     85   1    110.7000    313.8000
     80     79     84   1    110.7000    313.8000
     80     79     85   1    110.7000    313.8000
     84     79     85   1    107.8000    276.1440
     79     80     81   1    111.1000    527.1840
     79     80     86   1    110.7000    313.8000
     79     80     90   1    112.7000    488.2728
     81     80     86   1    109.5000    292.8800
     81     80     90   1    111.1000    527.1840
     86     80     90   1    110.7000    313.8000
     80     81     82   1    120.4000    669.4400
     80     81     83   1    116.0000    585.7600
     82     81     83   1    120.4000    669.4400
     81     83     87   1    109.5000    292.8800
     81     83     88   1    109.5000    292.8800
     81     83     89   1    109.5000    292.8800
     87     83     88   1    107.8000    276.1440
     87     83     89   1    107.8000    276.1440
     88     83     89   1    107.8000    276.1440
     80     90     91   1    112.7000    488.2728
     80     90     95   1    110.7000    313.8000
     80     90     96   1    110.7000    313.8000
     91     90     95   1    110.7000    313.8000
     91     90     96   1    110.7000    313.8000
     95     90     96   1    107.8000    276.1440
     90     91     92   1    111.1000    527.1840
     90     91     97   1    110.7000    313.8000
     90     91    101   1    112.7000    488.2728
     92     91     97   1    109.5000    292.8800
     92     91    101   1    111.1000    527.1840
     97     91    101   1    110.7000    313.8000
     91     92     93   1    120.4000    669.4400
     91     92     94   1    116.0000    585.7600
     93     92     94   1    120.4000    669.4400
     92     94     98   1    109.5000    292.8800
     92     94     99   1    109.5000    292.8800
     92     94    100   1    109.5000    292.8800
     98     94     99   1    107.8000    276.1440
     98     94    100   1    107.8000    276.1440
     99     94    100   1    107.8000    276.1440
     91    101    102   1    112.7000    488.2728
     91    101    106   1    110.7000    313.8000
     91    101    107   1    110.7000    313.8000
    102    101    106   1    110.7000    313.8000
    102    101    107   1    110.7000    313.8000
    106    101    107   1    107.8000    276.1440
    101    102    103   1    111.1000    527.1840
    101    102    108   1    110.7000    313.8000
    101    102    112   1    112.7000    488.2728
    103    102    108   1    109.5000    292.8800
    103    102    112   1    111.1000    527.1840
    108    102    112   1    110.7000    313.8000
    102    103    104   1    120.4000    669.4400
    102    103    105   1    116.0000    585.7600
    104    103    105   1    120.4000    669.4400
    103    105    109   1    109.5000    292.8800
    103    105    110   1    109.5000    292.8800
    103    105    111   1    109.5000    292.8800
    109    105    110   1    107.8000    276.1440
    109    105    111   1    107.8000    276.1440
    110    105    111   1    107.8000    276.1440
    102    112    113   1    112.7000    488.2728
    102    112    117   1    110.7000    313.8000
    102    112    118   1    110.7000    313.8000
    113    112    117   1    110.7000    313.8000
    113    112    118   1    110.7000    313.8000
    117    112    118   1    107.8000    276.1440
    112    113    114   1    111.1000    527.1840
    112    113    119   1    110.7000    313.8000
    112    113    123   1    112.7000    488.2728
    114    113    119   1    109.5000    292.8800
    114    113    123   1    111.1000    527.1840
    119    113    123   1    110.7000    313.8000
    113    114    115   1    120.4000    669.4400
    113    114    116   1    116.0000    585.7600
    115    114    116   1    120.4000    669.4400
    114    116    120   1    109.5000    292.8800
    114    116    121   1    109.5000    292.8800
    114    116    122   1    109.5000    292.8800
    120    116    121   1    107.8000    276.1440
    120    116    122   1    107.8000    276.1440
    121    116    122   1    107.8000    276.1440
    113    123    124   1    112.7000    488.2728
    113    123    128   1    110.7000    313.8000
    113    123    129   1    110.7000    313.8000
    124    123    128   1    110.7000    313.8000
    124    123    129   1    110.7000    313.8000
    128    123    129   1    107.8000    276.1440
    123    124    125   1    111.1000    527.1840
    123    124    130   1    110.7000    313.8000
    123    124    134   1    112.7000    488.2728
    125    124    130   1    109.5000    292.8800
    125    124    134   1    111.1000    527.1840
    130    124    134   1    110.7000    313.8000
    124    125    126   1    120.4000    669.4400
    124    125    127   1    116.0000    585.7600
    126    125    127   1    120.4000    669.4400
    125    127    131   1    109.5000    292.8800
    125    127    132   1    109.5000    292.8800
    125    127    133   1    109.5000    292.8800
    131    127    132   1    107.8000    276.1440
    131    127    133   1    107.8000    276.1440
    132    127    133   1    107.8000    276.1440
    124    134    135   1    112.7000    488.2728
    124    134    139   1    110.7000    313.8000
    124    134    140   1    110.7000    313.8000
    135    134    139   1    110.7000    313.8000
    135    134    140   1    110.7000    313.8000
    139    134    140   1    107.8000    276.1440
    134    135    136   1    111.1000    527.1840
    134    135    141   1    110.7000    313.8000
    134    135    145   1    112.7000    488.2728
    136    135    141   1    109.5000    292.8800
    136    135    145   1    111.1000    527.1840
    141    135    145   1    110.7000    313.8000
    135    136    137   1    120.4000    669.4400
    135    136    138   1    116.0000    585.7600
    137    136    138   1    120.4000    669.4400
    136    138    142   1    109.5000    292.8800
    136    138    143   1    109.5000    292.8800
    136    138    144   1    109.5000    292.8800
    142    138    143   1    107.8000    276.1440
    142    138    144   1    107.8000    276.1440
    143    138    144   1    107.8000    276.1440
    135    145    146   1    112.7000    488.2728
    135    145    150   1    110.7000    313.8000
    135    145    151   1    110.7000    313.8000
    146    145    150   1    110.7000    313.8000
    146    145    151   1    110.7000    313.8000
    150    145    151   1    107.8000    276.1440
    145    146    147   1    111.1000    527.1840
    145    146    152   1    110.7000    313.8000
    145    146    156   1    112.7000    488.2728
    147    146    152   1    109.5000    292.8800
    147    146    156   1    111.1000    527.1840
    152    146    156   1    110.7000    313.8000
    146    147    148   1    120.4000    669.4400
    146    147    149   1    116.0000    585.7600
    148    147    149   1    120.4000    669.4400
    147    149    153   1    109.5000    292.8800
    147    149    154   1    109.5000    292.8800
    147    149    155   1    109.5000    292.8800
    153    149    154   1    107.8000    276.1440
    153    149    155   1    107.8000    276.1440
    154    149    155   1    107.8000    276.1440
    146    156    157   1    112.7000    488.2728
    146    156    161   1    110.7000    313.8000
    146    156    162   1    110.7000    313.8000
    157    156    161   1    110.7000    313.8000
    157    156    162   1    110.7000    313.8000
    161    156    162   1    107.8000    276.1440
    156    157    158   1    111.1000    527.1840
    156    157    163   1    110.7000    313.8000
    156    157    167   1    112.7000    488.2728
    158    157    163   1    109.5000    292.8800
    158    157    167   1    111.1000    527.1840
    163    157    167   1    110.7000    313.8000
    157    158    159   1    120.4000    669.4400
    157    158    160   1    116.0000    585.7600
    159    158    160   1    120.4000    669.4400
    158    160    164   1    109.5000    292.8800
    158    160    165   1    109.5000    292.8800
    158    160    166   1    109.5000    292.8800
    164    160    165   1    107.8000    276.1440
    164    160    166   1    107.8000    276.1440
    165    160    166   1    107.8000    276.1440
    157    167    168   1    112.7000    488.2728
    157    167    172   1    110.7000    313.8000
    157    167    173   1    110.7000    313.8000
    168    167    172   1    110.7000    313.8000
    168    167    173   1    110.7000    313.8000
    172    167    173   1    107.8000    276.1440
    167    168    169   1    111.1000    527.1840
    167    168    174   1    110.7000    313.8000
    167    168    178   1    112.7000    488.2728
    169    168    174   1    109.5000    292.8800
    169    168    178   1    111.1000    527.1840
    174    168    178   1    110.7000    313.8000
    168    169    170   1    120.4000    669.4400
    168    169    171   1    116.0000    585.7600
    170    169    171   1    120.4000    669.4400
    169    171    175   1    109.5000    292.8800
    169    171    176   1    109.5000    292.8800
    169    171    177   1    109.5000    292.8800
    175    171    176   1    107.8000    276.1440
    175    171    177   1    107.8000    276.1440
    176    171    177   1    107.8000    276.1440
    168    178    179   1    112.7000    488.2728
    168    178    183   1    110.7000    313.8000
    168    178    184   1    110.7000    313.8000
    179    178    183   1    110.7000    313.8000
    179    178    184   1    110.7000    313.8000
    183    178    184   1    107.8000    276.1440
    178    179    180   1    111.1000    527.1840
    178    179    185   1    110.7000    313.8000
    178    179    189   1    112.7000    488.2728
    180    179    185   1    109.5000    292.8800
    180    179    189   1    111.1000    527.1840
    185    179    189   1    110.7000    313.8000
    179    180    181   1    120.4000    669.4400
    179    180    182   1    116.0000    585.7600
    181    180    182   1    120.4000    669.4400
    180    182    186   1    109.5000    292.8800
    180    182    187   1    109.5000    292.8800
    180    182    188   1    109.5000    292.8800
    186    182    187   1    107.8000    276.1440
    186    182    188   1    107.8000    276.1440
    187    182    188   1    107.8000    276.1440
    179    189    190   1    112.7000    488.2728
    179    189    194   1    110.7000    313.8000
    179    189    195   1    110.7000    313.8000
    190    189    194   1    110.7000    313.8000
    190    189    195   1    110.7000    313.8000
    194    189    195   1    107.8000    276.1440
    189    190    191   1    111.1000    527.1840
    189    190    196   1    110.7000    313.8000
    189    190    200   1    112.7000    488.2728
    191    190    196   1    109.5000    292.8800
    191    190    200   1    111.1000    527.1840
    196    190    200   1    110.7000    313.8000
    190    191    192   1    120.4000    669.4400
    190    191    193   1    116.0000    585.7600
    192    191    193   1    120.4000    669.4400
    191    193    197   1    109.5000    292.8800
    191    193    198   1    109.5000    292.8800
    191    193    199   1    109.5000    292.8800
    197    193    198   1    107.8000    276.1440
    197    193    199   1    107.8000    276.1440
    198    193    199   1    107.8000    276.1440
    190    200    201   1    112.7000    488.2728
    190    200    205   1    110.7000    313.8000
    190    200    206   1    110.7000    313.8000
    201    200    205   1    110.7000    313.8000
    201    200    206   1    110.7000    313.8000
    205    200    206   1    107.8000    276.1440
    200    201    202   1    111.1000    527.1840
    200    201    207   1    110.7000    313.8000
    200    201    211   1    112.7000    488.2728
    202    201    207   1    109.5000    292.8800
    202    201    211   1    111.1000    527.1840
    207    201    211   1    110.7000    313.8000
    201    202    203   1    120.4000    669.4400
    201    202    204   1    116.0000    585.7600
    203    202    204   1    120.4000    669.4400
    202    204    208   1    109.5000    292.8800
    202    204    209   1    109.5000    292.8800
    202    204    210   1    109.5000    292.8800
    208    204    209   1    107.8000    276.1440
    208    204    210   1    107.8000    276.1440
    209    204    210   1    107.8000    276.1440
    201    211    212   1    112.7000    488.2728
    201    211    216   1    110.7000    313.8000
    201    211    217   1    110.7000    313.8000
    212    211    216   1    110.7000    313.8000
    212    211    217   1    110.7000    313.8000
    216    211    217   1    107.8000    276.1440
    211    212    213   1    111.1000    527.1840
    211    212    218   1    110.7000    313.8000
    211    212    222   1    110.7000    313.8000
    213    212    218   1    109.5000    292.8800
    213    212    222   1    109.5000    292.8800
    218    212    222   1    107.8000    276.1440
    212    213    214   1    120.4000    669.4400
    212    213    215   1    116.0000    585.7600
    214    213    215   1    120.4000    669.4400
    213    215    219   1    109.5000    292.8800
    213    215    220   1    109.5000    292.8800
    213    215    221   1    109.5000    292.8800
    219    215    220   1    107.8000    276.1440
    219    215    221   1    107.8000    276.1440
    220    215    221   1    107.8000    276.1440

[ dihedrals ]
; Proper dihedrals
      6      1      2      3   5     0.00000     0.00000    -0.94140  0.0
      6      1      2      8   5     0.00000     0.00000     1.25520  0.0
      6      1      2     13   5     0.00000     0.00000     1.25520  0.0
      7      1      2      3   5     0.00000     0.00000    -0.94140  0.0
      7      1      2      8   5     0.00000     0.00000     1.25520  0.0
      7      1      2     13   5     0.00000     0.00000     1.25520  0.0
     12      1      2      3   5     0.00000     0.00000    -0.94140  0.0
     12      1      2      8   5     0.00000     0.00000     1.25520  0.0
     12      1      2     13   5     0.00000     0.00000     1.25520  0.0
      1      2      3      4   5     0.00000     2.52295     0.00000  0.0
      1      2      3      5   5     5.02498     0.46861     2.18823  0.0
      8      2      3      4   5     0.00000     0.00000     0.00000  0.0
      8      2      3      5   5     0.00000     0.00000     0.00000  0.0
     13      2      3      4   5     0.00000     2.52295     0.00000  0.0
     13      2      3      5   5     5.02498     0.46861     2.18823  0.0
      1      2     13     14   5     4.74884    -0.63178     1.67360  0.0
      1      2     13     18   5     0.00000     0.00000     1.25520  0.0
      1      2     13     19   5     0.00000     0.00000     1.25520  0.0
      3      2     13     14   5    -8.00818    -1.52298     2.46438  0.0
      3      2     13     18   5     0.00000     0.00000    -0.94140  0.0
      3      2     13     19   5     0.00000     0.00000    -0.94140  0.0
      8      2     13     14   5     0.00000     0.00000     1.25520  0.0
      8      2     13     18   5     0.00000     0.00000     1.25520  0.0
      8      2     13     19   5     0.00000     0.00000     1.25520  0.0
      2      3      5      9   5     0.00000     0.00000     0.00000  0.0
      2      3      5     10   5     0.00000     0.00000     0.00000  0.0
      2      3      5     11   5     0.00000     0.00000     0.00000  0.0
      4      3      5      9   5     0.00000     0.00000     0.00000  0.0
      4      3      5     10   5     0.00000     0.00000     0.00000  0.0
      4      3      5     11   5     0.00000     0.00000     0.00000  0.0
      2     13     14     15   5    -8.00818    -1.52298     2.46438  0.0
      2     13     14     20   5     0.00000     0.00000     1.25520  0.0
      2     13     14     24   5     4.74884    -0.63178     1.67360  0.0
     18     13     14     15   5     0.00000     0.00000    -0.94140  0.0
     18     13     14     20   5     0.00000     0.00000     1.25520  0.0
     18     13     14     24   5     0.00000     0.00000     1.25520  0.0
     19     13     14     15   5     0.00000     0.00000    -0.94140  0.0
     19     13     14     20   5     0.00000     0.00000     1.25520  0.0
     19     13     14     24   5     0.00000     0.00000     1.25520  0.0
     13     14     15     16   5     0.00000     2.52295     0.00000  0.0
     13     14     15     17   5     5.02498     0.46861     2.18823  0.0
     20     14     15     16   5     0.00000     0.00000     0.00000  0.0
     20     14     15     17   5     0.00000     0.00000     0.00000  0.0
     24     14     15     16   5     0.00000     2.52295     0.00000  0.0
     24     14     15     17   5     5.02498     0.46861     2.18823  0.0
     13     14     24     25   5     4.74884    -0.63178     1.67360  0.0
     13     14     24     29   5     0.00000     0.00000     1.25520  0.0
     13     14     24     30   5     0.00000     0.00000     1.25520  0.0
     15     14     24     25   5    -8.00818    -1.52298     2.46438  0.0
     15     14     24     29   5     0.00000     0.00000    -0.94140  0.0
     15     14     24     30   5     0.00000     0.00000    -0.94140  0.0
     20     14     24     25   5     0.00000     0.00000     1.25520  0.0
     20     14     24     29   5     0.00000     0.00000     1.25520  0.0
     20     14     24     30   5     0.00000     0.00000     1.25520  0.0
     14     15     17     21   5     0.00000     0.00000     0.00000  0.0
     14     15     17     22   5     0.00000     0.00000     0.00000  0.0
     14     15     17     23   5     0.00000     0.00000     0.00000  0.0
     16     15     17     21   5     0.00000     0.00000     0.00000  0.0
     16     15     17     22   5     0.00000     0.00000     0.00000  0.0
     16     15     17     23   5     0.00000     0.00000     0.00000  0.0
     14     24     25     26   5    -8.00818    -1.52298     2.46438  0.0
     14     24     25     31   5     0.00000     0.00000     1.25520  0.0
     14     24     25     35   5     4.74884    -0.63178     1.67360  0.0
     29     24     25     26   5     0.00000     0.00000    -0.94140  0.0
     29     24     25     31   5     0.00000     0.00000     1.25520  0.0
     29     24     25     35   5     0.00000     0.00000     1.25520  0.0
     30     24     25     26   5     0.00000     0.00000    -0.94140  0.0
     30     24     25     31   5     0.00000     0.00000     1.25520  0.0
     30     24     25     35   5     0.00000     0.00000     1.25520  0.0
     24     25     26     27   5     0.00000     2.52295     0.00000  0.0
     24     25     26     28   5     5.02498     0.46861     2.18823  0.0
     31     25     26     27   5     0.00000     0.00000     0.00000  0.0
     31     25     26     28   5     0.00000     0.00000     0.00000  0.0
     35     25     26     27   5     0.00000     2.52295     0.00000  0.0
     35     25     26     28   5     5.02498     0.46861     2.18823  0.0
     24     25     35     36   5     4.74884    -0.63178     1.67360  0.0
     24     25     35     40   5     0.00000     0.00000     1.25520  0.0
     24     25     35     41   5     0.00000     0.00000     1.25520  0.0
     26     25     35     36   5    -8.00818    -1.52298     2.46438  0.0
     26     25     35     40   5     0.00000     0.00000    -0.94140  0.0
     26     25     35     41   5     0.00000     0.00000    -0.94140  0.0
     31     25     35     36   5     0.00000     0.00000     1.25520  0.0
     31     25     35     40   5     0.00000     0.00000     1.25520  0.0
     31     25     35     41   5     0.00000     0.00000     1.25520  0.0
     25     26     28     32   5     0.00000     0.00000     0.00000  0.0
     25     26     28     33   5     0.00000     0.00000     0.00000  0.0
     25     26     28     34   5     0.00000     0.00000     0.00000  0.0
     27     26     28     32   5     0.00000     0.00000     0.00000  0.0
     27     26     28     33   5     0.00000     0.00000     0.00000  0.0
     27     26     28     34   5     0.00000     0.00000     0.00000  0.0
     25     35     36     37   5    -8.00818    -1.52298     2.46438  0.0
     25     35     36     42   5     0.00000     0.00000     1.25520  0.0
     25     35     36     46   5     4.74884    -0.63178     1.67360  0.0
     40     35     36     37   5     0.00000     0.00000    -0.94140  0.0
     40     35     36     42   5     0.00000     0.00000     1.25520  0.0
     40     35     36     46   5     0.00000     0.00000     1.25520  0.0
     41     35     36     37   5     0.00000     0.00000    -0.94140  0.0
     41     35     36     42   5     0.00000     0.00000     1.25520  0.0
     41     35     36     46   5     0.00000     0.00000     1.25520  0.0
     35     36     37     38   5     0.00000     2.52295     0.00000  0.0
     35     36     37     39   5     5.02498     0.46861     2.18823  0.0
     42     36     37     38   5     0.00000     0.00000     0.00000  0.0
     42     36     37     39   5     0.00000     0.00000     0.00000  0.0
     46     36     37     38   5     0.00000     2.52295     0.00000  0.0
     46     36     37     39   5     5.02498     0.46861     2.18823  0.0
     35     36     46     47   5     4.74884    -0.63178     1.67360  0.0
     35     36     46     51   5     0.00000     0.00000     1.25520  0.0
     35     36     46     52   5     0.00000     0.00000     1.25520  0.0
     37     36     46     47   5    -8.00818    -1.52298     2.46438  0.0
     37     36     46     51   5     0.00000     0.00000    -0.94140  0.0
     37     36     46     52   5     0.00000     0.00000    -0.94140  0.0
     42     36     46     47   5     0.00000     0.00000     1.25520  0.0
     42     36     46     51   5     0.00000     0.00000     1.25520  0.0
     42     36     46     52   5     0.00000     0.00000     1.25520  0.0
     36     37     39     43   5     0.00000     0.00000     0.00000  0.0
     36     37     39     44   5     0.00000     0.00000     0.00000  0.0
     36     37     39     45   5     0.00000     0.00000     0.00000  0.0
     38     37     39     43   5     0.00000     0.00000     0.00000  0.0
     38     37     39     44   5     0.00000     0.00000     0.00000  0.0
     38     37     39     45   5     0.00000     0.00000     0.00000  0.0
     36     46     47     48   5    -8.00818    -1.52298     2.46438  0.0
     36     46     47     53   5     0.00000     0.00000     1.25520  0.0
     36     46     47     57   5     4.74884    -0.63178     1.67360  0.0
     51     46     47     48   5     0.00000     0.00000    -0.94140  0.0
     51     46     47     53   5     0.00000     0.00000     1.25520  0.0
     51     46     47     57   5     0.00000     0.00000     1.25520  0.0
     52     46     47     48   5     0.00000     0.00000    -0.94140  0.0
     52     46     47     53   5     0.00000     0.00000     1.25520  0.0
     52     46     47     57   5     0.00000     0.00000     1.25520  0.0
     46     47     48     49   5     0.00000     2.52295     0.00000  0.0
     46     47     48     50   5     5.02498     0.46861     2.18823  0.0
     53     47     48     49   5     0.00000     0.00000     0.00000  0.0
     53     47     48     50   5     0.00000     0.00000     0.00000  0.0
     57     47     48     49   5     0.00000     2.52295     0.00000  0.0
     57     47     48     50   5     5.02498     0.46861     2.18823  0.0
     46     47     57     58   5     4.74884    -0.63178     1.67360  0.0
     46     47     57     62   5     0.00000     0.00000     1.25520  0.0
     46     47     57     63   5     0.00000     0.00000     1.25520  0.0
     48     47     57     58   5    -8.00818    -1.52298     2.46438  0.0
     48     47     57     62   5     0.00000     0.00000    -0.94140  0.0
     48     47     57     63   5     0.00000     0.00000    -0.94140  0.0
     53     47     57     58   5     0.00000     0.00000     1.25520  0.0
     53     47     57     62   5     0.00000     0.00000     1.25520  0.0
     53     47     57     63   5     0.00000     0.00000     1.25520  0.0
     47     48     50     54   5     0.00000     0.00000     0.00000  0.0
     47     48     50     55   5     0.00000     0.00000     0.00000  0.0
     47     48     50     56   5     0.00000     0.00000     0.00000  0.0
     49     48     50     54   5     0.00000     0.00000     0.00000  0.0
     49     48     50     55   5     0.00000     0.00000     0.00000  0.0
     49     48     50     56   5     0.00000     0.00000     0.00000  0.0
     47     57     58     59   5    -8.00818    -1.52298     2.46438  0.0
     47     57     58     64   5     0.00000     0.00000     1.25520  0.0
     47     57     58     68   5     4.74884    -0.63178     1.67360  0.0
     62     57     58     59   5     0.00000     0.00000    -0.94140  0.0
     62     57     58     64   5     0.00000     0.00000     1.25520  0.0
     62     57     58     68   5     0.00000     0.00000     1.25520  0.0
     63     57     58     59   5     0.00000     0.00000    -0.94140  0.0
     63     57     58     64   5     0.00000     0.00000     1.25520  0.0
     63     57     58     68   5     0.00000     0.00000     1.25520  0.0
     57     58     59     60   5     0.00000     2.52295     0.00000  0.0
     57     58     59     61   5     5.02498     0.46861     2.18823  0.0
     64     58     59     60   5     0.00000     0.00000     0.00000  0.0
     64     58     59     61   5     0.00000     0.00000     0.00000  0.0
     68     58     59     60   5     0.00000     2.52295     0.00000  0.0
     68     58     59     61   5     5.02498     0.46861     2.18823  0.0
     57     58     68     69   5     4.74884    -0.63178     1.67360  0.0
     57     58     68     73   5     0.00000     0.00000     1.25520  0.0
     57     58     68     74   5     0.00000     0.00000     1.25520  0.0
     59     58     68     69   5    -8.00818    -1.52298     2.46438  0.0
     59     58     68     73   5     0.00000     0.00000    -0.94140  0.0
     59     58     68     74   5     0.00000     0.00000    -0.94140  0.0
     64     58     68     69   5     0.00000     0.00000     1.25520  0.0
     64     58     68     73   5     0.00000     0.00000     1.25520  0.0
     64     58     68     74   5     0.00000     0.00000     1.25520  0.0
     58     59     61     65   5     0.00000     0.00000     0.00000  0.0
     58     59     61     66   5     0.00000     0.00000     0.00000  0.0
     58     59     61     67   5     0.00000     0.00000     0.00000  0.0
     60     59     61     65   5     0.00000     0.00000     0.00000  0.0
     60     59     61     66   5     0.00000     0.00000     0.00000  0.0
     60     59     61     67   5     0.00000     0.00000     0.00000  0.0
     58     68     69     70   5    -8.00818    -1.52298     2.46438  0.0
     58     68     69     75   5     0.00000     0.00000     1.25520  0.0
     58     68     69     79   5     4.74884    -0.63178     1.67360  0.0
     73     68     69     70   5     0.00000     0.00000    -0.94140  0.0
     73     68     69     75   5     0.00000     0.00000     1.25520  0.0
     73     68     69     79   5     0.00000     0.00000     1.25520  0.0
     74     68     69     70   5     0.00000     0.00000    -0.94140  0.0
     74     68     69     75   5     0.00000     0.00000     1.25520  0.0
     74     68     69     79   5     0.00000     0.00000     1.25520  0.0
     68     69     70     71   5     0.00000     2.52295     0.00000  0.0
     68     69     70     72   5     5.02498     0.46861     2.18823  0.0
     75     69     70     71   5     0.00000     0.00000     0.00000  0.0
     75     69     70     72   5     0.00000     0.00000     0.00000  0.0
     79     69     70     71   5     0.00000     2.52295     0.00000  0.0
     79     69     70     72   5     5.02498     0.46861     2.18823  0.0
     68     69     79     80   5     4.74884    -0.63178     1.67360  0.0
     68     69     79     84   5     0.00000     0.00000     1.25520  0.0
     68     69     79     85   5     0.00000     0.00000     1.25520  0.0
     70     69     79     80   5    -8.00818    -1.52298     2.46438  0.0
     70     69     79     84   5     0.00000     0.00000    -0.94140  0.0
     70     69     79     85   5     0.00000     0.00000    -0.94140  0.0
     75     69     79     80   5     0.00000     0.00000     1.25520  0.0
     75     69     79     84   5     0.00000     0.00000     1.25520  0.0
     75     69     79     85   5     0.00000     0.00000     1.25520  0.0
     69     70     72     76   5     0.00000     0.00000     0.00000  0.0
     69     70     72     77   5     0.00000     0.00000     0.00000  0.0
     69     70     72     78   5     0.00000     0.00000     0.00000  0.0
     71     70     72     76   5     0.00000     0.00000     0.00000  0.0
     71     70     72     77   5     0.00000     0.00000     0.00000  0.0
     71     70     72     78   5     0.00000     0.00000     0.00000  0.0
     69     79     80     81   5    -8.00818    -1.52298     2.46438  0.0
     69     79     80     86   5     0.00000     0.00000     1.25520  0.0
     69     79     80     90   5     4.74884    -0.63178     1.67360  0.0
     84     79     80     81   5     0.00000     0.00000    -0.94140  0.0
     84     79     80     86   5     0.00000     0.00000     1.25520  0.0
     84     79     80     90   5     0.00000     0.00000     1.25520  0.0
     85     79     80     81   5     0.00000     0.00000    -0.94140  0.0
     85     79     80     86   5     0.00000     0.00000     1.25520  0.0
     85     79     80     90   5     0.00000     0.00000     1.25520  0.0
     79     80     81     82   5     0.00000     2.52295     0.00000  0.0
     79     80     81     83   5     5.02498     0.46861     2.18823  0.0
     86     80     81     82   5     0.00000     0.00000     0.00000  0.0
     86     80     81     83   5     0.00000     0.00000     0.00000  0.0
     90     80     81     82   5     0.00000     2.52295     0.00000  0.0
     90     80     81     83   5     5.02498     0.46861     2.18823  0.0
     79     80     90     91   5     4.74884    -0.63178     1.67360  0.0
     79     80     90     95   5     0.00000     0.00000     1.25520  0.0
     79     80     90     96   5     0.00000     0.00000     1.25520  0.0
     81     80     90     91   5    -8.00818    -1.52298     2.46438  0.0
     81     80     90     95   5     0.00000     0.00000    -0.94140  0.0
     81     80     90     96   5     0.00000     0.00000    -0.94140  0.0
     86     80     90     91   5     0.00000     0.00000     1.25520  0.0
     86     80     90     95   5     0.00000     0.00000     1.25520  0.0
     86     80     90     96   5     0.00000     0.00000     1.25520  0.0
     80     81     83     87   5     0.00000     0.00000     0.00000  0.0
     80     81     83     88   5     0.00000     0.00000     0.00000  0.0
     80     81     83     89   5     0.00000     0.00000     0.00000  0.0
     82     81     83     87   5     0.00000     0.00000     0.00000  0.0
     82     81     83     88   5     0.00000     0.00000     0.00000  0.0
     82     81     83     89   5     0.00000     0.00000     0.00000  0.0
     80     90     91     92   5    -8.00818    -1.52298     2.46438  0.0
     80     90     91     97   5     0.00000     0.00000     1.25520  0.0
     80     90     91    101   5     4.74884    -0.63178     1.67360  0.0
     95     90     91     92   5     0.00000     0.00000    -0.94140  0.0
     95     90     91     97   5     0.00000     0.00000     1.25520  0.0
     95     90     91    101   5     0.00000     0.00000     1.25520  0.0
     96     90     91     92   5     0.00000     0.00000    -0.94140  0.0
     96     90     91     97   5     0.00000     0.00000     1.25520  0.0
     96     90     91    101   5     0.00000     0.00000     1.25520  0.0
     90     91     92     93   5     0.00000     2.52295     0.00000  0.0
     90     91     92     94   5     5.02498     0.46861     2.18823  0.0
     97     91     92     93   5     0.00000     0.00000     0.00000  0.0
     97     91     92     94   5     0.00000     0.00000     0.00000  0.0
    101     91     92     93   5     0.00000     2.52295     0.00000  0.0
    101     91     92     94   5     5.02498     0.46861     2.18823  0.0
     90     91    101    102   5     4.74884    -0.63178     1.67360  0.0
     90     91    101    106   5     0.00000     0.00000     1.25520  0.0
     90     91    101    107   5     0.00000     0.00000     1.25520  0.0
     92     91    101    102   5    -8.00818    -1.52298     2.46438  0.0
     92     91    101    106   5     0.00000     0.00000    -0.94140  0.0
     92     91    101    107   5     0.00000     0.00000    -0.94140  0.0
     97     91    101    102   5     0.00000     0.00000     1.25520  0.0
     97     91    101    106   5     0.00000     0.00000     1.25520  0.0
     97     91    101    107   5     0.00000     0.00000     1.25520  0.0
     91     92     94     98   5     0.00000     0.00000     0.00000  0.0
     91     92     94     99   5     0.00000     0.00000     0.00000  0.0
     91     92     94    100   5     0.00000     0.00000     0.00000  0.0
     93     92     94     98   5     0.00000     0.00000     0.00000  0.0
     93     92     94     99   5     0.00000     0.00000     0.00000  0.0
     93     92     94    100   5     0.00000     0.00000     0.00000  0.0
     91    101    102    103   5    -8.00818    -1.52298     2.46438  0.0
     91    101    102    108   5     0.00000     0.00000     1.25520  0.0
     91    101    102    112   5     4.74884    -0.63178     1.67360  0.0
    106    101    102    103   5     0.00000     0.00000    -0.94140  0.0
    106    101    102    108   5     0.00000     0.00000     1.25520  0.0
    106    101    102    112   5     0.00000     0.00000     1.25520  0.0
    107    101    102    103   5     0.00000     0.00000    -0.94140  0.0
    107    101    102    108   5     0.00000     0.00000     1.25520  0.0
    107    101    102    112   5     0.00000     0.00000     1.25520  0.0
    101    102    103    104   5     0.00000     2.52295     0.00000  0.0
    101    102    103    105   5     5.02498     0.46861     2.18823  0.0
    108    102    103    104   5     0.00000     0.00000     0.00000  0.0
    108    102    103    105   5     0.00000     0.00000     0.00000  0.0
    112    102    103    104   5     0.00000     2.52295     0.00000  0.0
    112    102    103    105   5     5.02498     0.46861     2.18823  0.0
    101    102    112    113   5     4.74884    -0.63178     1.67360  0.0
    101    102    112    117   5     0.00000     0.00000     1.25520  0.0
    101    102    112    118   5     0.00000     0.00000     1.25520  0.0
    103    102    112    113   5    -8.00818    -1.52298     2.46438  0.0
    103    102    112    117   5     0.00000     0.00000    -0.94140  0.0
    103    102    112    118   5     0.00000     0.00000    -0.94140  0.0
    108    102    112    113   5     0.00000     0.00000     1.25520  0.0
    108    102    112    117   5     0.00000     0.00000     1.25520  0.0
    108    102    112    118   5     0.00000     0.00000     1.25520  0.0
    102    103    105    109   5     0.00000     0.00000     0.00000  0.0
    102    103    105    110   5     0.00000     0.00000     0.00000  0.0
    102    103    105    111   5     0.00000     0.00000     0.00000  0.0
    104    103    105    109   5     0.00000     0.00000     0.00000  0.0
    104    103    105    110   5     0.00000     0.00000     0.00000  0.0
    104    103    105    111   5     0.00000     0.00000     0.00000  0.0
    102    112    113    114   5    -8.00818    -1.52298     2.46438  0.0
    102    112    113    119   5     0.00000     0.00000     1.25520  0.0
    102    112    113    123   5     4.74884    -0.63178     1.67360  0.0
    117    112    113    114   5     0.00000     0.00000    -0.94140  0.0
    117    112    113    119   5     0.00000     0.00000     1.25520  0.0
    117    112    113    123   5     0.00000     0.00000     1.25520  0.0
    118    112    113    114   5     0.00000     0.00000    -0.94140  0.0
    118    112    113    119   5     0.00000     0.00000     1.25520  0.0
    118    112    113    123   5     0.00000     0.00000     1.25520  0.0
    112    113    114    115   5     0.00000     2.52295     0.00000  0.0
    112    113    114    116   5     5.02498     0.46861     2.18823  0.0
    119    113    114    115   5     0.00000     0.00000     0.00000  0.0
    119    113    114    116   5     0.00000     0.00000     0.00000  0.0
    123    113    114    115   5     0.00000     2.52295     0.00000  0.0
    123    113    114    116   5     5.02498     0.46861     2.18823  0.0
    112    113    123    124   5     4.74884    -0.63178     1.67360  0.0
    112    113    123    128   5     0.00000     0.00000     1.25520  0.0
    112    113    123    129   5     0.00000     0.00000     1.25520  0.0
    114    113    123    124   5    -8.00818    -1.52298     2.46438  0.0
    114    113    123    128   5     0.00000     0.00000    -0.94140  0.0
    114    113    123    129   5     0.00000     0.00000    -0.94140  0.0
    119    113    123    124   5     0.00000     0.00000     1.25520  0.0
    119    113    123    128   5     0.00000     0.00000     1.25520  0.0
    119    113    123    129   5     0.00000     0.00000     1.25520  0.0
    113    114    116    120   5     0.00000     0.00000     0.00000  0.0
    113    114    116    121   5     0.00000     0.00000     0.00000  0.0
    113    114    116    122   5     0.00000     0.00000     0.00000  0.0
    115    114    116    120   5     0.00000     0.00000     0.00000  0.0
    115    114    116    121   5     0.00000     0.00000     0.00000  0.0
    115    114    116    122   5     0.00000     0.00000     0.00000  0.0
    113    123    124    125   5    -8.00818    -1.52298     2.46438  0.0
    113    123    124    130   5     0.00000     0.00000     1.25520  0.0
    113    123    124    134   5     4.74884    -0.63178     1.67360  0.0
    128    123    124    125   5     0.00000     0.00000    -0.94140  0.0
    128    123    124    130   5     0.00000     0.00000     1.25520  0.0
    128    123    124    134   5     0.00000     0.00000     1.25520  0.0
    129    123    124    125   5     0.00000     0.00000    -0.94140  0.0
    129    123    124    130   5     0.00000     0.00000     1.25520  0.0
    129    123    124    134   5     0.00000     0.00000     1.25520  0.0
    123    124    125    126   5     0.00000     2.52295     0.00000  0.0
    123    124    125    127   5     5.02498     0.46861     2.18823  0.0
    130    124    125    126   5     0.00000     0.00000     0.00000  0.0
    130    124    125    127   5     0.00000     0.00000     0.00000  0.0
    134    124    125    126   5     0.00000     2.52295     0.00000  0.0
    134    124    125    127   5     5.02498     0.46861     2.18823  0.0
    123    124    134    135   5     4.74884    -0.63178     1.67360  0.0
    123    124    134    139   5     0.00000     0.00000     1.25520  0.0
    123    124    134    140   5     0.00000     0.00000     1.25520  0.0
    125    124    134    135   5    -8.00818    -1.52298     2.46438  0.0
    125    124    134    139   5     0.00000     0.00000    -0.94140  0.0
    125    124    134    140   5     0.00000     0.00000    -0.94140  0.0
    130    124    134    135   5     0.00000     0.00000     1.25520  0.0
    130    124    134    139   5     0.00000     0.00000     1.25520  0.0
    130    124    134    140   5     0.00000     0.00000     1.25520  0.0
    124    125    127    131   5     0.00000     0.00000     0.00000  0.0
    124    125    127    132   5     0.00000     0.00000     0.00000  0.0
    124    125    127    133   5     0.00000     0.00000     0.00000  0.0
    126    125    127    131   5     0.00000     0.00000     0.00000  0.0
    126    125    127    132   5     0.00000     0.00000     0.00000  0.0
    126    125    127    133   5     0.00000     0.00000     0.00000  0.0
    124    134    135    136   5    -8.00818    -1.52298     2.46438  0.0
    124    134    135    141   5     0.00000     0.00000     1.25520  0.0
    124    134    135    145   5     4.74884    -0.63178     1.67360  0.0
    139    134    135    136   5     0.00000     0.00000    -0.94140  0.0
    139    134    135    141   5     0.00000     0.00000     1.25520  0.0
    139    134    135    145   5     0.00000     0.00000     1.25520  0.0
    140    134    135    136   5     0.00000     0.00000    -0.94140  0.0
    140    134    135    141   5     0.00000     0.00000     1.25520  0.0
    140    134    135    145   5     0.00000     0.00000     1.25520  0.0
    134    135    136    137   5     0.00000     2.52295     0.00000  0.0
    134    135    136    138   5     5.02498     0.46861     2.18823  0.0
    141    135    136    137   5     0.00000     0.00000     0.00000  0.0
    141    135    136    138   5     0.00000     0.00000     0.00000  0.0
    145    135    136    137   5     0.00000     2.52295     0.00000  0.0
    145    135    136    138   5     5.02498     0.46861     2.18823  0.0
    134    135    145    146   5     4.74884    -0.63178     1.67360  0.0
    134    135    145    150   5     0.00000     0.00000     1.25520  0.0
    134    135    145    151   5     0.00000     0.00000     1.25520  0.0
    136    135    145    146   5    -8.00818    -1.52298     2.46438  0.0
    136    135    145    150   5     0.00000     0.00000    -0.94140  0.0
    136    135    145    151   5     0.00000     0.00000    -0.94140  0.0
    141    135    145    146   5     0.00000     0.00000     1.25520  0.0
    141    135    145    150   5     0.00000     0.00000     1.25520  0.0
    141    135    145    151   5     0.00000     0.00000     1.25520  0.0
    135    136    138    142   5     0.00000     0.00000     0.00000  0.0
    135    136    138    143   5     0.00000     0.00000     0.00000  0.0
    135    136    138    144   5     0.00000     0.00000     0.00000  0.0
    137    136    138    142   5     0.00000     0.00000     0.00000  0.0
    137    136    138    143   5     0.00000     0.00000     0.00000  0.0
    137    136    138    144   5     0.00000     0.00000     0.00000  0.0
    135    145    146    147   5    -8.00818    -1.52298     2.46438  0.0
    135    145    146    152   5     0.00000     0.00000     1.25520  0.0
    135    145    146    156   5     4.74884    -0.63178     1.67360  0.0
    150    145    146    147   5     0.00000     0.00000    -0.94140  0.0
    150    145    146    152   5     0.00000     0.00000     1.25520  0.0
    150    145    146    156   5     0.00000     0.00000     1.25520  0.0
    151    145    146    147   5     0.00000     0.00000    -0.94140  0.0
    151    145    146    152   5     0.00000     0.00000     1.25520  0.0
    151    145    146    156   5     0.00000     0.00000     1.25520  0.0
    145    146    147    148   5     0.00000     2.52295     0.00000  0.0
    145    146    147    149   5     5.02498     0.46861     2.18823  0.0
    152    146    147    148   5     0.00000     0.00000     0.00000  0.0
    152    146    147    149   5     0.00000     0.00000     0.00000  0.0
    156    146    147    148   5     0.00000     2.52295     0.00000  0.0
    156    146    147    149   5     5.02498     0.46861     2.18823  0.0
    145    146    156    157   5     4.74884    -0.63178     1.67360  0.0
    145    146    156    161   5     0.00000     0.00000     1.25520  0.0
    145    146    156    162   5     0.00000     0.00000     1.25520  0.0
    147    146    156    157   5    -8.00818    -1.52298     2.46438  0.0
    147    146    156    161   5     0.00000     0.00000    -0.94140  0.0
    147    146    156    162   5     0.00000     0.00000    -0.94140  0.0
    152    146    156    157   5     0.00000     0.00000     1.25520  0.0
    152    146    156    161   5     0.00000     0.00000     1.25520  0.0
    152    146    156    162   5     0.00000     0.00000     1.25520  0.0
    146    147    149    153   5     0.00000     0.00000     0.00000  0.0
    146    147    149    154   5     0.00000     0.00000     0.00000  0.0
    146    147    149    155   5     0.00000     0.00000     0.00000  0.0
    148    147    149    153   5     0.00000     0.00000     0.00000  0.0
    148    147    149    154   5     0.00000     0.00000     0.00000  0.0
    148    147    149    155   5     0.00000     0.00000     0.00000  0.0
    146    156    157    158   5    -8.00818    -1.52298     2.46438  0.0
    146    156    157    163   5     0.00000     0.00000     1.25520  0.0
    146    156    157    167   5     4.74884    -0.63178     1.67360  0.0
    161    156    157    158   5     0.00000     0.00000    -0.94140  0.0
    161    156    157    163   5     0.00000     0.00000     1.25520  0.0
    161    156    157    167   5     0.00000     0.00000     1.25520  0.0
    162    156    157    158   5     0.00000     0.00000    -0.94140  0.0
    162    156    157    163   5     0.00000     0.00000     1.25520  0.0
    162    156    157    167   5     0.00000     0.00000     1.25520  0.0
    156    157    158    159   5     0.00000     2.52295     0.00000  0.0
    156    157    158    160   5     5.02498     0.46861     2.18823  0.0
    163    157    158    159   5     0.00000     0.00000     0.00000  0.0
    163    157    158    160   5     0.00000     0.00000     0.00000  0.0
    167    157    158    159   5     0.00000     2.52295     0.00000  0.0
    167    157    158    160   5     5.02498     0.46861     2.18823  0.0
    156    157    167    168   5     4.74884    -0.63178     1.67360  0.0
    156    157    167    172   5     0.00000     0.00000     1.25520  0.0
    156    157    167    173   5     0.00000     0.00000     1.25520  0.0
    158    157    167    168   5    -8.00818    -1.52298     2.46438  0.0
    158    157    167    172   5     0.00000     0.00000    -0.94140  0.0
    158    157    167    173   5     0.00000     0.00000    -0.94140  0.0
    163    157    167    168   5     0.00000     0.00000     1.25520  0.0
    163    157    167    172   5     0.00000     0.00000     1.25520  0.0
    163    157    167    173   5     0.00000     0.00000     1.25520  0.0
    157    158    160    164   5     0.00000     0.00000     0.00000  0.0
    157    158    160    165   5     0.00000     0.00000     0.00000  0.0
    157    158    160    166   5     0.00000     0.00000     0.00000  0.0
    159    158    160    164   5     0.00000     0.00000     0.00000  0.0
    159    158    160    165   5     0.00000     0.00000     0.00000  0.0
    159    158    160    166   5     0.00000     0.00000     0.00000  0.0
    157    167    168    169   5    -8.00818    -1.52298     2.46438  0.0
    157    167    168    174   5     0.00000     0.00000     1.25520  0.0
    157    167    168    178   5     4.74884    -0.63178     1.67360  0.0
    172    167    168    169   5     0.00000     0.00000    -0.94140  0.0
    172    167    168    174   5     0.00000     0.00000     1.25520  0.0
    172    167    168    178   5     0.00000     0.00000     1.25520  0.0
    173    167    168    169   5     0.00000     0.00000    -0.94140  0.0
    173    167    168    174   5     0.00000     0.00000     1.25520  0.0
    173    167    168    178   5     0.00000     0.00000     1.25520  0.0
    167    168    169    170   5     0.00000     2.52295     0.00000  0.0
    167    168    169    171   5     5.02498     0.46861     2.18823  0.0
    174    168    169    170   5     0.00000     0.00000     0.00000  0.0
    174    168    169    171   5     0.00000     0.00000     0.00000  0.0
    178    168    169    170   5     0.00000     2.52295     0.00000  0.0
    178    168    169    171   5     5.02498     0.46861     2.18823  0.0
    167    168    178    179   5     4.74884    -0.63178     1.67360  0.0
    167    168    178    183   5     0.00000     0.00000     1.25520  0.0
    167    168    178    184   5     0.00000     0.00000     1.25520  0.0
    169    168    178    179   5    -8.00818    -1.52298     2.46438  0.0
    169    168    178    183   5     0.00000     0.00000    -0.94140  0.0
    169    168    178    184   5     0.00000     0.00000    -0.94140  0.0
    174    168    178    179   5     0.00000     0.00000     1.25520  0.0
    174    168    178    183   5     0.00000     0.00000     1.25520  0.0
    174    168    178    184   5     0.00000     0.00000     1.25520  0.0
    168    169    171    175   5     0.00000     0.00000     0.00000  0.0
    168    169    171    176   5     0.00000     0.00000     0.00000  0.0
    168    169    171    177   5     0.00000     0.00000     0.00000  0.0
    170    169    171    175   5     0.00000     0.00000     0.00000  0.0
    170    169    171    176   5     0.00000     0.00000     0.00000  0.0
    170    169    171    177   5     0.00000     0.00000     0.00000  0.0
    168    178    179    180   5    -8.00818    -1.52298     2.46438  0.0
    168    178    179    185   5     0.00000     0.00000     1.25520  0.0
    168    178    179    189   5     4.74884    -0.63178     1.67360  0.0
    183    178    179    180   5     0.00000     0.00000    -0.94140  0.0
    183    178    179    185   5     0.00000     0.00000     1.25520  0.0
    183    178    179    189   5     0.00000     0.00000     1.25520  0.0
    184    178    179    180   5     0.00000     0.00000    -0.94140  0.0
    184    178    179    185   5     0.00000     0.00000     1.25520  0.0
    184    178    179    189   5     0.00000     0.00000     1.25520  0.0
    178    179    180    181   5     0.00000     2.52295     0.00000  0.0
    178    179    180    182   5     5.02498     0.46861     2.18823  0.0
    185    179    180    181   5     0.00000     0.00000     0.00000  0.0
    185    179    180    182   5     0.00000     0.00000     0.00000  0.0
    189    179    180    181   5     0.00000     2.52295     0.00000  0.0
    189    179    180    182   5     5.02498     0.46861     2.18823  0.0
    178    179    189    190   5     4.74884    -0.63178     1.67360  0.0
    178    179    189    194   5     0.00000     0.00000     1.25520  0.0
    178    179    189    195   5     0.00000     0.00000     1.25520  0.0
    180    179    189    190   5    -8.00818    -1.52298     2.46438  0.0
    180    179    189    194   5     0.00000     0.00000    -0.94140  0.0
    180    179    189    195   5     0.00000     0.00000    -0.94140  0.0
    185    179    189    190   5     0.00000     0.00000     1.25520  0.0
    185    179    189    194   5     0.00000     0.00000     1.25520  0.0
    185    179    189    195   5     0.00000     0.00000     1.25520  0.0
    179    180    182    186   5     0.00000     0.00000     0.00000  0.0
    179    180    182    187   5     0.00000     0.00000     0.00000  0.0
    179    180    182    188   5     0.00000     0.00000     0.00000  0.0
    181    180    182    186   5     0.00000     0.00000     0.00000  0.0
    181    180    182    187   5     0.00000     0.00000     0.00000  0.0
    181    180    182    188   5     0.00000     0.00000     0.00000  0.0
    179    189    190    191   5    -8.00818    -1.52298     2.46438  0.0
    179    189    190    196   5     0.00000     0.00000     1.25520  0.0
    179    189    190    200   5     4.74884    -0.63178     1.67360  0.0
    194    189    190    191   5     0.00000     0.00000    -0.94140  0.0
    194    189    190    196   5     0.00000     0.00000     1.25520  0.0
    194    189    190    200   5     0.00000     0.00000     1.25520  0.0
    195    189    190    191   5     0.00000     0.00000    -0.94140  0.0
    195    189    190    196   5     0.00000     0.00000     1.25520  0.0
    195    189    190    200   5     0.00000     0.00000     1.25520  0.0
    189    190    191    192   5     0.00000     2.52295     0.00000  0.0
    189    190    191    193   5     5.02498     0.46861     2.18823  0.0
    196    190    191    192   5     0.00000     0.00000     0.00000  0.0
    196    190    191    193   5     0.00000     0.00000     0.00000  0.0
    200    190    191    192   5     0.00000     2.52295     0.00000  0.0
    200    190    191    193   5     5.02498     0.46861     2.18823  0.0
    189    190    200    201   5     4.74884    -0.63178     1.67360  0.0
    189    190    200    205   5     0.00000     0.00000     1.25520  0.0
    189    190    200    206   5     0.00000     0.00000     1.25520  0.0
    191    190    200    201   5    -8.00818    -1.52298     2.46438  0.0
    191    190    200    205   5     0.00000     0.00000    -0.94140  0.0
    191    190    200    206   5     0.00000     0.00000    -0.94140  0.0
    196    190    200    201   5     0.00000     0.00000     1.25520  0.0
    196    190    200    205   5     0.00000     0.00000     1.25520  0.0
    196    190    200    206   5     0.00000     0.00000     1.25520  0.0
    190    191    193    197   5     0.00000     0.00000     0.00000  0.0
    190    191    193    198   5     0.00000     0.00000     0.00000  0.0
    190    191    193    199   5     0.00000     0.00000     0.00000  0.0
    192    191    193    197   5     0.00000     0.00000     0.00000  0.0
    192    191    193    198   5     0.00000     0.00000     0.00000  0.0
    192    191    193    199   5     0.00000     0.00000     0.00000  0.0
    190    200    201    202   5    -8.00818    -1.52298     2.46438  0.0
    190    200    201    207   5     0.00000     0.00000     1.25520  0.0
    190    200    201    211   5     4.74884    -0.63178     1.67360  0.0
    205    200    201    202   5     0.00000     0.00000    -0.94140  0.0
    205    200    201    207   5     0.00000     0.00000     1.25520  0.0
    205    200    201    211   5     0.00000     0.00000     1.25520  0.0
    206    200    201    202   5     0.00000     0.00000    -0.94140  0.0
    206    200    201    207   5     0.00000     0.00000     1.25520  0.0
    206    200    201    211   5     0.00000     0.00000     1.25520  0.0
    200    201    202    203   5     0.00000     2.52295     0.00000  0.0
    200    201    202    204   5     5.02498     0.46861     2.18823  0.0
    207    201    202    203   5     0.00000     0.00000     0.00000  0.0
    207    201    202    204   5     0.00000     0.00000     0.00000  0.0
    211    201    202    203   5     0.00000     2.52295     0.00000  0.0
    211    201    202    204   5     5.02498     0.46861     2.18823  0.0
    200    201    211    212   5     4.74884    -0.63178     1.67360  0.0
    200    201    211    216   5     0.00000     0.00000     1.25520  0.0
    200    201    211    217   5     0.00000     0.00000     1.25520  0.0
    202    201    211    212   5    -8.00818    -1.52298     2.46438  0.0
    202    201    211    216   5     0.00000     0.00000    -0.94140  0.0
    202    201    211    217   5     0.00000     0.00000    -0.94140  0.0
    207    201    211    212   5     0.00000     0.00000     1.25520  0.0
    207    201    211    216   5     0.00000     0.00000     1.25520  0.0
    207    201    211    217   5     0.00000     0.00000     1.25520  0.0
    201    202    204    208   5     0.00000     0.00000     0.00000  0.0
    201    202    204    209   5     0.00000     0.00000     0.00000  0.0
    201    202    204    210   5     0.00000     0.00000     0.00000  0.0
    203    202    204    208   5     0.00000     0.00000     0.00000  0.0
    203    202    204    209   5     0.00000     0.00000     0.00000  0.0
    203    202    204    210   5     0.00000     0.00000     0.00000  0.0
    201    211    212    213   5    -8.00818    -1.52298     2.46438  0.0
    201    211    212    218   5     0.00000     0.00000     1.25520  0.0
    201    211    212    222   5     0.00000     0.00000     1.25520  0.0
    216    211    212    213   5     0.00000     0.00000    -0.94140  0.0
    216    211    212    218   5     0.00000     0.00000     1.25520  0.0
    216    211    212    222   5     0.00000     0.00000     1.25520  0.0
    217    211    212    213   5     0.00000     0.00000    -0.94140  0.0
    217    211    212    218   5     0.00000     0.00000     1.25520  0.0
    217    211    212    222   5     0.00000     0.00000     1.25520  0.0
    211    212    213    214   5     0.00000     2.52295     0.00000  0.0
    211    212    213    215   5     5.02498     0.46861     2.18823  0.0
    218    212    213    214   5     0.00000     0.00000     0.00000  0.0
    218    212    213    215   5     0.00000     0.00000     0.00000  0.0
    222    212    213    214   5     0.00000     0.00000     0.00000  0.0
    222    212    213    215   5     0.00000     0.00000     0.00000  0.0
    212    213    215    219   5     0.00000     0.00000     0.00000  0.0
    212    213    215    220   5     0.00000     0.00000     0.00000  0.0
    212    213    215    221   5     0.00000     0.00000     0.00000  0.0
    214    213    215    219   5     0.00000     0.00000     0.00000  0.0
    214    213    215    220   5     0.00000     0.00000     0.00000  0.0
    214    213    215    221   5     0.00000     0.00000     0.00000  0.0

[ dihedrals ]
; Improper dihedrals
; h   i   j   k   funct
      2      4      3      5   5     0.00000    87.86400     0.00000  0.0
     14     16     15     17   5     0.00000    87.86400     0.00000  0.0
     25     27     26     28   5     0.00000    87.86400     0.00000  0.0
     36     38     37     39   5     0.00000    87.86400     0.00000  0.0
     47     49     48     50   5     0.00000    87.86400     0.00000  0.0
     58     60     59     61   5     0.00000    87.86400     0.00000  0.0
     69     71     70     72   5     0.00000    87.86400     0.00000  0.0
     80     82     81     83   5     0.00000    87.86400     0.00000  0.0
     91     93     92     94   5     0.00000    87.86400     0.00000  0.0
    102    104    103    105   5     0.00000    87.86400     0.00000  0.0
    113    115    114    116   5     0.00000    87.86400     0.00000  0.0
    124    126    125    127   5     0.00000    87.86400     0.00000  0.0
    135    137    136    138   5     0.00000    87.86400     0.00000  0.0
    146    148    147    149   5     0.00000    87.86400     0.00000  0.0
    157    159    158    160   5     0.00000    87.86400     0.00000  0.0
    168    170    169    171   5     0.00000    87.86400     0.00000  0.0
    179    181    180    182   5     0.00000    87.86400     0.00000  0.0
    190    192    191    193   5     0.00000    87.86400     0.00000  0.0
    201    203    202    204   5     0.00000    87.86400     0.00000  0.0
    212    214    213    215   5     0.00000    87.86400     0.00000  0.0
